
     Program PWSCF v.7.1 starts on  2Feb2024 at 13:46: 8 

     This program is part of the open-source Quantum ESPRESSO suite
     for quantum simulation of materials; please cite
         "P. Giannozzi et al., J. Phys.:Condens. Matter 21 395502 (2009);
         "P. Giannozzi et al., J. Phys.:Condens. Matter 29 465901 (2017);
         "P. Giannozzi et al., J. Chem. Phys. 152 154105 (2020);
          URL http://www.quantum-espresso.org", 
     in publications or presentations arising from this work. More details at
     http://www.quantum-espresso.org/quote

     Parallel version (MPI), running on   112 processors

     MPI processes distributed on     1 nodes
     1006952 MiB available memory on the printing compute node when the environment starts

     Reading input from /n/holyscratch01/kozinsky_lab/sfalletta/QE/SiO2/SiO2-T600-Ex-0/SiO2-scf.inp

     Current dimensions of program PWSCF are:
     Max number of different atomic species (ntypx) = 10
     Max number of k-points (npk) =  40000
     Max angular momentum in pseudopotentials (lmaxx) =  4

     IMPORTANT: XC functional enforced from input :
     Exchange-correlation= PBE
                           (   1   4   3   4   0   0   0)
     Any further DFT definition will be discarded
     Please, verify this is what you really want


     R & G space division:  proc/nbgrp/npool/nimage =     112
     Subspace diagonalization in iterative solution of the eigenvalue problem:
     one sub-group per band group will be used
     scalapack distributed-memory algorithm (size of sub-group: 10* 10 procs)


     Parallelization info
     --------------------
     sticks:   dense  smooth     PW     G-vecs:    dense   smooth      PW
     Min         174      87     23                21712     7675    1045
     Max         175      88     24                21721     7680    1049
     Sum       19575    9769   2585              2432309   859779  117343

     Using Slab Decomposition



     bravais-lattice index     =           14
     lattice parameter (alat)  =      18.8417  a.u.
     unit-cell volume          =    6365.9664 (a.u.)^3
     number of atoms/cell      =           72
     number of atomic types    =            2
     number of electrons       =       384.00
     number of Kohn-Sham states=          220
     kinetic-energy cutoff     =     100.0000  Ry
     charge density cutoff     =     800.0000  Ry
     scf convergence threshold =      1.0E-08
     mixing beta               =       0.7000
     number of iterations used =            8  plain     mixing
     Exchange-correlation= PBE
                           (   1   4   3   4   0   0   0)

     Using Berry phase electric field
     In a.u.(Ry)  cartesian system of reference
        0.0001000000
        0.0000000000
        0.0000000000
     In a.u.(Ry)  crystal system of reference
        0.0001000000
        0.0000000000
        0.0000000000
     Number of iterative cycles:   1


     celldm(1)=  18.841714  celldm(2)=   0.866025  celldm(3)=   1.098936
     celldm(4)=   0.000000  celldm(5)=   0.000000  celldm(6)=   0.000000

     crystal axes: (cart. coord. in units of alat)
               a(1) = (   1.000000   0.000000   0.000000 )  
               a(2) = (   0.000000   0.866025   0.000000 )  
               a(3) = (   0.000000   0.000000   1.098936 )  

     reciprocal axes: (cart. coord. in units 2 pi/alat)
               b(1) = (  1.000000  0.000000  0.000000 )  
               b(2) = (  0.000000  1.154701  0.000000 )  
               b(3) = (  0.000000  0.000000  0.909971 )  


     PseudoPot. # 1 for Si read from file:
     /n/holyscratch01/kozinsky_lab/sfalletta/QE/Inputs/Si.upf
     MD5 check sum: 1e49d63d1c5892e9c2567cdfc797a7ef
     Pseudo is Norm-conserving + core correction, Zval =  4.0
     Generated using ONCVPSP code by D. R. Hamann
     Using radial grid of 1510 points,  6 beta functions with: 
                l(1) =   0
                l(2) =   0
                l(3) =   1
                l(4) =   1
                l(5) =   2
                l(6) =   2

     PseudoPot. # 2 for O  read from file:
     /n/holyscratch01/kozinsky_lab/sfalletta/QE/Inputs/O.upf
     MD5 check sum: e161f86cb4953fdc9aae83e76c3f29b8
     Pseudo is Norm-conserving + core correction, Zval =  6.0
     Generated using ONCVPSP code by D. R. Hamann
     Using radial grid of  936 points,  5 beta functions with: 
                l(1) =   0
                l(2) =   0
                l(3) =   1
                l(4) =   1
                l(5) =   2

     atomic species   valence    mass     pseudopotential
        Si             4.00    28.08550     Si( 1.00)
        O              6.00    15.99900     O ( 1.00)

     No symmetry found



   Cartesian axes

     site n.     atom                  positions (alat units)
         1           Si  tau(   1) = (   0.8841790   0.2115197   0.4435277  )
         2           Si  tau(   2) = (   0.1360088   0.2222864   0.2853458  )
         3           Si  tau(   3) = (   0.2218812   0.8562469   0.0885200  )
         4           O   tau(   4) = (   0.9308211   0.2918639   0.0348738  )
         5           O   tau(   5) = (   0.0934266   0.3688612   0.2281015  )
         6           O   tau(   6) = (   0.0148497   0.1768197   0.3646007  )
         7           O   tau(   7) = (   0.1600976   0.1287525   0.1607726  )
         8           O   tau(   8) = (   0.2613913   0.2713476   0.3654823  )
         9           O   tau(   9) = (   0.3460472   0.0856930   0.5255348  )
        10           Si  tau(  10) = (   0.9033985   0.1907196   1.0162873  )
        11           Si  tau(  11) = (   0.1391701   0.2040026   0.8311631  )
        12           Si  tau(  12) = (   0.2573525   0.0056010   0.6344760  )
        13           O   tau(  13) = (   0.8968923   0.3366024   0.5409982  )
        14           O   tau(  14) = (   0.0687931   0.3117724   0.7281955  )
        15           O   tau(  15) = (   0.0248331   0.1502667   0.9275846  )
        16           O   tau(  16) = (   0.2235411   0.0567707   0.7785986  )
        17           O   tau(  17) = (   0.2659196   0.2933944   0.9161881  )
        18           O   tau(  18) = (   0.3170369   0.0743158   1.0630748  )
        19           Si  tau(  19) = (   0.8516604   0.6618735   0.2663579  )
        20           Si  tau(  20) = (   0.9944742   0.4227857   0.1061941  )
        21           O   tau(  21) = (   0.8018931   0.8022963   0.2069142  )
        22           O   tau(  22) = (   0.8974831   0.5383926   0.1567598  )
        23           O   tau(  23) = (   0.9984479   0.6938415   0.3716775  )
        24           O   tau(  24) = (   0.0809499   0.5007940   0.5494781  )
        25           Si  tau(  25) = (   0.8676133   0.6384507   0.8159685  )
        26           Si  tau(  26) = (   0.9867545   0.4246502   0.6473157  )
        27           O   tau(  27) = (   0.8422788   0.7775415   0.7234786  )
        28           O   tau(  28) = (   0.8983566   0.5249089   0.7197837  )
        29           O   tau(  29) = (   0.9673003   0.6471272   0.9456075  )
        30           O   tau(  30) = (   0.1061179   0.5000669   0.0050833  )
        31           Si  tau(  31) = (   0.3868902   0.2164432   0.4376344  )
        32           Si  tau(  32) = (   0.6446328   0.2189024   0.2674592  )
        33           Si  tau(  33) = (   0.7507768   0.0033077   0.0745000  )
        34           O   tau(  34) = (   0.4104405   0.3475095   0.0298776  )
        35           O   tau(  35) = (   0.5991050   0.3664401   0.2028683  )
        36           O   tau(  36) = (   0.5042362   0.1512355   0.3470391  )
        37           O   tau(  37) = (   0.6660508   0.1183098   0.1433965  )
        38           O   tau(  38) = (   0.7709451   0.2378180   0.3459700  )
        39           O   tau(  39) = (   0.8411716   0.0795476   0.5353827  )
        40           Si  tau(  40) = (   0.3798325   0.2447875   1.0137699  )
        41           Si  tau(  41) = (   0.6482425   0.2420906   0.8386110  )
        42           Si  tau(  42) = (   0.7591926   0.0106095   0.6424946  )
        43           O   tau(  43) = (   0.4187709   0.3316438   0.5574546  )
        44           O   tau(  44) = (   0.6234416   0.3501984   0.7148833  )
        45           O   tau(  45) = (   0.5139708   0.2139188   0.9194135  )
        46           O   tau(  46) = (   0.6861168   0.0989839   0.7499133  )
        47           O   tau(  47) = (   0.7973337   0.2544539   0.9277761  )
        48           O   tau(  48) = (   0.8519542   0.0540641   1.0663444  )
        49           Si  tau(  49) = (   0.1073626   0.6483458   0.4707929  )
        50           Si  tau(  50) = (   0.3514049   0.6648743   0.2817111  )
        51           Si  tau(  51) = (   0.5190647   0.4416472   0.1005606  )
        52           O   tau(  52) = (   0.1203748   0.7609367   0.0117073  )
        53           O   tau(  53) = (   0.2862986   0.7814600   0.1969449  )
        54           O   tau(  54) = (   0.2476810   0.6222691   0.3946360  )
        55           O   tau(  55) = (   0.4304463   0.5683416   0.1718782  )
        56           O   tau(  56) = (   0.4862312   0.6985644   0.3702934  )
        57           O   tau(  57) = (   0.5687648   0.5330479   0.5371780  )
        58           Si  tau(  58) = (   0.1019757   0.6316106   1.0197174  )
        59           Si  tau(  59) = (   0.3706355   0.6428677   0.8062178  )
        60           Si  tau(  60) = (   0.5203816   0.4265157   0.6439699  )
        61           O   tau(  61) = (   0.1274837   0.7858289   0.5587173  )
        62           O   tau(  62) = (   0.3606692   0.7487659   0.6915106  )
        63           O   tau(  63) = (   0.2350760   0.5985564   0.9173585  )
        64           O   tau(  64) = (   0.4236122   0.5054708   0.7534116  )
        65           O   tau(  65) = (   0.4768336   0.6816356   0.9158240  )
        66           O   tau(  66) = (   0.5951865   0.5237415   1.0898234  )
        67           Si  tau(  67) = (   0.6196885   0.6595226   0.4531891  )
        68           O   tau(  68) = (   0.6371378   0.7782235   0.0078980  )
        69           O   tau(  69) = (   0.7360536   0.6221939   0.3603382  )
        70           Si  tau(  70) = (   0.6084956   0.6623429   1.0006945  )
        71           O   tau(  71) = (   0.6469426   0.7727234   0.5580674  )
        72           O   tau(  72) = (   0.7217676   0.6221518   0.8881807  )

     number of k points=     8
                       cart. coord. in units 2pi/alat
        k(    1) = (   0.0000000   0.0000000   0.0000000), wk =   0.2500000
        k(    2) = (   0.0000000   0.0000000   0.4549855), wk =   0.2500000
        k(    3) = (   0.0000000   0.5773503   0.0000000), wk =   0.2500000
        k(    4) = (   0.0000000   0.5773503   0.4549855), wk =   0.2500000
        k(    5) = (   0.5000000   0.0000000   0.0000000), wk =   0.2500000
        k(    6) = (   0.5000000   0.0000000   0.4549855), wk =   0.2500000
        k(    7) = (   0.5000000   0.5773503   0.0000000), wk =   0.2500000
        k(    8) = (   0.5000000   0.5773503   0.4549855), wk =   0.2500000

     Dense  grid:  2432309 G-vectors     FFT dimensions: ( 180, 150, 192)

     Smooth grid:   859779 G-vectors     FFT dimensions: ( 120, 108, 135)

     Estimated max dynamical RAM per process >      78.77 MB

     Estimated total dynamical RAM >       8.62 GB

     Initial potential from superposition of free atoms

     starting charge     383.9851, renormalised to     384.0000
     Starting wfcs are  288 randomized atomic wfcs

     total cpu time spent up to now is        6.6 secs

     Self-consistent Calculation

     iteration #  1     ecut=   100.00 Ry     beta= 0.70
     Davidson diagonalization with overlap
     ethr =  1.00E-02,  avg # of iterations =  3.0

     Expectation value of exp(iGx):   (7.28903472896427485E-002,2.89978498956102865E-002)   1.0000000000000000     
     Electronic Dipole per cell (Ry a.u.)   3.2114701593519497     
     Ionic Dipole per cell (Ry a.u.)   5220.7307615604614     

     Expectation value of exp(iGx):   (1.26754489299521975E-002,3.06168975251457400E-002)  0.86602540378443849     
     Electronic Dipole per cell (Ry a.u.)   8.6549380031568450     
     Ionic Dipole per cell (Ry a.u.)   4333.8671907424050     

     Expectation value of exp(iGx):       (0.12000636368584276,-3.94553011726642752E-003)   1.0989361747729789     
     Electronic Dipole per cell (Ry a.u.) -0.30633927936383964     
     Ionic Dipole per cell (Ry a.u.)   5446.6758445586356     
Electronic Dipole on Cartesian axes
           1   3.2114701593519497     
           2   8.6549380031568450     
           3 -0.30633927936383964     
Ionic Dipole on Cartesian axes
           1   5220.7307615604614     
           2   4333.8671907424050     
           3   5446.6758445586356     

     total cpu time spent up to now is     1371.8 secs

     total energy              =   -1789.12557445 Ry
     estimated scf accuracy    <      19.87196327 Ry

     iteration #  2     ecut=   100.00 Ry     beta= 0.70
     Davidson diagonalization with overlap
     ethr =  5.17E-03,  avg # of iterations =  8.9

     Expectation value of exp(iGx):   (2.27525244401233957E-002,9.31355919186936491E-003)   1.0000000000000000     
     Electronic Dipole per cell (Ry a.u.)   3.2954455539412635     
     Ionic Dipole per cell (Ry a.u.)   5220.7307615604614     

     Expectation value of exp(iGx):   (4.00256091614440822E-003,5.77470113351291961E-003)  0.86602540378443849     
     Electronic Dipole per cell (Ry a.u.)   7.0861392901158347     
     Ionic Dipole per cell (Ry a.u.)   4333.8671907424050     

     Expectation value of exp(iGx):  (4.54113305119370272E-002,-2.90189721799379648E-004)   1.0989361747729789     
     Electronic Dipole per cell (Ry a.u.)  -5.9562085708957345E-002
     Ionic Dipole per cell (Ry a.u.)   5446.6758445586356     
Electronic Dipole on Cartesian axes
           1   3.2954455539412635     
           2   7.0861392901158347     
           3  -5.9562085708957345E-002
Ionic Dipole on Cartesian axes
           1   5220.7307615604614     
           2   4333.8671907424050     
           3   5446.6758445586356     

     total cpu time spent up to now is     2731.5 secs

     total energy              =   -1795.21606977 Ry
     estimated scf accuracy    <      11.65971083 Ry

     iteration #  3     ecut=   100.00 Ry     beta= 0.70
     Davidson diagonalization with overlap
     ethr =  3.04E-03,  avg # of iterations =  2.4

     Expectation value of exp(iGx):   (3.95464647813686884E-002,1.41827378211737808E-002)   1.0000000000000000     
     Electronic Dipole per cell (Ry a.u.)   2.9206611615211435     
     Ionic Dipole per cell (Ry a.u.)   5220.7307615604614     

     Expectation value of exp(iGx):   (6.17070854132809737E-003,1.29189151093085843E-002)  0.86602540378443849     
     Electronic Dipole per cell (Ry a.u.)   8.2649752233892535     
     Ionic Dipole per cell (Ry a.u.)   4333.8671907424050     

     Expectation value of exp(iGx):  (7.09747526785012711E-002,-3.09117728184730035E-003)   1.0989361747729789     
     Electronic Dipole per cell (Ry a.u.) -0.40569873912452920     
     Ionic Dipole per cell (Ry a.u.)   5446.6758445586356     
Electronic Dipole on Cartesian axes
           1   2.9206611615211435     
           2   8.2649752233892535     
           3 -0.40569873912452920     
Ionic Dipole on Cartesian axes
           1   5220.7307615604614     
           2   4333.8671907424050     
           3   5446.6758445586356     

     total cpu time spent up to now is     4079.9 secs

     total energy              =   -1797.16928046 Ry
     estimated scf accuracy    <       0.19937581 Ry

     iteration #  4     ecut=   100.00 Ry     beta= 0.70
     Davidson diagonalization with overlap
     ethr =  5.19E-05,  avg # of iterations = 14.4

     Expectation value of exp(iGx):   (4.15573894336825761E-002,1.66270315686104890E-002)   1.0000000000000000     
     Electronic Dipole per cell (Ry a.u.)   3.2280775932356196     
     Ionic Dipole per cell (Ry a.u.)   5220.7307615604614     

     Expectation value of exp(iGx):   (7.54794484470562577E-003,1.36566231936147142E-002)  0.86602540378443849     
     Electronic Dipole per cell (Ry a.u.)   7.8293757841124014     
     Ionic Dipole per cell (Ry a.u.)   4333.8671907424050     

     Expectation value of exp(iGx):  (7.50982402198968474E-002,-1.95014664366688958E-003)   1.0989361747729789     
     Electronic Dipole per cell (Ry a.u.) -0.24199028291440702     
     Ionic Dipole per cell (Ry a.u.)   5446.6758445586356     
Electronic Dipole on Cartesian axes
           1   3.2280775932356196     
           2   7.8293757841124014     
           3 -0.24199028291440702     
Ionic Dipole on Cartesian axes
           1   5220.7307615604614     
           2   4333.8671907424050     
           3   5446.6758445586356     

     total cpu time spent up to now is     5420.5 secs

     total energy              =   -1797.26296217 Ry
     estimated scf accuracy    <       0.09335135 Ry

     iteration #  5     ecut=   100.00 Ry     beta= 0.70
     Davidson diagonalization with overlap
     ethr =  2.43E-05,  avg # of iterations = 12.0

     Expectation value of exp(iGx):   (4.19856409408255193E-002,1.61007050972374402E-002)   1.0000000000000000     
     Electronic Dipole per cell (Ry a.u.)   3.1058939976435598     
     Ionic Dipole per cell (Ry a.u.)   5220.7307615604614     

     Expectation value of exp(iGx):   (7.00657115917255931E-003,1.40421402927202073E-002)  0.86602540378443849     
     Electronic Dipole per cell (Ry a.u.)   8.1385336962796408     
     Ionic Dipole per cell (Ry a.u.)   4333.8671907424050     

     Expectation value of exp(iGx):  (7.53116028141534444E-002,-2.43271531984766507E-003)   1.0989361747729789     
     Electronic Dipole per cell (Ry a.u.) -0.30097916042830913     
     Ionic Dipole per cell (Ry a.u.)   5446.6758445586356     
Electronic Dipole on Cartesian axes
           1   3.1058939976435598     
           2   8.1385336962796408     
           3 -0.30097916042830913     
Ionic Dipole on Cartesian axes
           1   5220.7307615604614     
           2   4333.8671907424050     
           3   5446.6758445586356     

     total cpu time spent up to now is     6775.0 secs

     total energy              =   -1797.27066911 Ry
     estimated scf accuracy    <       0.02299870 Ry

     iteration #  6     ecut=   100.00 Ry     beta= 0.70
     Davidson diagonalization with overlap
     ethr =  5.99E-06,  avg # of iterations =  6.4

     Expectation value of exp(iGx):   (4.16199355877894875E-002,1.59937146649798620E-002)   1.0000000000000000     
     Electronic Dipole per cell (Ry a.u.)   3.1117998641119606     
     Ionic Dipole per cell (Ry a.u.)   5220.7307615604614     

     Expectation value of exp(iGx):   (7.09489585375603325E-003,1.37909892211293579E-002)  0.86602540378443849     
     Electronic Dipole per cell (Ry a.u.)   8.0479912600293382     
     Ionic Dipole per cell (Ry a.u.)   4333.8671907424050     

     Expectation value of exp(iGx):  (7.47628378476651173E-002,-2.40103111622340989E-003)   1.0989361747729789     
     Electronic Dipole per cell (Ry a.u.) -0.29924077903059060     
     Ionic Dipole per cell (Ry a.u.)   5446.6758445586356     
Electronic Dipole on Cartesian axes
           1   3.1117998641119606     
           2   8.0479912600293382     
           3 -0.29924077903059060     
Ionic Dipole on Cartesian axes
           1   5220.7307615604614     
           2   4333.8671907424050     
           3   5446.6758445586356     

     total cpu time spent up to now is     8117.8 secs

     total energy              =   -1797.27049212 Ry
     estimated scf accuracy    <       0.00530662 Ry

     iteration #  7     ecut=   100.00 Ry     beta= 0.70
     Davidson diagonalization with overlap
     ethr =  1.38E-06,  avg # of iterations =  8.6

     Expectation value of exp(iGx):   (4.13077170609733868E-002,1.58352775331462234E-002)   1.0000000000000000     
     Electronic Dipole per cell (Ry a.u.)   3.1049172080962752     
     Ionic Dipole per cell (Ry a.u.)   5220.7307615604614     

     Expectation value of exp(iGx):   (6.99480748453933793E-003,1.36614058460846604E-002)  0.86602540378443849     
     Electronic Dipole per cell (Ry a.u.)   8.0622152818567479     
     Ionic Dipole per cell (Ry a.u.)   4333.8671907424050     

     Expectation value of exp(iGx):  (7.42692655961452869E-002,-2.34961009190540930E-003)   1.0989361747729789     
     Electronic Dipole per cell (Ry a.u.) -0.29478124713212522     
     Ionic Dipole per cell (Ry a.u.)   5446.6758445586356     
Electronic Dipole on Cartesian axes
           1   3.1049172080962752     
           2   8.0622152818567479     
           3 -0.29478124713212522     
Ionic Dipole on Cartesian axes
           1   5220.7307615604614     
           2   4333.8671907424050     
           3   5446.6758445586356     

     total cpu time spent up to now is     9470.8 secs

     total energy              =   -1797.27120480 Ry
     estimated scf accuracy    <       0.00035010 Ry

     iteration #  8     ecut=   100.00 Ry     beta= 0.70
     Davidson diagonalization with overlap
     c_bands:  1 eigenvalues not converged
     ethr =  9.12E-08,  avg # of iterations = 15.6

     Expectation value of exp(iGx):   (4.11883407347741273E-002,1.57971290253673541E-002)   1.0000000000000000     
     Electronic Dipole per cell (Ry a.u.)   3.1062842052629844     
     Ionic Dipole per cell (Ry a.u.)   5220.7307615604614     

     Expectation value of exp(iGx):   (6.99445742188297467E-003,1.35937038577768170E-002)  0.86602540378443849     
     Electronic Dipole per cell (Ry a.u.)   8.0475397527112165     
     Ionic Dipole per cell (Ry a.u.)   4333.8671907424050     

     Expectation value of exp(iGx):  (7.40886776897431432E-002,-2.36520814354478472E-003)   1.0989361747729789     
     Electronic Dipole per cell (Ry a.u.) -0.29745964822803200     
     Ionic Dipole per cell (Ry a.u.)   5446.6758445586356     
Electronic Dipole on Cartesian axes
           1   3.1062842052629844     
           2   8.0475397527112165     
           3 -0.29745964822803200     
Ionic Dipole on Cartesian axes
           1   5220.7307615604614     
           2   4333.8671907424050     
           3   5446.6758445586356     

     total cpu time spent up to now is    10806.0 secs

     total energy              =   -1797.27133219 Ry
     estimated scf accuracy    <       0.00003562 Ry

     iteration #  9     ecut=   100.00 Ry     beta= 0.70
     Davidson diagonalization with overlap
     ethr =  9.28E-09,  avg # of iterations =  9.0

     Expectation value of exp(iGx):   (4.12038663615087175E-002,1.57974355349398202E-002)   1.0000000000000000     
     Electronic Dipole per cell (Ry a.u.)   3.1052705998867882     
     Ionic Dipole per cell (Ry a.u.)   5220.7307615604614     

     Expectation value of exp(iGx):   (6.99271306198107762E-003,1.36033407349260838E-002)  0.86602540378443849     
     Electronic Dipole per cell (Ry a.u.)   8.0504020548892026     
     Ionic Dipole per cell (Ry a.u.)   4333.8671907424050     

     Expectation value of exp(iGx):  (7.41107915662319316E-002,-2.35751754840659742E-003)   1.0989361747729789     
     Electronic Dipole per cell (Ry a.u.) -0.29640468558815242     
     Ionic Dipole per cell (Ry a.u.)   5446.6758445586356     
Electronic Dipole on Cartesian axes
           1   3.1052705998867882     
           2   8.0504020548892026     
           3 -0.29640468558815242     
Ionic Dipole on Cartesian axes
           1   5220.7307615604614     
           2   4333.8671907424050     
           3   5446.6758445586356     

     total cpu time spent up to now is    12164.6 secs

     total energy              =   -1797.27133751 Ry
     estimated scf accuracy    <       0.00000466 Ry

     iteration # 10     ecut=   100.00 Ry     beta= 0.70
     Davidson diagonalization with overlap
     ethr =  1.21E-09,  avg # of iterations = 14.0

     Expectation value of exp(iGx):   (4.12104386113885043E-002,1.58006659227149203E-002)   1.0000000000000000     
     Electronic Dipole per cell (Ry a.u.)   3.1053981100150221     
     Ionic Dipole per cell (Ry a.u.)   5220.7307615604614     

     Expectation value of exp(iGx):   (6.99156661288754307E-003,1.36073710362104063E-002)  0.86602540378443849     
     Electronic Dipole per cell (Ry a.u.)   8.0517763086069394     
     Ionic Dipole per cell (Ry a.u.)   4333.8671907424050     

     Expectation value of exp(iGx):  (7.41202760390863857E-002,-2.36114320137299641E-003)   1.0989361747729789     
     Electronic Dipole per cell (Ry a.u.) -0.29682226103046327     
     Ionic Dipole per cell (Ry a.u.)   5446.6758445586356     
Electronic Dipole on Cartesian axes
           1   3.1053981100150221     
           2   8.0517763086069394     
           3 -0.29682226103046327     
Ionic Dipole on Cartesian axes
           1   5220.7307615604614     
           2   4333.8671907424050     
           3   5446.6758445586356     

     total cpu time spent up to now is    13516.5 secs

     total energy              =   -1797.27133810 Ry
     estimated scf accuracy    <       0.00000066 Ry

     iteration # 11     ecut=   100.00 Ry     beta= 0.70
     Davidson diagonalization with overlap
     c_bands:  1 eigenvalues not converged
     ethr =  1.73E-10,  avg # of iterations = 10.5

     Expectation value of exp(iGx):   (4.12153110866391448E-002,1.58026856322947343E-002)   1.0000000000000000     
     Electronic Dipole per cell (Ry a.u.)   3.1054252975208421     
     Ionic Dipole per cell (Ry a.u.)   5220.7307615604614     

     Expectation value of exp(iGx):   (6.99311410850366171E-003,1.36093767473172388E-002)  0.86602540378443849     
     Electronic Dipole per cell (Ry a.u.)   8.0515555739400835     
     Ionic Dipole per cell (Ry a.u.)   4333.8671907424050     

     Expectation value of exp(iGx):  (7.41277175661734372E-002,-2.36131527682876836E-003)   1.0989361747729789     
     Electronic Dipole per cell (Ry a.u.) -0.29681409883167376     
     Ionic Dipole per cell (Ry a.u.)   5446.6758445586356     
Electronic Dipole on Cartesian axes
           1   3.1054252975208421     
           2   8.0515555739400835     
           3 -0.29681409883167376     
Ionic Dipole on Cartesian axes
           1   5220.7307615604614     
           2   4333.8671907424050     
           3   5446.6758445586356     

     total cpu time spent up to now is    14872.7 secs

     total energy              =   -1797.27133829 Ry
     estimated scf accuracy    <       0.00000005 Ry

     iteration # 12     ecut=   100.00 Ry     beta= 0.70
     Davidson diagonalization with overlap
     c_bands:  1 eigenvalues not converged
     c_bands:  1 eigenvalues not converged
     c_bands:  1 eigenvalues not converged
     c_bands:  1 eigenvalues not converged
     ethr =  1.23E-11,  avg # of iterations = 19.5

     Expectation value of exp(iGx):   (4.12160040678137829E-002,1.58028352960885576E-002)   1.0000000000000000     
     Electronic Dipole per cell (Ry a.u.)   3.1054044789119049     
     Ionic Dipole per cell (Ry a.u.)   5220.7307615604614     

     Expectation value of exp(iGx):   (6.99309148134962151E-003,1.36097660877623344E-002)  0.86602540378443849     
     Electronic Dipole per cell (Ry a.u.)   8.0516506574604509     
     Ionic Dipole per cell (Ry a.u.)   4333.8671907424050     

     Expectation value of exp(iGx):  (7.41288040778476237E-002,-2.36095152993551780E-003)   1.0989361747729789     
     Electronic Dipole per cell (Ry a.u.) -0.29676406042228887     
     Ionic Dipole per cell (Ry a.u.)   5446.6758445586356     
Electronic Dipole on Cartesian axes
           1   3.1054044789119049     
           2   8.0516506574604509     
           3 -0.29676406042228887     
Ionic Dipole on Cartesian axes
           1   5220.7307615604614     
           2   4333.8671907424050     
           3   5446.6758445586356     

     total cpu time spent up to now is    16205.2 secs

     total energy              =   -1797.27133829 Ry
     estimated scf accuracy    <       0.00000002 Ry

     iteration # 13     ecut=   100.00 Ry     beta= 0.70
     Davidson diagonalization with overlap
     ethr =  4.98E-12,  avg # of iterations =  5.8

     Expectation value of exp(iGx):   (4.12155715344406579E-002,1.58026604455320553E-002)   1.0000000000000000     
     Electronic Dipole per cell (Ry a.u.)   3.1054028622483378     
     Ionic Dipole per cell (Ry a.u.)   5220.7307615604614     

     Expectation value of exp(iGx):   (6.99304857031304763E-003,1.36095402590753183E-002)  0.86602540378443849     
     Electronic Dipole per cell (Ry a.u.)   8.0516194332678825     
     Ionic Dipole per cell (Ry a.u.)   4333.8671907424050     

     Expectation value of exp(iGx):  (7.41281313024525212E-002,-2.36107537151968375E-003)   1.0989361747729789     
     Electronic Dipole per cell (Ry a.u.) -0.29678230810063255     
     Ionic Dipole per cell (Ry a.u.)   5446.6758445586356     
Electronic Dipole on Cartesian axes
           1   3.1054028622483378     
           2   8.0516194332678825     
           3 -0.29678230810063255     
Ionic Dipole on Cartesian axes
           1   5220.7307615604614     
           2   4333.8671907424050     
           3   5446.6758445586356     

     total cpu time spent up to now is    17553.0 secs

     End of self-consistent calculation

          k = 0.0000 0.0000 0.0000 (107453 PWs)   bands (ev):

   -17.9840 -17.7252 -17.6495 -17.2941 -17.1771 -17.0419 -17.0115 -16.8722
   -16.7855 -16.6624 -16.5565 -16.4687 -16.3932 -16.2408 -16.2259 -16.1512
   -16.1155 -16.0755 -15.8980 -15.8557 -15.7864 -15.6885 -15.6308 -15.5783
   -15.5249 -15.4606 -15.3987 -15.3124 -15.2084 -15.1766 -15.0985 -15.0728
   -15.0494 -14.9913 -14.9291 -14.8710 -14.7960 -14.6273 -14.5847 -14.5087
   -14.4909 -14.3730 -14.2312 -14.2107 -14.0609 -13.6138 -13.1825 -12.9794
    -7.6817  -7.0201  -6.9080  -6.5641  -6.5192  -6.2948  -6.2238  -6.1220
    -5.9596  -5.5913  -5.4212  -5.3272  -5.2525  -5.0983  -5.0890  -4.6492
    -4.6262  -4.4664  -4.3758  -4.1911  -4.0905  -3.9723  -3.9611  -3.8695
    -3.7887  -3.6603  -3.6040  -3.4573  -3.4455  -3.3782  -3.3057  -3.2109
    -3.1679  -3.0954  -3.0740  -2.9993  -2.8918  -2.8199  -2.7038  -2.5940
    -2.5573  -2.4952  -2.3862  -2.2749  -2.1750  -2.0154  -1.9073  -1.7471
    -1.6944  -1.5356  -1.4670  -1.3983  -1.3864  -1.2717  -1.2020  -1.1574
    -1.1543  -1.0707  -1.0268  -1.0062  -0.9111  -0.8905  -0.8465  -0.8192
    -0.7765  -0.7332  -0.7092  -0.6539  -0.6334  -0.5274  -0.4852  -0.3920
    -0.3672  -0.3254  -0.2542  -0.2112  -0.1589  -0.1475  -0.0377  -0.0248
     0.0084   0.0265   0.0518   0.1013   0.1138   0.1691   0.2301   0.2406
     0.2518   0.2887   0.3390   0.3560   0.4276   0.4662   0.4757   0.5584
     0.5793   0.6162   0.6550   0.6751   0.7308   0.7595   0.8310   0.8510
     0.8896   0.9631   0.9735   1.0075   1.0304   1.0858   1.1272   1.1814
     1.1980   1.2298   1.2914   1.3399   1.3652   1.4365   1.4812   1.5105
     1.5735   1.6023   1.6284   1.6874   1.7086   1.7856   1.8211   1.8698
     1.9469   2.0205   2.0682   2.0843   2.1256   2.1693   2.2659   2.3182
     2.4640   2.6157   2.7648   2.8003   2.9026   2.9875   3.0345   3.1595
     7.4912   8.6186   8.8431   9.1667   9.5576   9.6513   9.6952  10.1123
    10.1950  10.2628  10.4388  10.4608  10.5692  10.6483  10.7455  10.7992
    10.8022  10.9041  10.9661  11.0115  11.0541  11.1615  11.1949  11.3527
    11.4373  11.5059  11.5510  11.6073

          k = 0.0000 0.0000 0.4550 (107410 PWs)   bands (ev):

   -17.9758 -17.7532 -17.6310 -17.3025 -17.1819 -17.0405 -16.9761 -16.8769
   -16.8137 -16.6327 -16.5664 -16.4787 -16.3527 -16.2481 -16.2234 -16.1632
   -16.1453 -16.0884 -15.9476 -15.8214 -15.7639 -15.6861 -15.6225 -15.5757
   -15.4967 -15.4812 -15.4224 -15.2686 -15.2310 -15.1959 -15.0973 -15.0548
   -15.0211 -14.9802 -14.9475 -14.8935 -14.7983 -14.6379 -14.5897 -14.5094
   -14.4829 -14.3675 -14.2280 -14.2118 -14.0590 -13.6171 -13.1829 -12.9795
    -7.5360  -7.2821  -6.8192  -6.7285  -6.4808  -6.3431  -6.1506  -5.9637
    -5.8974  -5.5680  -5.5112  -5.2893  -5.2142  -5.0431  -5.0036  -4.9192
    -4.6260  -4.5296  -4.2873  -4.1988  -4.1010  -4.0778  -3.9846  -3.8730
    -3.7079  -3.6232  -3.5436  -3.4831  -3.4454  -3.3598  -3.3231  -3.1822
    -3.1658  -3.1357  -3.0640  -2.9666  -2.9104  -2.7938  -2.6638  -2.6499
    -2.5992  -2.4749  -2.4167  -2.2274  -2.1573  -2.0346  -1.9031  -1.7591
    -1.6550  -1.6081  -1.4883  -1.4003  -1.3840  -1.2813  -1.2162  -1.1685
    -1.1122  -1.0447  -1.0032  -0.9866  -0.9556  -0.9135  -0.8751  -0.8260
    -0.8218  -0.7352  -0.7105  -0.6154  -0.5554  -0.5332  -0.4754  -0.4160
    -0.3927  -0.3142  -0.2991  -0.1907  -0.1281  -0.1015  -0.0520   0.0051
     0.0154   0.0356   0.0697   0.0830   0.1540   0.1662   0.1992   0.2540
     0.3017   0.3363   0.3756   0.3942   0.4098   0.4364   0.4597   0.5197
     0.5498   0.6203   0.6454   0.6799   0.6997   0.7159   0.7904   0.8563
     0.8766   0.9278   0.9447   0.9981   1.0557   1.1220   1.1323   1.1666
     1.2244   1.2790   1.3074   1.3248   1.3731   1.4191   1.4601   1.5020
     1.5256   1.5710   1.6553   1.6606   1.7289   1.7816   1.8251   1.8598
     1.9359   1.9917   2.0888   2.0927   2.1854   2.2003   2.2494   2.3743
     2.4555   2.5874   2.7523   2.8126   2.8934   2.9828   3.0282   3.1577
     7.8796   8.0568   8.8346   9.1944   9.5574   9.6568   9.7553  10.1551
    10.2680  10.3269  10.3951  10.4174  10.5070  10.6436  10.7221  10.7499
    10.8235  10.8852  10.9433  11.0243  11.1002  11.1672  11.2279  11.2512
    11.4341  11.4694  11.4987  11.6392

          k = 0.0000 0.5774 0.0000 (107384 PWs)   bands (ev):

   -17.9719 -17.7294 -17.6394 -17.3476 -17.1631 -17.0251 -16.9931 -16.8683
   -16.8318 -16.6761 -16.5650 -16.4333 -16.3480 -16.3012 -16.2095 -16.1637
   -16.1300 -16.0290 -15.8846 -15.8736 -15.7938 -15.6624 -15.6316 -15.5701
   -15.4949 -15.4909 -15.4123 -15.2866 -15.2585 -15.1996 -15.1401 -15.0299
   -14.9967 -14.9699 -14.8999 -14.8828 -14.8211 -14.6354 -14.5636 -14.5233
   -14.4944 -14.3831 -14.2428 -14.2216 -14.0621 -13.6152 -13.1809 -12.9811
    -7.4846  -7.1106  -6.8921  -6.8251  -6.4663  -6.3202  -6.1581  -5.9934
    -5.8962  -5.8201  -5.5273  -5.3969  -5.1964  -5.0869  -4.8911  -4.8125
    -4.5050  -4.4547  -4.3723  -4.2369  -4.0747  -4.0104  -3.8877  -3.7911
    -3.7541  -3.6459  -3.6277  -3.5232  -3.3786  -3.3712  -3.2875  -3.2455
    -3.1416  -3.1198  -3.0428  -2.9450  -2.9385  -2.8228  -2.7212  -2.6486
    -2.5394  -2.4639  -2.4323  -2.3060  -2.1698  -2.0159  -1.8681  -1.7808
    -1.6859  -1.5328  -1.4691  -1.4274  -1.4092  -1.3359  -1.1789  -1.1504
    -1.1372  -1.0777  -1.0400  -1.0114  -0.9581  -0.8830  -0.8565  -0.8109
    -0.7520  -0.7117  -0.6607  -0.5886  -0.5652  -0.5495  -0.4523  -0.4277
    -0.3593  -0.3463  -0.3052  -0.2508  -0.1761  -0.1426  -0.1045  -0.0676
     0.0139   0.0426   0.0611   0.1122   0.1322   0.1549   0.1965   0.2785
     0.3162   0.3237   0.3762   0.3824   0.4378   0.4572   0.4885   0.5324
     0.5600   0.5660   0.6434   0.6957   0.7154   0.7823   0.7990   0.8247
     0.8812   0.9491   0.9679   1.0006   1.0635   1.0974   1.1430   1.1598
     1.2289   1.2603   1.3113   1.3277   1.3497   1.4126   1.4646   1.5168
     1.5370   1.5841   1.6054   1.6703   1.7689   1.7951   1.8394   1.8519
     1.9330   1.9836   2.0443   2.0607   2.1817   2.2176   2.3035   2.3143
     2.4858   2.5866   2.7881   2.8097   2.8965   2.9582   3.0267   3.1586
     8.0198   8.4005   8.7453   9.1518   9.4026   9.5104   9.7402   9.9419
    10.1142  10.3044  10.3790  10.4849  10.5557  10.6233  10.7471  10.8016
    10.8818  10.9060  10.9928  11.1139  11.1396  11.1883  11.2259  11.2740
    11.3898  11.4994  11.5485  11.6110

          k = 0.0000 0.5774 0.4550 (107468 PWs)   bands (ev):

   -17.9683 -17.7351 -17.6398 -17.3437 -17.1624 -17.0508 -16.9985 -16.8703
   -16.8010 -16.6511 -16.5457 -16.4628 -16.3359 -16.2533 -16.2451 -16.1938
   -16.1676 -16.0289 -15.9402 -15.8083 -15.7793 -15.6666 -15.6251 -15.5712
   -15.5103 -15.4698 -15.3721 -15.3160 -15.2786 -15.1986 -15.1051 -15.0474
   -14.9983 -14.9763 -14.9049 -14.8919 -14.8114 -14.6354 -14.5749 -14.5184
   -14.4927 -14.3792 -14.2472 -14.2150 -14.0601 -13.6177 -13.1809 -12.9811
    -7.4359  -7.1103  -6.9464  -6.8405  -6.4983  -6.4116  -6.1579  -6.0391
    -5.7972  -5.6407  -5.4863  -5.2357  -5.1877  -5.0789  -5.0406  -5.0137
    -4.6146  -4.4547  -4.3113  -4.1402  -4.0503  -4.0266  -3.9755  -3.8565
    -3.7509  -3.6402  -3.5133  -3.4708  -3.3840  -3.3137  -3.2801  -3.2428
    -3.2314  -3.1378  -3.0674  -2.9829  -2.8915  -2.7736  -2.6881  -2.6765
    -2.5561  -2.5222  -2.4543  -2.1649  -2.1351  -2.0565  -1.9329  -1.8116
    -1.6032  -1.5653  -1.4781  -1.4530  -1.4134  -1.3072  -1.2251  -1.1682
    -1.1376  -1.0804  -1.0407  -0.9894  -0.9333  -0.8947  -0.8173  -0.7643
    -0.7350  -0.7103  -0.6897  -0.6414  -0.5814  -0.5344  -0.5076  -0.4625
    -0.3618  -0.2689  -0.2666  -0.2377  -0.1828  -0.1617  -0.0837  -0.0466
    -0.0220   0.0165   0.0539   0.1265   0.1348   0.1888   0.2242   0.2788
     0.2916   0.3426   0.3710   0.3971   0.4412   0.4634   0.4743   0.5187
     0.5630   0.5772   0.6144   0.6562   0.7008   0.7644   0.8249   0.8492
     0.8818   0.9158   0.9687   0.9968   1.0350   1.0908   1.1195   1.1810
     1.2260   1.2501   1.3206   1.3297   1.3810   1.4253   1.4932   1.5029
     1.5601   1.5831   1.6236   1.6459   1.7349   1.7878   1.8463   1.8669
     1.9302   1.9623   2.0447   2.1220   2.1687   2.2245   2.2615   2.3475
     2.4976   2.5541   2.8024   2.8245   2.8686   2.9510   3.0260   3.1694
     8.1781   8.5662   8.6477   8.9119   9.0333   9.6819   9.8331  10.0193
    10.1027  10.3072  10.3694  10.4188  10.5585  10.6382  10.6793  10.7432
    10.8568  10.8768  10.9820  11.1034  11.1755  11.1989  11.2605  11.3273
    11.4094  11.5659  11.5772  11.6090

          k = 0.5000 0.0000 0.0000 (107420 PWs)   bands (ev):

   -17.9768 -17.7247 -17.6479 -17.3027 -17.2128 -17.0457 -17.0130 -16.8733
   -16.7589 -16.6554 -16.4961 -16.4373 -16.4057 -16.3156 -16.1966 -16.1613
   -16.1341 -16.0792 -15.9011 -15.8610 -15.8115 -15.6929 -15.6401 -15.5405
   -15.5122 -15.4544 -15.4056 -15.2700 -15.2425 -15.1519 -15.1021 -15.0951
   -15.0228 -14.9957 -14.9298 -14.8753 -14.8012 -14.6278 -14.5802 -14.5153
   -14.4981 -14.3764 -14.2321 -14.2107 -14.0615 -13.6145 -13.1875 -12.9794
    -7.5746  -7.0036  -6.9668  -6.6866  -6.4787  -6.4339  -6.2345  -6.1127
    -5.7646  -5.6499  -5.4558  -5.3967  -5.0969  -5.0400  -4.8434  -4.7400
    -4.6517  -4.5130  -4.4609  -4.3008  -4.2597  -4.0272  -3.9525  -3.7992
    -3.7544  -3.6239  -3.5533  -3.4558  -3.4239  -3.3498  -3.2925  -3.2665
    -3.1725  -3.1418  -3.0180  -2.9881  -2.9132  -2.7936  -2.6615  -2.5741
    -2.5456  -2.4809  -2.4104  -2.2962  -2.1970  -2.1086  -1.8911  -1.7178
    -1.6475  -1.5566  -1.4701  -1.3900  -1.3639  -1.2555  -1.1948  -1.1562
    -1.1304  -1.0604  -1.0120  -0.9898  -0.9385  -0.9204  -0.8767  -0.8307
    -0.8103  -0.7621  -0.6925  -0.6364  -0.6138  -0.5615  -0.5092  -0.4443
    -0.3337  -0.2726  -0.2600  -0.2214  -0.1184  -0.1100  -0.0623  -0.0388
     0.0070   0.0382   0.1181   0.1326   0.1515   0.1826   0.1901   0.2033
     0.2501   0.3041   0.3526   0.3746   0.4119   0.4527   0.5223   0.5313
     0.5814   0.5988   0.6378   0.6665   0.6963   0.7386   0.8108   0.8447
     0.9018   0.9145   0.9852   1.0016   1.0501   1.0633   1.1127   1.1639
     1.2242   1.2450   1.3027   1.3390   1.3961   1.4320   1.4810   1.5170
     1.5468   1.5713   1.6709   1.6924   1.7373   1.7868   1.8114   1.8656
     1.9432   2.0092   2.0594   2.0984   2.1631   2.1913   2.2627   2.3594
     2.4647   2.6087   2.7691   2.7968   2.8834   2.9557   2.9906   3.1524
     7.8927   8.1854   8.8335   9.2061   9.4424   9.6879   9.8223  10.0447
    10.1377  10.1872  10.3715  10.4506  10.6394  10.6516  10.7026  10.8042
    10.8672  10.9142  10.9721  11.0014  11.1601  11.1799  11.2936  11.3756
    11.4349  11.4998  11.5157  11.5844

          k = 0.5000 0.0000 0.4550 (107560 PWs)   bands (ev):

   -17.9692 -17.7515 -17.6295 -17.3059 -17.2165 -17.0481 -17.0069 -16.8569
   -16.7732 -16.6344 -16.4934 -16.4826 -16.3578 -16.2690 -16.2259 -16.2019
   -16.1495 -16.0940 -15.9458 -15.8446 -15.7532 -15.6746 -15.6164 -15.5786
   -15.5093 -15.4444 -15.4350 -15.2803 -15.2173 -15.1718 -15.0832 -15.0652
   -15.0372 -14.9780 -14.9401 -14.8952 -14.7996 -14.6489 -14.5794 -14.5209
   -14.4943 -14.3644 -14.2280 -14.2106 -14.0591 -13.6181 -13.1876 -12.9794
    -7.4767  -7.2056  -6.8037  -6.7106  -6.6525  -6.4896  -6.2209  -5.9880
    -5.7175  -5.4941  -5.3524  -5.2897  -5.1726  -5.1121  -5.0338  -4.8926
    -4.6668  -4.5410  -4.4482  -4.2230  -4.0881  -4.0370  -3.9893  -3.8678
    -3.7108  -3.6869  -3.5596  -3.5175  -3.4049  -3.3409  -3.2489  -3.2185
    -3.1784  -3.0872  -3.0266  -2.9539  -2.8966  -2.7929  -2.6992  -2.5933
    -2.5771  -2.5042  -2.4769  -2.2626  -2.1639  -2.0311  -1.9217  -1.7796
    -1.6590  -1.5532  -1.4932  -1.3861  -1.3449  -1.2593  -1.2158  -1.1630
    -1.0943  -1.0344  -1.0021  -0.9673  -0.9367  -0.9219  -0.9089  -0.8222
    -0.8146  -0.7438  -0.6933  -0.6724  -0.5725  -0.5331  -0.4945  -0.4217
    -0.3618  -0.2940  -0.2871  -0.1971  -0.1468  -0.0860  -0.0635  -0.0277
    -0.0025   0.0115   0.0655   0.1268   0.1400   0.1921   0.2095   0.2310
     0.2869   0.3583   0.3695   0.3828   0.4320   0.4672   0.5069   0.5465
     0.5710   0.6106   0.6204   0.6338   0.6468   0.7450   0.7945   0.8086
     0.8760   0.8971   0.9461   0.9870   1.0550   1.0713   1.1077   1.2218
     1.2405   1.2991   1.3096   1.3242   1.3960   1.4494   1.4631   1.4931
     1.5155   1.5485   1.6588   1.6821   1.7366   1.7976   1.8673   1.8891
     1.9727   2.0143   2.0457   2.0976   2.1298   2.1761   2.2686   2.3778
     2.4588   2.5907   2.7543   2.8235   2.8719   2.9644   2.9906   3.1561
     8.0919   8.3569   8.5505   8.7826   9.5953   9.6754   9.8008  10.0111
    10.1468  10.2398  10.4085  10.5340  10.5692  10.7628  10.8024  10.8262
    10.8680  10.9767  10.9865  11.0614  11.1058  11.1723  11.2184  11.2748
    11.3499  11.4320  11.5339  11.5956

          k = 0.5000 0.5774 0.0000 (107556 PWs)   bands (ev):

   -17.9653 -17.7289 -17.6379 -17.3447 -17.1957 -17.0585 -17.0052 -16.8474
   -16.8011 -16.6391 -16.5498 -16.4457 -16.3439 -16.3140 -16.1964 -16.1657
   -16.1294 -16.0720 -15.9132 -15.8479 -15.7903 -15.6751 -15.6257 -15.5534
   -15.4945 -15.4818 -15.4084 -15.3051 -15.2229 -15.1785 -15.1642 -15.0424
   -14.9953 -14.9602 -14.9069 -14.8813 -14.8204 -14.6274 -14.5918 -14.5206
   -14.4949 -14.3824 -14.2422 -14.2215 -14.0611 -13.6158 -13.1855 -12.9810
    -7.4235  -7.0638  -6.8714  -6.8020  -6.5455  -6.3818  -6.2905  -6.1477
    -5.8946  -5.6161  -5.4673  -5.3156  -5.1170  -4.9789  -4.9343  -4.7944
    -4.6277  -4.5803  -4.4557  -4.1973  -4.1471  -3.9626  -3.8881  -3.7772
    -3.7314  -3.6941  -3.6220  -3.4582  -3.4133  -3.3456  -3.3297  -3.2694
    -3.1351  -3.1026  -3.0196  -2.9537  -2.8939  -2.8352  -2.6906  -2.5548
    -2.5352  -2.4801  -2.4496  -2.3279  -2.1672  -2.0999  -1.8869  -1.7436
    -1.6721  -1.5474  -1.4868  -1.4030  -1.3422  -1.3186  -1.2532  -1.1870
    -1.1015  -1.0638  -1.0600  -1.0295  -0.9641  -0.9181  -0.8609  -0.7743
    -0.7570  -0.7053  -0.6134  -0.5985  -0.5687  -0.5112  -0.4886  -0.3876
    -0.3627  -0.3345  -0.2789  -0.2478  -0.1838  -0.1715  -0.1138  -0.0691
     0.0046   0.0313   0.0422   0.1194   0.1373   0.1608   0.1978   0.2391
     0.2948   0.3233   0.3582   0.3689   0.4250   0.4647   0.5229   0.5733
     0.5813   0.6058   0.6172   0.6785   0.7433   0.7554   0.8103   0.8349
     0.9031   0.9295   1.0058   1.0252   1.0481   1.0907   1.1048   1.1616
     1.2028   1.2719   1.3006   1.3192   1.3505   1.3820   1.4673   1.4752
     1.5385   1.5836   1.6656   1.7306   1.7704   1.7846   1.8247   1.8363
     1.8688   2.0369   2.0489   2.1024   2.1574   2.2722   2.2913   2.3566
     2.4868   2.5701   2.7914   2.8014   2.8741   2.9407   2.9792   3.1524
     8.2528   8.4689   8.6449   9.1947   9.3163   9.4786   9.5910   9.8055
    10.1805  10.2423  10.3904  10.4402  10.5557  10.5849  10.7802  10.8171
    10.8740  10.9200  11.0377  11.1014  11.1217  11.1571  11.2189  11.3228
    11.4434  11.4783  11.5503  11.6604

          k = 0.5000 0.5774 0.4550 (107528 PWs)   bands (ev):

   -17.9621 -17.7343 -17.6379 -17.3423 -17.1874 -17.0578 -17.0438 -16.8443
   -16.7711 -16.6295 -16.4981 -16.4818 -16.3610 -16.3015 -16.2183 -16.1697
   -16.1595 -16.0675 -15.9154 -15.8400 -15.7660 -15.6777 -15.5934 -15.5881
   -15.5114 -15.4602 -15.3960 -15.3084 -15.2393 -15.1983 -15.1165 -15.0466
   -15.0038 -14.9747 -14.9013 -14.8941 -14.8115 -14.6331 -14.5872 -14.5269
   -14.4966 -14.3737 -14.2471 -14.2136 -14.0590 -13.6185 -13.1854 -12.9810
    -7.4048  -7.0727  -6.9065  -6.7890  -6.5076  -6.4595  -6.4003  -6.0551
    -5.7395  -5.5473  -5.3617  -5.2703  -5.1864  -5.1834  -5.0609  -4.9041
    -4.5881  -4.4500  -4.3872  -4.2583  -4.0982  -3.9690  -3.9235  -3.8202
    -3.7954  -3.6324  -3.5705  -3.4730  -3.4583  -3.3554  -3.2772  -3.2048
    -3.1660  -3.0636  -3.0332  -2.9611  -2.8599  -2.7933  -2.6767  -2.6669
    -2.5824  -2.5371  -2.4582  -2.1665  -2.1350  -2.1241  -1.9345  -1.8063
    -1.5667  -1.5339  -1.4951  -1.4287  -1.4073  -1.2840  -1.2488  -1.1888
    -1.0836  -1.0733  -1.0250  -1.0068  -0.9226  -0.9062  -0.8656  -0.8088
    -0.7781  -0.6961  -0.6757  -0.5938  -0.5757  -0.5250  -0.4937  -0.4302
    -0.3817  -0.3128  -0.2638  -0.2167  -0.2114  -0.1591  -0.1218  -0.0650
    -0.0266   0.0188   0.0668   0.0920   0.1245   0.1812   0.2495   0.2642
     0.3031   0.3508   0.3803   0.3948   0.4348   0.4390   0.4974   0.5419
     0.5718   0.6457   0.6479   0.6737   0.6922   0.7361   0.7822   0.8027
     0.8414   0.9274   1.0038   1.0272   1.0394   1.1048   1.1533   1.1765
     1.2080   1.2689   1.2773   1.3294   1.3369   1.4395   1.4932   1.5071
     1.5704   1.6120   1.6483   1.6618   1.6984   1.7963   1.8473   1.9011
     1.9251   2.0121   2.0656   2.0886   2.1410   2.2102   2.2620   2.3497
     2.5023   2.5515   2.8035   2.8329   2.8545   2.9276   2.9957   3.1631
     8.3037   8.6001   8.7651   8.9926   9.1632   9.3181   9.6317   9.8292
    10.0379  10.1438  10.3599  10.5376  10.6347  10.6548  10.7272  10.8388
    10.8974  10.9748  11.0324  11.1038  11.1302  11.2205  11.2517  11.3134
    11.4195  11.5132  11.5522  11.6339

     highest occupied, lowest unoccupied level (ev):     3.1694    7.4912

!    total energy              =   -1797.27133829 Ry
     estimated scf accuracy    <          1.8E-09 Ry

     The total energy is the sum of the following terms:
     one-electron contribution =    -908.16241018 Ry
     hartree contribution      =     658.74913376 Ry
     xc contribution           =    -486.18455784 Ry
     ewald contribution        =   -1061.15112041 Ry

     convergence has been achieved in  13 iterations

     Forces acting on atoms (cartesian axes, Ry/au):

     atom    1 type  1   force =     0.06068275   -0.06796261    0.18978718
     atom    2 type  1   force =     0.04144029    0.10631697   -0.13886401
     atom    3 type  1   force =    -0.02917146    0.29856200   -0.26003719
     atom    4 type  2   force =     0.00730259    0.05818394    0.06206141
     atom    5 type  2   force =    -0.06535774    0.04961635   -0.05050736
     atom    6 type  2   force =    -0.07223534   -0.09484772    0.08680247
     atom    7 type  2   force =     0.00139339   -0.08122295   -0.04189588
     atom    8 type  2   force =     0.00481863    0.02272975   -0.00758465
     atom    9 type  2   force =    -0.05055044   -0.02501276    0.03349259
     atom   10 type  1   force =     0.04738744    0.02755446    0.02637181
     atom   11 type  1   force =     0.14073377    0.02125180    0.02288820
     atom   12 type  1   force =     0.04384917   -0.18299862   -0.09133735
     atom   13 type  2   force =    -0.01774075    0.02222038    0.02779444
     atom   14 type  2   force =     0.03938781   -0.04212507    0.04393225
     atom   15 type  2   force =     0.08753005   -0.02237108   -0.03549255
     atom   16 type  2   force =    -0.11889263    0.18757848    0.06916590
     atom   17 type  2   force =    -0.13546915   -0.03100809   -0.09496941
     atom   18 type  2   force =     0.01601845    0.05200920    0.04343726
     atom   19 type  1   force =     0.21135823   -0.03121957    0.00834636
     atom   20 type  1   force =     0.15867768   -0.00689743    0.00142002
     atom   21 type  2   force =     0.09727995   -0.06047782    0.03602157
     atom   22 type  2   force =    -0.08410984    0.09357038    0.06726415
     atom   23 type  2   force =    -0.21430927   -0.00730514   -0.17098069
     atom   24 type  2   force =     0.08440031    0.13070264   -0.06534387
     atom   25 type  1   force =    -0.11112248    0.20832917    0.11276340
     atom   26 type  1   force =     0.04391431   -0.16555598   -0.11328749
     atom   27 type  2   force =     0.15693572   -0.16610063    0.12813018
     atom   28 type  2   force =    -0.05336254   -0.03502363    0.00817684
     atom   29 type  2   force =    -0.10988878    0.02309200   -0.10550768
     atom   30 type  2   force =    -0.06668451   -0.11248283    0.08747006
     atom   31 type  1   force =     0.08762052    0.00612199    0.16006726
     atom   32 type  1   force =    -0.26451386   -0.03290277   -0.11931553
     atom   33 type  1   force =    -0.09927211   -0.00316554    0.00239326
     atom   34 type  2   force =    -0.01969935   -0.02614633    0.01293640
     atom   35 type  2   force =     0.13008783   -0.13410561    0.15666751
     atom   36 type  2   force =     0.10352111    0.07595620   -0.04518766
     atom   37 type  2   force =    -0.03447316    0.08610744    0.00452274
     atom   38 type  2   force =     0.00654252    0.05865576   -0.01306862
     atom   39 type  2   force =     0.10484879    0.12042694   -0.14203417
     atom   40 type  1   force =    -0.02706447   -0.19972294    0.00626820
     atom   41 type  1   force =     0.10947334   -0.10080078   -0.06464601
     atom   42 type  1   force =    -0.19616118   -0.10608439   -0.02639886
     atom   43 type  2   force =     0.00497797   -0.06088039   -0.05632586
     atom   44 type  2   force =     0.24521250   -0.17101250    0.20270462
     atom   45 type  2   force =    -0.00062452    0.01281190    0.03814083
     atom   46 type  2   force =    -0.07220373    0.11718804    0.07485423
     atom   47 type  2   force =    -0.24162178    0.11274364   -0.16257969
     atom   48 type  2   force =     0.00661501   -0.10684211    0.02727833
     atom   49 type  1   force =     0.08527530   -0.04168045    0.07282109
     atom   50 type  1   force =     0.16729372   -0.07979047    0.02498176
     atom   51 type  1   force =    -0.18786792    0.19817733   -0.03981762
     atom   52 type  2   force =    -0.02771129    0.03695346    0.01573730
     atom   53 type  2   force =     0.12070497   -0.09667447    0.17645045
     atom   54 type  2   force =    -0.01396450   -0.03793583   -0.00724515
     atom   55 type  2   force =    -0.03970122   -0.05260516   -0.00002928
     atom   56 type  2   force =    -0.01492306    0.04854635   -0.02385432
     atom   57 type  2   force =     0.05169721   -0.03150020   -0.00038009
     atom   58 type  1   force =     0.20783828   -0.01424865   -0.09145106
     atom   59 type  1   force =    -0.12004784   -0.04282447    0.12652643
     atom   60 type  1   force =    -0.29162881    0.17740480   -0.13620726
     atom   61 type  2   force =     0.05678830    0.04341060    0.06333020
     atom   62 type  2   force =    -0.04046249    0.05688554   -0.07238473
     atom   63 type  2   force =    -0.00428136    0.07045498   -0.05738622
     atom   64 type  2   force =     0.03130664   -0.10585013   -0.05941217
     atom   65 type  2   force =     0.03152457    0.07589837    0.05926352
     atom   66 type  2   force =     0.06872182    0.01732595   -0.05869538
     atom   67 type  1   force =    -0.19199598    0.02868513    0.07168365
     atom   68 type  2   force =     0.00386114   -0.00468915   -0.02616095
     atom   69 type  2   force =     0.05405376   -0.09187414   -0.02881481
     atom   70 type  1   force =     0.01255336   -0.08949846   -0.02843216
     atom   71 type  2   force =     0.07435757    0.11818411    0.07115966
     atom   72 type  2   force =     0.00912679   -0.00020915    0.01252223

     Total force =     1.456545     Total SCF correction =     0.000052


     Computing stress (Cartesian axis) and pressure

          total   stress  (Ry/bohr**3)                   (kbar)     P=       93.54
   0.00072273  -0.00018528   0.00017066          106.32      -27.26       25.10
  -0.00018528   0.00045638  -0.00019271          -27.26       67.14      -28.35
   0.00017066  -0.00019271   0.00072842           25.10      -28.35      107.15


     Writing all to output data dir /n/holyscratch01/kozinsky_lab/sfalletta/QE/SiO2/SiO2-T600-Ex-0/SiO2.save/

     init_run     :      5.99s CPU      6.30s WALL (       1 calls)
     electrons    :  16851.21s CPU  17546.81s WALL (       1 calls)
     forces       :      3.41s CPU      3.46s WALL (       1 calls)
     stress       :     57.81s CPU     58.31s WALL (       1 calls)

     Called by init_run:
     wfcinit      :      3.50s CPU      3.59s WALL (       1 calls)
     potinit      :      0.26s CPU      0.28s WALL (       1 calls)
     hinit0       :      0.42s CPU      0.48s WALL (       1 calls)

     Called by electrons:
     c_bands      :    696.91s CPU    701.47s WALL (      13 calls)
     sum_band     :      8.04s CPU      8.14s WALL (      13 calls)
     v_of_rho     :      0.47s CPU      0.51s WALL (      14 calls)
     mix_rho      :      0.06s CPU      0.07s WALL (      13 calls)

     Called by c_bands:
     init_us_2    :      1.78s CPU      1.81s WALL (     232 calls)
     init_us_2:cp :      1.78s CPU      1.81s WALL (     232 calls)
     cegterg      :    692.43s CPU    696.83s WALL (     104 calls)

     Called by *egterg:
     cdiaghg      :     30.21s CPU     30.41s WALL (    1144 calls)
     h_psi        :    631.05s CPU    635.03s WALL (    1152 calls)
     g_psi        :      0.23s CPU      0.23s WALL (    1040 calls)

     Called by h_psi:
     h_psi:calbec :     22.99s CPU     23.16s WALL (    1152 calls)
     vloc_psi     :     41.79s CPU     42.29s WALL (    1152 calls)
     add_vuspsi   :     16.07s CPU     16.20s WALL (    1152 calls)

     General routines
     calbec       :     26.05s CPU     26.27s WALL (    1192 calls)
     fft          :      0.38s CPU      0.46s WALL (     190 calls)
     ffts         :      0.02s CPU      0.02s WALL (      27 calls)
     fftw         :     43.28s CPU     43.79s WALL (  167066 calls)
     interpolate  :      0.03s CPU      0.04s WALL (      14 calls)
     davcio       :      0.00s CPU      0.18s WALL (      16 calls)

     Parallel routines

     Electric-field routines
     h_epsi_set   :  10236.60s CPU  10543.44s WALL (      13 calls)
     h_epsi_apply :    549.66s CPU    552.83s WALL (    1144 calls)
     c_phase_fiel :   5908.94s CPU   6292.73s WALL (      39 calls)

     PWSCF        :      4h42m CPU      4h53m WALL


   This run was terminated on:  18:39:51   2Feb2024            

=------------------------------------------------------------------------------=
   JOB DONE.
=------------------------------------------------------------------------------=
