
     Program PWSCF v.7.1 starts on  1Feb2024 at 10:45: 2 

     This program is part of the open-source Quantum ESPRESSO suite
     for quantum simulation of materials; please cite
         "P. Giannozzi et al., J. Phys.:Condens. Matter 21 395502 (2009);
         "P. Giannozzi et al., J. Phys.:Condens. Matter 29 465901 (2017);
         "P. Giannozzi et al., J. Chem. Phys. 152 154105 (2020);
          URL http://www.quantum-espresso.org", 
     in publications or presentations arising from this work. More details at
     http://www.quantum-espresso.org/quote

     Parallel version (MPI), running on   112 processors

     MPI processes distributed on     1 nodes
     1006020 MiB available memory on the printing compute node when the environment starts

     Reading input from /n/holyscratch01/kozinsky_lab/sfalletta/QE/SiO2/SiO2-T600-E0-0/SiO2-scf.inp

     Current dimensions of program PWSCF are:
     Max number of different atomic species (ntypx) = 10
     Max number of k-points (npk) =  40000
     Max angular momentum in pseudopotentials (lmaxx) =  4

     IMPORTANT: XC functional enforced from input :
     Exchange-correlation= PBE
                           (   1   4   3   4   0   0   0)
     Any further DFT definition will be discarded
     Please, verify this is what you really want


     R & G space division:  proc/nbgrp/npool/nimage =     112
     Subspace diagonalization in iterative solution of the eigenvalue problem:
     one sub-group per band group will be used
     scalapack distributed-memory algorithm (size of sub-group: 10* 10 procs)


     Parallelization info
     --------------------
     sticks:   dense  smooth     PW     G-vecs:    dense   smooth      PW
     Min         174      87     23                21712     7675    1045
     Max         175      88     24                21721     7680    1049
     Sum       19575    9769   2585              2432309   859779  117343

     Using Slab Decomposition



     bravais-lattice index     =           14
     lattice parameter (alat)  =      18.8417  a.u.
     unit-cell volume          =    6365.9664 (a.u.)^3
     number of atoms/cell      =           72
     number of atomic types    =            2
     number of electrons       =       384.00
     number of Kohn-Sham states=          220
     kinetic-energy cutoff     =     100.0000  Ry
     charge density cutoff     =     800.0000  Ry
     scf convergence threshold =      1.0E-08
     mixing beta               =       0.7000
     number of iterations used =            8  plain     mixing
     Exchange-correlation= PBE
                           (   1   4   3   4   0   0   0)

     Using Berry phase electric field
     In a.u.(Ry)  cartesian system of reference
        0.0000000000
        0.0000000000
        0.0000000000
     In a.u.(Ry)  crystal system of reference
        0.0000000000
        0.0000000000
        0.0000000000
     Number of iterative cycles:   1


     celldm(1)=  18.841714  celldm(2)=   0.866025  celldm(3)=   1.098936
     celldm(4)=   0.000000  celldm(5)=   0.000000  celldm(6)=   0.000000

     crystal axes: (cart. coord. in units of alat)
               a(1) = (   1.000000   0.000000   0.000000 )  
               a(2) = (   0.000000   0.866025   0.000000 )  
               a(3) = (   0.000000   0.000000   1.098936 )  

     reciprocal axes: (cart. coord. in units 2 pi/alat)
               b(1) = (  1.000000  0.000000  0.000000 )  
               b(2) = (  0.000000  1.154701  0.000000 )  
               b(3) = (  0.000000  0.000000  0.909971 )  


     PseudoPot. # 1 for Si read from file:
     /n/holyscratch01/kozinsky_lab/sfalletta/QE/Inputs/Si.upf
     MD5 check sum: 1e49d63d1c5892e9c2567cdfc797a7ef
     Pseudo is Norm-conserving + core correction, Zval =  4.0
     Generated using ONCVPSP code by D. R. Hamann
     Using radial grid of 1510 points,  6 beta functions with: 
                l(1) =   0
                l(2) =   0
                l(3) =   1
                l(4) =   1
                l(5) =   2
                l(6) =   2

     PseudoPot. # 2 for O  read from file:
     /n/holyscratch01/kozinsky_lab/sfalletta/QE/Inputs/O.upf
     MD5 check sum: e161f86cb4953fdc9aae83e76c3f29b8
     Pseudo is Norm-conserving + core correction, Zval =  6.0
     Generated using ONCVPSP code by D. R. Hamann
     Using radial grid of  936 points,  5 beta functions with: 
                l(1) =   0
                l(2) =   0
                l(3) =   1
                l(4) =   1
                l(5) =   2

     atomic species   valence    mass     pseudopotential
        Si             4.00    28.08550     Si( 1.00)
        O              6.00    15.99900     O ( 1.00)

     No symmetry found



   Cartesian axes

     site n.     atom                  positions (alat units)
         1           Si  tau(   1) = (   0.8841790   0.2115197   0.4435277  )
         2           Si  tau(   2) = (   0.1360088   0.2222864   0.2853458  )
         3           Si  tau(   3) = (   0.2218812   0.8562469   0.0885200  )
         4           O   tau(   4) = (   0.9308211   0.2918639   0.0348738  )
         5           O   tau(   5) = (   0.0934266   0.3688612   0.2281015  )
         6           O   tau(   6) = (   0.0148497   0.1768197   0.3646007  )
         7           O   tau(   7) = (   0.1600976   0.1287525   0.1607726  )
         8           O   tau(   8) = (   0.2613913   0.2713476   0.3654823  )
         9           O   tau(   9) = (   0.3460472   0.0856930   0.5255348  )
        10           Si  tau(  10) = (   0.9033985   0.1907196   1.0162873  )
        11           Si  tau(  11) = (   0.1391701   0.2040026   0.8311631  )
        12           Si  tau(  12) = (   0.2573525   0.0056010   0.6344760  )
        13           O   tau(  13) = (   0.8968923   0.3366024   0.5409982  )
        14           O   tau(  14) = (   0.0687931   0.3117724   0.7281955  )
        15           O   tau(  15) = (   0.0248331   0.1502667   0.9275846  )
        16           O   tau(  16) = (   0.2235411   0.0567707   0.7785986  )
        17           O   tau(  17) = (   0.2659196   0.2933944   0.9161881  )
        18           O   tau(  18) = (   0.3170369   0.0743158   1.0630748  )
        19           Si  tau(  19) = (   0.8516604   0.6618735   0.2663579  )
        20           Si  tau(  20) = (   0.9944742   0.4227857   0.1061941  )
        21           O   tau(  21) = (   0.8018931   0.8022963   0.2069142  )
        22           O   tau(  22) = (   0.8974831   0.5383926   0.1567598  )
        23           O   tau(  23) = (   0.9984479   0.6938415   0.3716775  )
        24           O   tau(  24) = (   0.0809499   0.5007940   0.5494781  )
        25           Si  tau(  25) = (   0.8676133   0.6384507   0.8159685  )
        26           Si  tau(  26) = (   0.9867545   0.4246502   0.6473157  )
        27           O   tau(  27) = (   0.8422788   0.7775415   0.7234786  )
        28           O   tau(  28) = (   0.8983566   0.5249089   0.7197837  )
        29           O   tau(  29) = (   0.9673003   0.6471272   0.9456075  )
        30           O   tau(  30) = (   0.1061179   0.5000669   0.0050833  )
        31           Si  tau(  31) = (   0.3868902   0.2164432   0.4376344  )
        32           Si  tau(  32) = (   0.6446328   0.2189024   0.2674592  )
        33           Si  tau(  33) = (   0.7507768   0.0033077   0.0745000  )
        34           O   tau(  34) = (   0.4104405   0.3475095   0.0298776  )
        35           O   tau(  35) = (   0.5991050   0.3664401   0.2028683  )
        36           O   tau(  36) = (   0.5042362   0.1512355   0.3470391  )
        37           O   tau(  37) = (   0.6660508   0.1183098   0.1433965  )
        38           O   tau(  38) = (   0.7709451   0.2378180   0.3459700  )
        39           O   tau(  39) = (   0.8411716   0.0795476   0.5353827  )
        40           Si  tau(  40) = (   0.3798325   0.2447875   1.0137699  )
        41           Si  tau(  41) = (   0.6482425   0.2420906   0.8386110  )
        42           Si  tau(  42) = (   0.7591926   0.0106095   0.6424946  )
        43           O   tau(  43) = (   0.4187709   0.3316438   0.5574546  )
        44           O   tau(  44) = (   0.6234416   0.3501984   0.7148833  )
        45           O   tau(  45) = (   0.5139708   0.2139188   0.9194135  )
        46           O   tau(  46) = (   0.6861168   0.0989839   0.7499133  )
        47           O   tau(  47) = (   0.7973337   0.2544539   0.9277761  )
        48           O   tau(  48) = (   0.8519542   0.0540641   1.0663444  )
        49           Si  tau(  49) = (   0.1073626   0.6483458   0.4707929  )
        50           Si  tau(  50) = (   0.3514049   0.6648743   0.2817111  )
        51           Si  tau(  51) = (   0.5190647   0.4416472   0.1005606  )
        52           O   tau(  52) = (   0.1203748   0.7609367   0.0117073  )
        53           O   tau(  53) = (   0.2862986   0.7814600   0.1969449  )
        54           O   tau(  54) = (   0.2476810   0.6222691   0.3946360  )
        55           O   tau(  55) = (   0.4304463   0.5683416   0.1718782  )
        56           O   tau(  56) = (   0.4862312   0.6985644   0.3702934  )
        57           O   tau(  57) = (   0.5687648   0.5330479   0.5371780  )
        58           Si  tau(  58) = (   0.1019757   0.6316106   1.0197174  )
        59           Si  tau(  59) = (   0.3706355   0.6428677   0.8062178  )
        60           Si  tau(  60) = (   0.5203816   0.4265157   0.6439699  )
        61           O   tau(  61) = (   0.1274837   0.7858289   0.5587173  )
        62           O   tau(  62) = (   0.3606692   0.7487659   0.6915106  )
        63           O   tau(  63) = (   0.2350760   0.5985564   0.9173585  )
        64           O   tau(  64) = (   0.4236122   0.5054708   0.7534116  )
        65           O   tau(  65) = (   0.4768336   0.6816356   0.9158240  )
        66           O   tau(  66) = (   0.5951865   0.5237415   1.0898234  )
        67           Si  tau(  67) = (   0.6196885   0.6595226   0.4531891  )
        68           O   tau(  68) = (   0.6371378   0.7782235   0.0078980  )
        69           O   tau(  69) = (   0.7360536   0.6221939   0.3603382  )
        70           Si  tau(  70) = (   0.6084956   0.6623429   1.0006945  )
        71           O   tau(  71) = (   0.6469426   0.7727234   0.5580674  )
        72           O   tau(  72) = (   0.7217676   0.6221518   0.8881807  )

     number of k points=     8
                       cart. coord. in units 2pi/alat
        k(    1) = (   0.0000000   0.0000000   0.0000000), wk =   0.2500000
        k(    2) = (   0.0000000   0.0000000   0.4549855), wk =   0.2500000
        k(    3) = (   0.0000000   0.5773503   0.0000000), wk =   0.2500000
        k(    4) = (   0.0000000   0.5773503   0.4549855), wk =   0.2500000
        k(    5) = (   0.5000000   0.0000000   0.0000000), wk =   0.2500000
        k(    6) = (   0.5000000   0.0000000   0.4549855), wk =   0.2500000
        k(    7) = (   0.5000000   0.5773503   0.0000000), wk =   0.2500000
        k(    8) = (   0.5000000   0.5773503   0.4549855), wk =   0.2500000

     Dense  grid:  2432309 G-vectors     FFT dimensions: ( 180, 150, 192)

     Smooth grid:   859779 G-vectors     FFT dimensions: ( 120, 108, 135)

     Estimated max dynamical RAM per process >      78.77 MB

     Estimated total dynamical RAM >       8.62 GB

     Initial potential from superposition of free atoms

     starting charge     383.9851, renormalised to     384.0000
     Starting wfcs are  288 randomized atomic wfcs

     total cpu time spent up to now is        7.9 secs

     Self-consistent Calculation

     iteration #  1     ecut=   100.00 Ry     beta= 0.70
     Davidson diagonalization with overlap
     ethr =  1.00E-02,  avg # of iterations =  3.0

     Expectation value of exp(iGx):   (7.30451828008162746E-002,2.86047950961439215E-002)   1.0000000000000000     
     Electronic Dipole per cell (Ry a.u.)   3.1657939351876396     
     Ionic Dipole per cell (Ry a.u.)   5220.7307615604614     

     Expectation value of exp(iGx):   (1.26754640173926490E-002,3.06166261793545148E-002)  0.86602540378443849     
     Electronic Dipole per cell (Ry a.u.)   8.6549119050615406     
     Ionic Dipole per cell (Ry a.u.)   4333.8671907424050     

     Expectation value of exp(iGx):       (0.12000690505044277,-3.93996971885668575E-003)   1.0989361747729789     
     Electronic Dipole per cell (Ry a.u.) -0.30590648947334215     
     Ionic Dipole per cell (Ry a.u.)   5446.6758445586356     
Electronic Dipole on Cartesian axes
           1   3.1657939351876396     
           2   8.6549119050615406     
           3 -0.30590648947334215     
Ionic Dipole on Cartesian axes
           1   5220.7307615604614     
           2   4333.8671907424050     
           3   5446.6758445586356     

     total cpu time spent up to now is      493.7 secs

     total energy              =   -1788.60323188 Ry
     estimated scf accuracy    <      19.87194028 Ry

     iteration #  2     ecut=   100.00 Ry     beta= 0.70
     Davidson diagonalization with overlap
     ethr =  5.17E-03,  avg # of iterations =  8.9

     Expectation value of exp(iGx):   (2.28288562316079670E-002,9.12041062080620919E-003)   1.0000000000000000     
     Electronic Dipole per cell (Ry a.u.)   3.2237944710358377     
     Ionic Dipole per cell (Ry a.u.)   5220.7307615604614     

     Expectation value of exp(iGx):   (4.00193441081599880E-003,5.77437111629089048E-003)  0.86602540378443849     
     Electronic Dipole per cell (Ry a.u.)   7.0864810862512124     
     Ionic Dipole per cell (Ry a.u.)   4333.8671907424050     

     Expectation value of exp(iGx):  (4.54103857602400560E-002,-2.89822543382866336E-004)   1.0989361747729789     
     Electronic Dipole per cell (Ry a.u.)  -5.9487961142939978E-002
     Ionic Dipole per cell (Ry a.u.)   5446.6758445586356     
Electronic Dipole on Cartesian axes
           1   3.2237944710358377     
           2   7.0864810862512133     
           3  -5.9487961142939971E-002
Ionic Dipole on Cartesian axes
           1   5220.7307615604614     
           2   4333.8671907424050     
           3   5446.6758445586356     

     total cpu time spent up to now is      988.7 secs

     total energy              =   -1794.69346874 Ry
     estimated scf accuracy    <      11.66028272 Ry

     iteration #  3     ecut=   100.00 Ry     beta= 0.70
     Davidson diagonalization with overlap
     ethr =  3.04E-03,  avg # of iterations =  2.4

     Expectation value of exp(iGx):   (3.96768082119835427E-002,1.38120330479416173E-002)   1.0000000000000000     
     Electronic Dipole per cell (Ry a.u.)   2.8413292036982947     
     Ionic Dipole per cell (Ry a.u.)   5220.7307615604614     

     Expectation value of exp(iGx):   (6.17043954706296936E-003,1.29183874396200798E-002)  0.86602540378443849     
     Electronic Dipole per cell (Ry a.u.)   8.2649830723352817     
     Ionic Dipole per cell (Ry a.u.)   4333.8671907424050     

     Expectation value of exp(iGx):  (7.09757301552056408E-002,-3.08575791858219008E-003)   1.0989361747729789     
     Electronic Dipole per cell (Ry a.u.) -0.40498280488231619     
     Ionic Dipole per cell (Ry a.u.)   5446.6758445586356     
Electronic Dipole on Cartesian axes
           1   2.8413292036982947     
           2   8.2649830723352817     
           3 -0.40498280488231619     
Ionic Dipole on Cartesian axes
           1   5220.7307615604614     
           2   4333.8671907424050     
           3   5446.6758445586356     

     total cpu time spent up to now is     1475.6 secs

     total energy              =   -1796.64691640 Ry
     estimated scf accuracy    <       0.19940311 Ry

     iteration #  4     ecut=   100.00 Ry     beta= 0.70
     Davidson diagonalization with overlap
     ethr =  5.19E-05,  avg # of iterations = 14.5

     Expectation value of exp(iGx):   (4.16915732996822608E-002,1.62869828502386869E-002)   1.0000000000000000     
     Electronic Dipole per cell (Ry a.u.)   3.1588049777728568     
     Ionic Dipole per cell (Ry a.u.)   5220.7307615604614     

     Expectation value of exp(iGx):   (7.54795996333569238E-003,1.36563952720414328E-002)  0.86602540378443849     
     Electronic Dipole per cell (Ry a.u.)   7.8293176533399009     
     Ionic Dipole per cell (Ry a.u.)   4333.8671907424050     

     Expectation value of exp(iGx):  (7.50999343348657672E-002,-1.94608311255339318E-003)   1.0989361747729789     
     Electronic Dipole per cell (Ry a.u.) -0.24148082725107053     
     Ionic Dipole per cell (Ry a.u.)   5446.6758445586356     
Electronic Dipole on Cartesian axes
           1   3.1588049777728568     
           2   7.8293176533399009     
           3 -0.24148082725107053     
Ionic Dipole on Cartesian axes
           1   5220.7307615604614     
           2   4333.8671907424050     
           3   5446.6758445586356     

     total cpu time spent up to now is     2008.9 secs

     total energy              =   -1796.74055672 Ry
     estimated scf accuracy    <       0.09334866 Ry

     iteration #  5     ecut=   100.00 Ry     beta= 0.70
     Davidson diagonalization with overlap
     ethr =  2.43E-05,  avg # of iterations = 12.1

     Expectation value of exp(iGx):   (4.21144102042513152E-002,1.57604045199805053E-002)   1.0000000000000000     
     Electronic Dipole per cell (Ry a.u.)   3.0372638437937920     
     Ionic Dipole per cell (Ry a.u.)   5220.7307615604614     

     Expectation value of exp(iGx):   (7.00646407413088503E-003,1.40419233609600218E-002)  0.86602540378443849     
     Electronic Dipole per cell (Ry a.u.)   8.1385332117562630     
     Ionic Dipole per cell (Ry a.u.)   4333.8671907424050     

     Expectation value of exp(iGx):  (7.53129047308784688E-002,-2.42911627732656996E-003)   1.0989361747729789     
     Electronic Dipole per cell (Ry a.u.) -0.30052899864149457     
     Ionic Dipole per cell (Ry a.u.)   5446.6758445586356     
Electronic Dipole on Cartesian axes
           1   3.0372638437937920     
           2   8.1385332117562630     
           3 -0.30052899864149457     
Ionic Dipole on Cartesian axes
           1   5220.7307615604614     
           2   4333.8671907424050     
           3   5446.6758445586356     

     total cpu time spent up to now is     2502.0 secs

     total energy              =   -1796.74830125 Ry
     estimated scf accuracy    <       0.02300108 Ry

     iteration #  6     ecut=   100.00 Ry     beta= 0.70
     Davidson diagonalization with overlap
     ethr =  5.99E-06,  avg # of iterations =  6.1

     Expectation value of exp(iGx):   (4.17482415510188956E-002,1.56552729024111020E-002)   1.0000000000000000     
     Electronic Dipole per cell (Ry a.u.)   3.0429470517252142     
     Ionic Dipole per cell (Ry a.u.)   5220.7307615604614     

     Expectation value of exp(iGx):   (7.09471857503366291E-003,1.37907711063246959E-002)  0.86602540378443849     
     Electronic Dipole per cell (Ry a.u.)   8.0480186642230418     
     Ionic Dipole per cell (Ry a.u.)   4333.8671907424050     

     Expectation value of exp(iGx):  (7.47641710952806349E-002,-2.39664002930074175E-003)   1.0989361747729789     
     Electronic Dipole per cell (Ry a.u.) -0.29868856942515198     
     Ionic Dipole per cell (Ry a.u.)   5446.6758445586356     
Electronic Dipole on Cartesian axes
           1   3.0429470517252142     
           2   8.0480186642230418     
           3 -0.29868856942515198     
Ionic Dipole on Cartesian axes
           1   5220.7307615604614     
           2   4333.8671907424050     
           3   5446.6758445586356     

     total cpu time spent up to now is     2989.2 secs

     total energy              =   -1796.74811113 Ry
     estimated scf accuracy    <       0.00530689 Ry

     iteration #  7     ecut=   100.00 Ry     beta= 0.70
     Davidson diagonalization with overlap
     ethr =  1.38E-06,  avg # of iterations =  9.6

     Expectation value of exp(iGx):   (4.14355610372002942E-002,1.54970560373868908E-002)   1.0000000000000000     
     Electronic Dipole per cell (Ry a.u.)   3.0355931880185021     
     Ionic Dipole per cell (Ry a.u.)   5220.7307615604614     

     Expectation value of exp(iGx):   (6.99463105633594488E-003,1.36611570033217684E-002)  0.86602540378443849     
     Electronic Dipole per cell (Ry a.u.)   8.0622361636894961     
     Ionic Dipole per cell (Ry a.u.)   4333.8671907424050     

     Expectation value of exp(iGx):  (7.42705009873542432E-002,-2.34520652041631753E-003)   1.0989361747729789     
     Electronic Dipole per cell (Ry a.u.) -0.29422425303419208     
     Ionic Dipole per cell (Ry a.u.)   5446.6758445586356     
Electronic Dipole on Cartesian axes
           1   3.0355931880185021     
           2   8.0622361636894961     
           3 -0.29422425303419208     
Ionic Dipole on Cartesian axes
           1   5220.7307615604614     
           2   4333.8671907424050     
           3   5446.6758445586356     

     total cpu time spent up to now is     3511.0 secs

     total energy              =   -1796.74882534 Ry
     estimated scf accuracy    <       0.00034992 Ry

     iteration #  8     ecut=   100.00 Ry     beta= 0.70
     Davidson diagonalization with overlap
     c_bands:  1 eigenvalues not converged
     ethr =  9.11E-08,  avg # of iterations = 15.9

     Expectation value of exp(iGx):   (4.13163208155639325E-002,1.54588866175277215E-002)   1.0000000000000000     
     Electronic Dipole per cell (Ry a.u.)   3.0367505860376998     
     Ionic Dipole per cell (Ry a.u.)   5220.7307615604614     

     Expectation value of exp(iGx):   (6.99430339349154523E-003,1.35934709291880874E-002)  0.86602540378443849     
     Electronic Dipole per cell (Ry a.u.)   8.0475543553207149     
     Ionic Dipole per cell (Ry a.u.)   4333.8671907424050     

     Expectation value of exp(iGx):  (7.40900130457370909E-002,-2.36059112395313768E-003)   1.0989361747729789     
     Electronic Dipole per cell (Ry a.u.) -0.29687403607975832     
     Ionic Dipole per cell (Ry a.u.)   5446.6758445586356     
Electronic Dipole on Cartesian axes
           1   3.0367505860376998     
           2   8.0475543553207149     
           3 -0.29687403607975832     
Ionic Dipole on Cartesian axes
           1   5220.7307615604614     
           2   4333.8671907424050     
           3   5446.6758445586356     

     total cpu time spent up to now is     4011.3 secs

     total energy              =   -1796.74895191 Ry
     estimated scf accuracy    <       0.00003563 Ry

     iteration #  9     ecut=   100.00 Ry     beta= 0.70
     Davidson diagonalization with overlap
     ethr =  9.28E-09,  avg # of iterations =  8.8

     Expectation value of exp(iGx):   (4.13319034756536932E-002,1.54588090599302834E-002)   1.0000000000000000     
     Electronic Dipole per cell (Ry a.u.)   3.0356870439704147     
     Ionic Dipole per cell (Ry a.u.)   5220.7307615604614     

     Expectation value of exp(iGx):   (6.99251692159912411E-003,1.36031098314380872E-002)  0.86602540378443849     
     Electronic Dipole per cell (Ry a.u.)   8.0504351335084774     
     Ionic Dipole per cell (Ry a.u.)   4333.8671907424050     

     Expectation value of exp(iGx):  (7.41120705864885820E-002,-2.35281687961517516E-003)   1.0989361747729789     
     Electronic Dipole per cell (Ry a.u.) -0.29580897790752869     
     Ionic Dipole per cell (Ry a.u.)   5446.6758445586356     
Electronic Dipole on Cartesian axes
           1   3.0356870439704147     
           2   8.0504351335084774     
           3 -0.29580897790752869     
Ionic Dipole on Cartesian axes
           1   5220.7307615604614     
           2   4333.8671907424050     
           3   5446.6758445586356     

     total cpu time spent up to now is     4504.2 secs

     total energy              =   -1796.74895748 Ry
     estimated scf accuracy    <       0.00000467 Ry

     iteration # 10     ecut=   100.00 Ry     beta= 0.70
     Davidson diagonalization with overlap
     ethr =  1.21E-09,  avg # of iterations = 13.8

     Expectation value of exp(iGx):   (4.13384883488636112E-002,1.54620175585700199E-002)   1.0000000000000000     
     Electronic Dipole per cell (Ry a.u.)   3.0358212586622191     
     Ionic Dipole per cell (Ry a.u.)   5220.7307615604614     

     Expectation value of exp(iGx):   (6.99136764748671188E-003,1.36071409953504568E-002)  0.86602540378443849     
     Electronic Dipole per cell (Ry a.u.)   8.0518108028964583     
     Ionic Dipole per cell (Ry a.u.)   4333.8671907424050     

     Expectation value of exp(iGx):  (7.41215446618264523E-002,-2.35652331409571007E-003)   1.0989361747729789     
     Electronic Dipole per cell (Ry a.u.) -0.29623681374122407     
     Ionic Dipole per cell (Ry a.u.)   5446.6758445586356     
Electronic Dipole on Cartesian axes
           1   3.0358212586622191     
           2   8.0518108028964583     
           3 -0.29623681374122407     
Ionic Dipole on Cartesian axes
           1   5220.7307615604614     
           2   4333.8671907424050     
           3   5446.6758445586356     

     total cpu time spent up to now is     4996.4 secs

     total energy              =   -1796.74895795 Ry
     estimated scf accuracy    <       0.00000067 Ry

     iteration # 11     ecut=   100.00 Ry     beta= 0.70
     Davidson diagonalization with overlap
     c_bands:  1 eigenvalues not converged
     ethr =  1.74E-10,  avg # of iterations = 10.4

     Expectation value of exp(iGx):   (4.13433615057890655E-002,1.54640455897910971E-002)   1.0000000000000000     
     Electronic Dipole per cell (Ry a.u.)   3.0358582079848921     
     Ionic Dipole per cell (Ry a.u.)   5220.7307615604614     

     Expectation value of exp(iGx):   (6.99292279994060285E-003,1.36091423190298436E-002)  0.86602540378443849     
     Electronic Dipole per cell (Ry a.u.)   8.0515858262397337     
     Ionic Dipole per cell (Ry a.u.)   4333.8671907424050     

     Expectation value of exp(iGx):  (7.41289882672973577E-002,-2.35668575802597128E-003)   1.0989361747729789     
     Electronic Dipole per cell (Ry a.u.) -0.29622749228514544     
     Ionic Dipole per cell (Ry a.u.)   5446.6758445586356     
Electronic Dipole on Cartesian axes
           1   3.0358582079848921     
           2   8.0515858262397337     
           3 -0.29622749228514544     
Ionic Dipole on Cartesian axes
           1   5220.7307615604614     
           2   4333.8671907424050     
           3   5446.6758445586356     

     total cpu time spent up to now is     5526.8 secs

     total energy              =   -1796.74895815 Ry
     estimated scf accuracy    <       0.00000005 Ry

     iteration # 12     ecut=   100.00 Ry     beta= 0.70
     Davidson diagonalization with overlap
     c_bands:  1 eigenvalues not converged
     c_bands:  1 eigenvalues not converged
     c_bands:  1 eigenvalues not converged
     c_bands:  1 eigenvalues not converged
     c_bands:  1 eigenvalues not converged
     ethr =  1.23E-11,  avg # of iterations = 19.5

     Expectation value of exp(iGx):   (4.13440545593269648E-002,1.54642067384522675E-002)   1.0000000000000000     
     Electronic Dipole per cell (Ry a.u.)   3.0358405562517374     
     Ionic Dipole per cell (Ry a.u.)   5220.7307615604614     

     Expectation value of exp(iGx):   (6.99289941137742031E-003,1.36095349965464976E-002)  0.86602540378443849     
     Electronic Dipole per cell (Ry a.u.)   8.0516819682019065     
     Ionic Dipole per cell (Ry a.u.)   4333.8671907424050     

     Expectation value of exp(iGx):  (7.41300823738646891E-002,-2.35632900539237827E-003)   1.0989361747729789     
     Electronic Dipole per cell (Ry a.u.) -0.29617831135730865     
     Ionic Dipole per cell (Ry a.u.)   5446.6758445586356     
Electronic Dipole on Cartesian axes
           1   3.0358405562517374     
           2   8.0516819682019065     
           3 -0.29617831135730865     
Ionic Dipole on Cartesian axes
           1   5220.7307615604614     
           2   4333.8671907424050     
           3   5446.6758445586356     

     total cpu time spent up to now is     6021.2 secs

     total energy              =   -1796.74895815 Ry
     estimated scf accuracy    <       0.00000002 Ry

     iteration # 13     ecut=   100.00 Ry     beta= 0.70
     Davidson diagonalization with overlap
     ethr =  4.98E-12,  avg # of iterations =  6.6

     Expectation value of exp(iGx):   (4.13436203866736143E-002,1.54640326077738338E-002)   1.0000000000000000     
     Electronic Dipole per cell (Ry a.u.)   3.0358384444346047     
     Ionic Dipole per cell (Ry a.u.)   5220.7307615604614     

     Expectation value of exp(iGx):   (6.99285573245604121E-003,1.36093089443934286E-002)  0.86602540378443849     
     Electronic Dipole per cell (Ry a.u.)   8.0516510227180387     
     Ionic Dipole per cell (Ry a.u.)   4333.8671907424050     

     Expectation value of exp(iGx):  (7.41294082280841288E-002,-2.35645033720324228E-003)   1.0989361747729789     
     Electronic Dipole per cell (Ry a.u.) -0.29619624369381281     
     Ionic Dipole per cell (Ry a.u.)   5446.6758445586356     
Electronic Dipole on Cartesian axes
           1   3.0358384444346047     
           2   8.0516510227180387     
           3 -0.29619624369381281     
Ionic Dipole on Cartesian axes
           1   5220.7307615604614     
           2   4333.8671907424050     
           3   5446.6758445586356     

     total cpu time spent up to now is     6499.3 secs

     End of self-consistent calculation

          k = 0.0000 0.0000 0.0000 (107453 PWs)   bands (ev):

   -17.9839 -17.7255 -17.6495 -17.2941 -17.1771 -17.0415 -17.0115 -16.8722
   -16.7854 -16.6626 -16.5565 -16.4687 -16.3932 -16.2408 -16.2258 -16.1510
   -16.1155 -16.0755 -15.8980 -15.8558 -15.7866 -15.6885 -15.6311 -15.5782
   -15.5249 -15.4605 -15.3988 -15.3124 -15.2084 -15.1767 -15.0985 -15.0726
   -15.0493 -14.9913 -14.9290 -14.8710 -14.7960 -14.6273 -14.5848 -14.5086
   -14.4907 -14.3732 -14.2312 -14.2108 -14.0612 -13.6138 -13.1824 -12.9792
    -7.6817  -7.0201  -6.9081  -6.5641  -6.5192  -6.2948  -6.2238  -6.1220
    -5.9595  -5.5913  -5.4211  -5.3272  -5.2526  -5.0983  -5.0889  -4.6492
    -4.6263  -4.4663  -4.3758  -4.1911  -4.0906  -3.9724  -3.9610  -3.8696
    -3.7888  -3.6603  -3.6039  -3.4574  -3.4456  -3.3782  -3.3057  -3.2109
    -3.1679  -3.0954  -3.0740  -2.9992  -2.8918  -2.8199  -2.7037  -2.5940
    -2.5573  -2.4952  -2.3863  -2.2748  -2.1750  -2.0152  -1.9073  -1.7471
    -1.6945  -1.5357  -1.4671  -1.3984  -1.3865  -1.2717  -1.2021  -1.1573
    -1.1543  -1.0707  -1.0268  -1.0062  -0.9111  -0.8904  -0.8465  -0.8193
    -0.7765  -0.7332  -0.7091  -0.6538  -0.6333  -0.5274  -0.4853  -0.3920
    -0.3671  -0.3254  -0.2543  -0.2112  -0.1589  -0.1476  -0.0378  -0.0248
     0.0085   0.0265   0.0518   0.1012   0.1137   0.1691   0.2300   0.2406
     0.2518   0.2887   0.3389   0.3561   0.4276   0.4662   0.4757   0.5584
     0.5793   0.6161   0.6551   0.6750   0.7308   0.7596   0.8309   0.8509
     0.8895   0.9632   0.9735   1.0075   1.0303   1.0857   1.1272   1.1813
     1.1980   1.2298   1.2913   1.3399   1.3653   1.4365   1.4811   1.5105
     1.5735   1.6023   1.6286   1.6874   1.7087   1.7856   1.8212   1.8699
     1.9468   2.0206   2.0682   2.0842   2.1258   2.1692   2.2659   2.3181
     2.4639   2.6157   2.7650   2.8004   2.9025   2.9876   3.0345   3.1594
     7.4912   8.6186   8.8432   9.1668   9.5577   9.6513   9.6952  10.1122
    10.1950  10.2628  10.4388  10.4607  10.5693  10.6482  10.7455  10.7992
    10.8021  10.9041  10.9661  11.0115  11.0541  11.1615  11.1948  11.3526
    11.4374  11.5059  11.5511  11.6073

          k = 0.0000 0.0000 0.4550 (107410 PWs)   bands (ev):

   -17.9757 -17.7535 -17.6311 -17.3026 -17.1819 -17.0403 -16.9760 -16.8769
   -16.8136 -16.6328 -16.5663 -16.4788 -16.3529 -16.2480 -16.2233 -16.1633
   -16.1453 -16.0884 -15.9476 -15.8215 -15.7642 -15.6860 -15.6228 -15.5757
   -15.4967 -15.4812 -15.4224 -15.2686 -15.2311 -15.1958 -15.0972 -15.0546
   -15.0210 -14.9801 -14.9473 -14.8935 -14.7982 -14.6379 -14.5898 -14.5092
   -14.4828 -14.3678 -14.2280 -14.2119 -14.0593 -13.6171 -13.1828 -12.9793
    -7.5360  -7.2822  -6.8193  -6.7285  -6.4809  -6.3431  -6.1506  -5.9636
    -5.8975  -5.5679  -5.5113  -5.2894  -5.2143  -5.0431  -5.0035  -4.9191
    -4.6260  -4.5295  -4.2873  -4.1988  -4.1011  -4.0779  -3.9845  -3.8731
    -3.7080  -3.6232  -3.5436  -3.4832  -3.4453  -3.3598  -3.3231  -3.1822
    -3.1658  -3.1357  -3.0640  -2.9666  -2.9104  -2.7938  -2.6638  -2.6499
    -2.5992  -2.4749  -2.4169  -2.2272  -2.1574  -2.0345  -1.9031  -1.7591
    -1.6550  -1.6080  -1.4884  -1.4003  -1.3841  -1.2813  -1.2163  -1.1685
    -1.1123  -1.0447  -1.0031  -0.9866  -0.9556  -0.9135  -0.8750  -0.8260
    -0.8218  -0.7351  -0.7105  -0.6155  -0.5553  -0.5333  -0.4754  -0.4161
    -0.3928  -0.3142  -0.2990  -0.1907  -0.1281  -0.1016  -0.0520   0.0050
     0.0154   0.0355   0.0696   0.0830   0.1540   0.1661   0.1991   0.2540
     0.3018   0.3363   0.3756   0.3942   0.4097   0.4364   0.4598   0.5197
     0.5497   0.6202   0.6454   0.6799   0.6997   0.7160   0.7904   0.8563
     0.8766   0.9278   0.9447   0.9981   1.0557   1.1219   1.1323   1.1666
     1.2244   1.2791   1.3074   1.3248   1.3731   1.4190   1.4601   1.5021
     1.5256   1.5712   1.6554   1.6606   1.7290   1.7817   1.8251   1.8598
     1.9359   1.9917   2.0890   2.0926   2.1855   2.2003   2.2494   2.3743
     2.4554   2.5875   2.7525   2.8127   2.8933   2.9830   3.0282   3.1576
     7.8797   8.0568   8.8348   9.1944   9.5574   9.6568   9.7553  10.1551
    10.2680  10.3269  10.3951  10.4174  10.5070  10.6436  10.7220  10.7499
    10.8233  10.8852  10.9433  11.0243  11.1002  11.1672  11.2279  11.2512
    11.4341  11.4694  11.4987  11.6392

          k = 0.0000 0.5774 0.0000 (107384 PWs)   bands (ev):

   -17.9717 -17.7298 -17.6394 -17.3477 -17.1631 -17.0248 -16.9931 -16.8682
   -16.8318 -16.6762 -16.5649 -16.4334 -16.3481 -16.3012 -16.2095 -16.1636
   -16.1300 -16.0289 -15.8847 -15.8737 -15.7938 -15.6625 -15.6318 -15.5701
   -15.4947 -15.4910 -15.4123 -15.2867 -15.2584 -15.1995 -15.1401 -15.0298
   -14.9966 -14.9697 -14.8997 -14.8828 -14.8211 -14.6353 -14.5637 -14.5229
   -14.4943 -14.3833 -14.2429 -14.2216 -14.0623 -13.6152 -13.1808 -12.9809
    -7.4845  -7.1108  -6.8920  -6.8252  -6.4664  -6.3201  -6.1581  -5.9934
    -5.8961  -5.8201  -5.5273  -5.3970  -5.1965  -5.0869  -4.8909  -4.8126
    -4.5048  -4.4547  -4.3723  -4.2369  -4.0747  -4.0104  -3.8879  -3.7910
    -3.7541  -3.6460  -3.6276  -3.5233  -3.3785  -3.3711  -3.2874  -3.2455
    -3.1416  -3.1198  -3.0429  -2.9449  -2.9385  -2.8228  -2.7212  -2.6486
    -2.5394  -2.4640  -2.4323  -2.3059  -2.1697  -2.0158  -1.8681  -1.7808
    -1.6860  -1.5327  -1.4692  -1.4276  -1.4093  -1.3358  -1.1790  -1.1504
    -1.1372  -1.0777  -1.0401  -1.0113  -0.9581  -0.8830  -0.8563  -0.8108
    -0.7520  -0.7117  -0.6606  -0.5886  -0.5653  -0.5495  -0.4524  -0.4276
    -0.3593  -0.3464  -0.3053  -0.2507  -0.1761  -0.1427  -0.1045  -0.0677
     0.0139   0.0425   0.0611   0.1122   0.1322   0.1549   0.1964   0.2784
     0.3162   0.3236   0.3762   0.3824   0.4378   0.4571   0.4885   0.5325
     0.5599   0.5659   0.6434   0.6958   0.7154   0.7824   0.7990   0.8248
     0.8812   0.9491   0.9680   1.0005   1.0634   1.0973   1.1429   1.1598
     1.2289   1.2604   1.3112   1.3276   1.3498   1.4125   1.4646   1.5169
     1.5369   1.5841   1.6056   1.6703   1.7690   1.7951   1.8394   1.8519
     1.9330   1.9835   2.0444   2.0607   2.1817   2.2177   2.3035   2.3142
     2.4858   2.5866   2.7882   2.8098   2.8965   2.9584   3.0267   3.1586
     8.0199   8.4004   8.7454   9.1519   9.4025   9.5104   9.7403   9.9419
    10.1142  10.3044  10.3789  10.4849  10.5556  10.6233  10.7470  10.8015
    10.8817  10.9060  10.9928  11.1138  11.1396  11.1883  11.2259  11.2740
    11.3898  11.4994  11.5485  11.6110

          k = 0.0000 0.5774 0.4550 (107468 PWs)   bands (ev):

   -17.9681 -17.7354 -17.6397 -17.3438 -17.1624 -17.0505 -16.9985 -16.8701
   -16.8010 -16.6512 -16.5457 -16.4629 -16.3361 -16.2533 -16.2451 -16.1938
   -16.1677 -16.0289 -15.9401 -15.8085 -15.7794 -15.6667 -15.6255 -15.5711
   -15.5101 -15.4700 -15.3722 -15.3159 -15.2786 -15.1986 -15.1049 -15.0472
   -14.9983 -14.9762 -14.9049 -14.8917 -14.8114 -14.6353 -14.5750 -14.5182
   -14.4925 -14.3794 -14.2473 -14.2151 -14.0604 -13.6177 -13.1809 -12.9809
    -7.4358  -7.1103  -6.9464  -6.8407  -6.4984  -6.4115  -6.1579  -6.0390
    -5.7973  -5.6407  -5.4863  -5.2357  -5.1879  -5.0789  -5.0406  -5.0137
    -4.6144  -4.4547  -4.3113  -4.1402  -4.0503  -4.0268  -3.9755  -3.8566
    -3.7510  -3.6401  -3.5133  -3.4709  -3.3841  -3.3136  -3.2801  -3.2428
    -3.2314  -3.1378  -3.0674  -2.9829  -2.8915  -2.7736  -2.6881  -2.6764
    -2.5561  -2.5222  -2.4545  -2.1647  -2.1350  -2.0566  -1.9329  -1.8115
    -1.6032  -1.5653  -1.4781  -1.4532  -1.4135  -1.3072  -1.2252  -1.1682
    -1.1376  -1.0803  -1.0407  -0.9893  -0.9333  -0.8946  -0.8173  -0.7642
    -0.7350  -0.7103  -0.6897  -0.6414  -0.5814  -0.5344  -0.5076  -0.4624
    -0.3618  -0.2690  -0.2666  -0.2378  -0.1830  -0.1618  -0.0837  -0.0466
    -0.0220   0.0164   0.0539   0.1264   0.1347   0.1888   0.2242   0.2787
     0.2916   0.3426   0.3709   0.3971   0.4411   0.4635   0.4743   0.5186
     0.5630   0.5773   0.6144   0.6562   0.7008   0.7644   0.8249   0.8492
     0.8818   0.9157   0.9687   0.9968   1.0350   1.0907   1.1195   1.1810
     1.2261   1.2500   1.3207   1.3297   1.3810   1.4252   1.4931   1.5030
     1.5601   1.5831   1.6236   1.6461   1.7348   1.7878   1.8464   1.8670
     1.9302   1.9623   2.0447   2.1218   2.1689   2.2246   2.2614   2.3474
     2.4976   2.5542   2.8026   2.8246   2.8686   2.9512   3.0260   3.1693
     8.1782   8.5663   8.6475   8.9120   9.0333   9.6819   9.8331  10.0192
    10.1027  10.3072  10.3693  10.4188  10.5585  10.6382  10.6792  10.7432
    10.8568  10.8767  10.9821  11.1033  11.1756  11.1989  11.2605  11.3272
    11.4093  11.5659  11.5773  11.6090

          k = 0.5000 0.0000 0.0000 (107420 PWs)   bands (ev):

   -17.9767 -17.7250 -17.6479 -17.3028 -17.2128 -17.0453 -17.0131 -16.8733
   -16.7588 -16.6554 -16.4960 -16.4373 -16.4059 -16.3155 -16.1967 -16.1612
   -16.1341 -16.0791 -15.9012 -15.8612 -15.8117 -15.6928 -15.6404 -15.5406
   -15.5120 -15.4544 -15.4057 -15.2700 -15.2426 -15.1520 -15.1020 -15.0950
   -15.0225 -14.9958 -14.9297 -14.8752 -14.8012 -14.6277 -14.5802 -14.5153
   -14.4978 -14.3766 -14.2320 -14.2108 -14.0617 -13.6145 -13.1875 -12.9792
    -7.5746  -7.0036  -6.9668  -6.6866  -6.4786  -6.4340  -6.2346  -6.1126
    -5.7646  -5.6499  -5.4559  -5.3967  -5.0969  -5.0399  -4.8434  -4.7400
    -4.6516  -4.5129  -4.4609  -4.3008  -4.2596  -4.0272  -3.9527  -3.7991
    -3.7543  -3.6239  -3.5535  -3.4557  -3.4238  -3.3499  -3.2925  -3.2666
    -3.1724  -3.1418  -3.0180  -2.9880  -2.9131  -2.7936  -2.6614  -2.5741
    -2.5456  -2.4809  -2.4105  -2.2961  -2.1970  -2.1085  -1.8911  -1.7178
    -1.6475  -1.5565  -1.4703  -1.3901  -1.3638  -1.2555  -1.1949  -1.1563
    -1.1304  -1.0604  -1.0119  -0.9898  -0.9385  -0.9204  -0.8767  -0.8307
    -0.8103  -0.7621  -0.6923  -0.6364  -0.6138  -0.5615  -0.5092  -0.4444
    -0.3337  -0.2726  -0.2600  -0.2213  -0.1185  -0.1101  -0.0623  -0.0388
     0.0071   0.0381   0.1182   0.1326   0.1514   0.1826   0.1901   0.2032
     0.2501   0.3041   0.3526   0.3746   0.4119   0.4526   0.5224   0.5313
     0.5814   0.5987   0.6378   0.6665   0.6963   0.7386   0.8108   0.8447
     0.9018   0.9144   0.9851   1.0016   1.0500   1.0634   1.1127   1.1640
     1.2242   1.2450   1.3028   1.3390   1.3961   1.4319   1.4810   1.5170
     1.5468   1.5714   1.6710   1.6924   1.7373   1.7869   1.8114   1.8656
     1.9431   2.0092   2.0593   2.0985   2.1632   2.1913   2.2627   2.3594
     2.4647   2.6088   2.7693   2.7969   2.8833   2.9558   2.9907   3.1523
     7.8927   8.1855   8.8335   9.2063   9.4423   9.6878   9.8223  10.0447
    10.1377  10.1871  10.3715  10.4505  10.6393  10.6516  10.7025  10.8042
    10.8672  10.9141  10.9721  11.0015  11.1601  11.1799  11.2936  11.3755
    11.4349  11.4998  11.5157  11.5844

          k = 0.5000 0.0000 0.4550 (107560 PWs)   bands (ev):

   -17.9691 -17.7518 -17.6295 -17.3059 -17.2165 -17.0478 -17.0070 -16.8569
   -16.7731 -16.6345 -16.4934 -16.4825 -16.3580 -16.2689 -16.2260 -16.2018
   -16.1496 -16.0939 -15.9459 -15.8447 -15.7534 -15.6745 -15.6167 -15.5786
   -15.5093 -15.4444 -15.4351 -15.2803 -15.2172 -15.1719 -15.0831 -15.0650
   -15.0370 -14.9780 -14.9400 -14.8952 -14.7995 -14.6489 -14.5794 -14.5209
   -14.4941 -14.3646 -14.2281 -14.2107 -14.0594 -13.6181 -13.1876 -12.9792
    -7.4767  -7.2057  -6.8038  -6.7105  -6.6525  -6.4896  -6.2209  -5.9880
    -5.7175  -5.4941  -5.3523  -5.2897  -5.1727  -5.1122  -5.0337  -4.8925
    -4.6668  -4.5410  -4.4482  -4.2229  -4.0880  -4.0372  -3.9894  -3.8679
    -3.7108  -3.6869  -3.5596  -3.5175  -3.4049  -3.3408  -3.2491  -3.2185
    -3.1784  -3.0872  -3.0266  -2.9539  -2.8965  -2.7929  -2.6991  -2.5933
    -2.5771  -2.5043  -2.4770  -2.2624  -2.1639  -2.0310  -1.9217  -1.7796
    -1.6591  -1.5531  -1.4933  -1.3861  -1.3450  -1.2593  -1.2159  -1.1631
    -1.0944  -1.0343  -1.0021  -0.9672  -0.9366  -0.9219  -0.9089  -0.8221
    -0.8145  -0.7437  -0.6932  -0.6724  -0.5725  -0.5332  -0.4944  -0.4217
    -0.3618  -0.2940  -0.2871  -0.1971  -0.1469  -0.0861  -0.0635  -0.0277
    -0.0025   0.0115   0.0655   0.1267   0.1400   0.1921   0.2094   0.2311
     0.2869   0.3582   0.3694   0.3828   0.4320   0.4671   0.5069   0.5466
     0.5710   0.6105   0.6203   0.6339   0.6468   0.7450   0.7946   0.8086
     0.8760   0.8970   0.9460   0.9869   1.0550   1.0713   1.1077   1.2219
     1.2405   1.2991   1.3096   1.3241   1.3959   1.4493   1.4632   1.4931
     1.5155   1.5485   1.6590   1.6822   1.7366   1.7976   1.8673   1.8891
     1.9727   2.0142   2.0456   2.0977   2.1299   2.1761   2.2686   2.3778
     2.4588   2.5908   2.7544   2.8236   2.8718   2.9644   2.9907   3.1560
     8.0919   8.3569   8.5506   8.7826   9.5953   9.6754   9.8008  10.0111
    10.1468  10.2397  10.4084  10.5340  10.5691  10.7628  10.8024  10.8261
    10.8679  10.9766  10.9865  11.0615  11.1057  11.1724  11.2184  11.2747
    11.3499  11.4320  11.5338  11.5956

          k = 0.5000 0.5774 0.0000 (107556 PWs)   bands (ev):

   -17.9652 -17.7293 -17.6378 -17.3448 -17.1957 -17.0585 -17.0050 -16.8474
   -16.8010 -16.6392 -16.5497 -16.4457 -16.3440 -16.3140 -16.1965 -16.1657
   -16.1295 -16.0719 -15.9134 -15.8479 -15.7904 -15.6751 -15.6260 -15.5535
   -15.4943 -15.4818 -15.4085 -15.3050 -15.2229 -15.1785 -15.1642 -15.0424
   -14.9951 -14.9600 -14.9068 -14.8813 -14.8204 -14.6273 -14.5920 -14.5203
   -14.4948 -14.3826 -14.2424 -14.2215 -14.0613 -13.6158 -13.1855 -12.9808
    -7.4234  -7.0640  -6.8713  -6.8021  -6.5454  -6.3818  -6.2905  -6.1477
    -5.8946  -5.6160  -5.4674  -5.3157  -5.1171  -4.9787  -4.9343  -4.7945
    -4.6278  -4.5802  -4.4557  -4.1973  -4.1472  -3.9626  -3.8883  -3.7773
    -3.7313  -3.6940  -3.6221  -3.4582  -3.4132  -3.3455  -3.3298  -3.2694
    -3.1352  -3.1026  -3.0196  -2.9537  -2.8938  -2.8351  -2.6905  -2.5548
    -2.5352  -2.4801  -2.4498  -2.3278  -2.1672  -2.0997  -1.8869  -1.7436
    -1.6722  -1.5474  -1.4868  -1.4030  -1.3423  -1.3186  -1.2533  -1.1869
    -1.1016  -1.0638  -1.0600  -1.0294  -0.9641  -0.9181  -0.8608  -0.7742
    -0.7570  -0.7052  -0.6134  -0.5985  -0.5687  -0.5112  -0.4886  -0.3876
    -0.3627  -0.3345  -0.2790  -0.2478  -0.1837  -0.1716  -0.1137  -0.0691
     0.0046   0.0313   0.0422   0.1194   0.1372   0.1609   0.1978   0.2390
     0.2948   0.3232   0.3582   0.3689   0.4250   0.4647   0.5229   0.5732
     0.5812   0.6058   0.6173   0.6785   0.7433   0.7554   0.8103   0.8349
     0.9032   0.9295   1.0058   1.0251   1.0482   1.0906   1.1049   1.1616
     1.2029   1.2719   1.3005   1.3191   1.3504   1.3819   1.4674   1.4753
     1.5386   1.5837   1.6656   1.7306   1.7704   1.7845   1.8248   1.8364
     1.8687   2.0369   2.0490   2.1024   2.1574   2.2722   2.2913   2.3565
     2.4868   2.5701   2.7915   2.8015   2.8741   2.9408   2.9793   3.1523
     8.2527   8.4690   8.6449   9.1948   9.3163   9.4785   9.5910   9.8054
    10.1805  10.2422  10.3904  10.4402  10.5557  10.5849  10.7803  10.8170
    10.8740  10.9200  11.0376  11.1014  11.1216  11.1571  11.2188  11.3228
    11.4434  11.4783  11.5503  11.6604

          k = 0.5000 0.5774 0.4550 (107528 PWs)   bands (ev):

   -17.9619 -17.7346 -17.6379 -17.3424 -17.1873 -17.0578 -17.0435 -16.8443
   -16.7710 -16.6296 -16.4981 -16.4818 -16.3610 -16.3016 -16.2182 -16.1696
   -16.1597 -16.0674 -15.9154 -15.8401 -15.7662 -15.6777 -15.5935 -15.5884
   -15.5112 -15.4603 -15.3961 -15.3084 -15.2392 -15.1984 -15.1163 -15.0465
   -15.0037 -14.9745 -14.9013 -14.8940 -14.8114 -14.6331 -14.5873 -14.5265
   -14.4965 -14.3739 -14.2472 -14.2136 -14.0592 -13.6185 -13.1854 -12.9808
    -7.4047  -7.0728  -6.9065  -6.7892  -6.5075  -6.4596  -6.4003  -6.0551
    -5.7395  -5.5473  -5.3617  -5.2703  -5.1865  -5.1833  -5.0609  -4.9041
    -4.5879  -4.4500  -4.3871  -4.2584  -4.0983  -3.9692  -3.9235  -3.8202
    -3.7954  -3.6322  -3.5705  -3.4730  -3.4583  -3.3555  -3.2772  -3.2047
    -3.1660  -3.0637  -3.0331  -2.9611  -2.8598  -2.7932  -2.6767  -2.6669
    -2.5824  -2.5372  -2.4584  -2.1663  -2.1350  -2.1242  -1.9345  -1.8063
    -1.5667  -1.5339  -1.4951  -1.4287  -1.4074  -1.2840  -1.2489  -1.1889
    -1.0836  -1.0733  -1.0251  -1.0067  -0.9226  -0.9061  -0.8656  -0.8088
    -0.7779  -0.6961  -0.6757  -0.5938  -0.5756  -0.5250  -0.4937  -0.4302
    -0.3817  -0.3128  -0.2638  -0.2168  -0.2115  -0.1591  -0.1218  -0.0649
    -0.0266   0.0187   0.0668   0.0919   0.1244   0.1810   0.2495   0.2643
     0.3030   0.3508   0.3803   0.3948   0.4349   0.4390   0.4974   0.5419
     0.5718   0.6457   0.6479   0.6737   0.6922   0.7361   0.7822   0.8027
     0.8414   0.9273   1.0037   1.0272   1.0395   1.1048   1.1533   1.1766
     1.2081   1.2689   1.2773   1.3292   1.3369   1.4394   1.4931   1.5072
     1.5705   1.6120   1.6484   1.6618   1.6984   1.7964   1.8472   1.9012
     1.9251   2.0121   2.0657   2.0887   2.1411   2.2102   2.2619   2.3497
     2.5022   2.5515   2.8036   2.8330   2.8545   2.9277   2.9958   3.1631
     8.3037   8.6003   8.7650   8.9926   9.1632   9.3180   9.6317   9.8292
    10.0380  10.1438  10.3599  10.5376  10.6347  10.6547  10.7271  10.8387
    10.8974  10.9747  11.0324  11.1038  11.1302  11.2205  11.2516  11.3134
    11.4194  11.5132  11.5521  11.6339

     highest occupied, lowest unoccupied level (ev):     3.1693    7.4912

!    total energy              =   -1796.74895815 Ry
     estimated scf accuracy    <          1.8E-09 Ry

     The total energy is the sum of the following terms:
     one-electron contribution =    -908.16241267 Ry
     hartree contribution      =     658.74911934 Ry
     xc contribution           =    -486.18454441 Ry
     ewald contribution        =   -1061.15112041 Ry

     convergence has been achieved in  13 iterations

     Forces acting on atoms (cartesian axes, Ry/au):

     atom    1 type  1   force =     0.06018203   -0.06800576    0.18978105
     atom    2 type  1   force =     0.04094642    0.10634105   -0.13886254
     atom    3 type  1   force =    -0.02956212    0.29855774   -0.26003113
     atom    4 type  2   force =     0.00748248    0.05826242    0.06212387
     atom    5 type  2   force =    -0.06516757    0.04955307   -0.05045810
     atom    6 type  2   force =    -0.07190474   -0.09484524    0.08669117
     atom    7 type  2   force =     0.00156480   -0.08129570   -0.04194959
     atom    8 type  2   force =     0.00514117    0.02273181   -0.00748497
     atom    9 type  2   force =    -0.05036146   -0.02493197    0.03342229
     atom   10 type  1   force =     0.04687696    0.02755636    0.02634258
     atom   11 type  1   force =     0.14023330    0.02125872    0.02286642
     atom   12 type  1   force =     0.04344980   -0.18301566   -0.09130747
     atom   13 type  2   force =    -0.01755261    0.02228742    0.02785500
     atom   14 type  2   force =     0.03960090   -0.04222432    0.04400737
     atom   15 type  2   force =     0.08784957   -0.02237565   -0.03560657
     atom   16 type  2   force =    -0.11873974    0.18754774    0.06911179
     atom   17 type  2   force =    -0.13518426   -0.03099612   -0.09486588
     atom   18 type  2   force =     0.01621384    0.05208050    0.04338138
     atom   19 type  1   force =     0.21084358   -0.03118059    0.00836250
     atom   20 type  1   force =     0.15826897   -0.00689387    0.00141598
     atom   21 type  2   force =     0.09745247   -0.06053107    0.03608067
     atom   22 type  2   force =    -0.08389993    0.09347399    0.06721226
     atom   23 type  2   force =    -0.21399812   -0.00733164   -0.17085111
     atom   24 type  2   force =     0.08458480    0.13077002   -0.06539861
     atom   25 type  1   force =    -0.11162525    0.20839306    0.11274720
     atom   26 type  1   force =     0.04348423   -0.16553014   -0.11330303
     atom   27 type  2   force =     0.15713202   -0.16617313    0.12817815
     atom   28 type  2   force =    -0.05316642   -0.03510900    0.00811741
     atom   29 type  2   force =    -0.10956136    0.02308175   -0.10538051
     atom   30 type  2   force =    -0.06650362   -0.11241715    0.08741322
     atom   31 type  1   force =     0.08714091    0.00610282    0.16008310
     atom   32 type  1   force =    -0.26502389   -0.03286568   -0.11929609
     atom   33 type  1   force =    -0.09969363   -0.00316166    0.00238642
     atom   34 type  2   force =    -0.01949523   -0.02606574    0.01300012
     atom   35 type  2   force =     0.13028405   -0.13417445    0.15672547
     atom   36 type  2   force =     0.10382091    0.07594088   -0.04529187
     atom   37 type  2   force =    -0.03428265    0.08602777    0.00446315
     atom   38 type  2   force =     0.00687530    0.05865514   -0.01295039
     atom   39 type  2   force =     0.10504305    0.12049572   -0.14210231
     atom   40 type  1   force =    -0.02757542   -0.19976470    0.00626691
     atom   41 type  1   force =     0.10895419   -0.10073822   -0.06465233
     atom   42 type  1   force =    -0.19657565   -0.10607969   -0.02638797
     atom   43 type  2   force =     0.00516768   -0.06080508   -0.05626201
     atom   44 type  2   force =     0.24542301   -0.17108442    0.20275954
     atom   45 type  2   force =    -0.00027113    0.01280622    0.03801319
     atom   46 type  2   force =    -0.07202409    0.11712236    0.07479796
     atom   47 type  2   force =    -0.24129349    0.11269509   -0.16245933
     atom   48 type  2   force =     0.00682906   -0.10677422    0.02721713
     atom   49 type  1   force =     0.08478790   -0.04171275    0.07279209
     atom   50 type  1   force =     0.16676605   -0.07975277    0.02500116
     atom   51 type  1   force =    -0.18828935    0.19819526   -0.03981750
     atom   52 type  2   force =    -0.02751335    0.03703593    0.01578455
     atom   53 type  2   force =     0.12089454   -0.09675268    0.17652141
     atom   54 type  2   force =    -0.01364100   -0.03792562   -0.00737007
     atom   55 type  2   force =    -0.03948953   -0.05268502   -0.00008205
     atom   56 type  2   force =    -0.01458297    0.04854152   -0.02374876
     atom   57 type  2   force =     0.05187475   -0.03142668   -0.00043685
     atom   58 type  1   force =     0.20735441   -0.01429656   -0.09142889
     atom   59 type  1   force =    -0.12053871   -0.04278113    0.12651034
     atom   60 type  1   force =    -0.29204834    0.17740133   -0.13618643
     atom   61 type  2   force =     0.05700098    0.04349489    0.06338783
     atom   62 type  2   force =    -0.04027621    0.05680216   -0.07233755
     atom   63 type  2   force =    -0.00396699    0.07046324   -0.05751586
     atom   64 type  2   force =     0.03151302   -0.10593226   -0.05947059
     atom   65 type  2   force =     0.03185264    0.07591119    0.05939991
     atom   66 type  2   force =     0.06890578    0.01738967   -0.05875936
     atom   67 type  1   force =    -0.19250601    0.02865255    0.07167947
     atom   68 type  2   force =     0.00405905   -0.00460868   -0.02609971
     atom   69 type  2   force =     0.05438291   -0.09188020   -0.02894698
     atom   70 type  1   force =     0.01206447   -0.08954733   -0.02843282
     atom   71 type  2   force =     0.07455730    0.11826971    0.07122980
     atom   72 type  2   force =     0.00945554   -0.00022654    0.01240533

     Total force =     1.456557     Total SCF correction =     0.000052


     Computing stress (Cartesian axis) and pressure

          total   stress  (Ry/bohr**3)                   (kbar)     P=       93.54
   0.00072271  -0.00018535   0.00017061          106.31      -27.27       25.10
  -0.00018535   0.00045628  -0.00019257          -27.27       67.12      -28.33
   0.00017061  -0.00019257   0.00072855           25.10      -28.33      107.17


     Writing all to output data dir /n/holyscratch01/kozinsky_lab/sfalletta/QE/SiO2/SiO2-T600-E0-0/SiO2.save/

     init_run     :      7.08s CPU      7.45s WALL (       1 calls)
     electrons    :   6020.49s CPU   6491.72s WALL (       1 calls)
     forces       :      3.11s CPU      3.14s WALL (       1 calls)
     stress       :     58.08s CPU     58.74s WALL (       1 calls)

     Called by init_run:
     wfcinit      :      4.65s CPU      4.78s WALL (       1 calls)
     potinit      :      0.32s CPU      0.36s WALL (       1 calls)
     hinit0       :      0.30s CPU      0.36s WALL (       1 calls)

     Called by electrons:
     c_bands      :    152.84s CPU    154.38s WALL (      13 calls)
     sum_band     :      7.64s CPU      7.88s WALL (      13 calls)
     v_of_rho     :      0.47s CPU      0.51s WALL (      14 calls)
     mix_rho      :      0.06s CPU      0.07s WALL (      13 calls)

     Called by c_bands:
     init_us_2    :      1.80s CPU      1.84s WALL (     232 calls)
     init_us_2:cp :      1.80s CPU      1.84s WALL (     232 calls)
     cegterg      :    148.79s CPU    150.08s WALL (     104 calls)

     Called by *egterg:
     cdiaghg      :     33.56s CPU     33.81s WALL (    1156 calls)
     h_psi        :     81.15s CPU     81.96s WALL (    1164 calls)
     g_psi        :      0.23s CPU      0.24s WALL (    1052 calls)

     Called by h_psi:
     h_psi:calbec :     22.82s CPU     22.99s WALL (    1164 calls)
     vloc_psi     :     41.74s CPU     42.23s WALL (    1164 calls)
     add_vuspsi   :     16.04s CPU     16.18s WALL (    1164 calls)

     General routines
     calbec       :     26.95s CPU     27.15s WALL (    1204 calls)
     fft          :      0.31s CPU      0.39s WALL (     190 calls)
     ffts         :      0.02s CPU      0.02s WALL (      27 calls)
     fftw         :     42.76s CPU     43.40s WALL (  167090 calls)
     interpolate  :      0.03s CPU      0.04s WALL (      14 calls)

     Parallel routines

     Electric-field routines
     c_phase_fiel :   5859.26s CPU   6328.50s WALL (      39 calls)

     PWSCF        :      1h41m CPU      1h49m WALL


   This run was terminated on:  12:34:32   1Feb2024            

=------------------------------------------------------------------------------=
   JOB DONE.
=------------------------------------------------------------------------------=
