1080
Lattice="23.796506742820853 0.0 0.0 0.0 23.796506742820853 0.0 0.0 0.0 25.824151761259785" Properties=species:S:1:pos:R:3:c_borncharges[1]:R:1:c_borncharges[2]:R:1:c_borncharges[3]:R:1:c_borncharges[4]:R:1:c_borncharges[5]:R:1:c_borncharges[6]:R:1:c_borncharges[7]:R:1:c_borncharges[8]:R:1:c_borncharges[9]:R:1:forces:R:3 energy=0.0 pbc="T T T"
Ba       1.95187000       1.80750000       0.20768200       2.20930000       0.04679230      -0.16550100       0.11162700       2.00253000      -0.15808100      -0.24091300      -0.08582950       2.54963000       0.23893500       0.63416000      -0.66715900
Ba       2.02568000       2.05096000       4.19920000       2.53803000      -0.05715870       0.09552270      -0.06919000       2.72990000       0.13545700      -0.05528270       0.07045930       2.58905000      -0.22250900      -0.63072900       0.29944300
Ba       1.87098000       2.01097000       8.65652000       2.45345000      -0.05399110      -0.31862300       0.01926940       2.62329000      -0.14953100      -0.09963070      -0.06698020       2.66355000       0.46247400      -0.04262630       0.01379970
Ba       1.95080000       5.85936000      -0.02120190       1.96483000       0.10684400      -0.10067500       0.15455100       2.24131000      -0.25329400      -0.02769680      -0.22642400       2.25365000       0.44630400       0.00088479       0.15468800
Ba       2.04421000       5.95542000       4.43037000       2.58041000      -0.00876507       0.02528520       0.06817760       2.63102000       0.24158300      -0.05176620       0.01009120       2.62359000       0.10244200       0.11478200       0.01128670
Ba       2.05433000       6.06374000       8.50155000       2.41546000       0.07652740      -0.25355600       0.10310800       2.58167000      -0.03619360      -0.19272100      -0.03054060       2.51061000      -0.13785000      -0.53365500       0.26838200
Ba       1.99439000       9.96641000      25.80370000       2.57580000       0.08046530      -0.05864590      -0.02988500       2.48488000      -0.20507300       0.03442910      -0.16953300       2.71185000       0.19702900      -0.31124800       0.04208720
Ba       2.06156000       9.86218000       4.23017000       2.53191000       0.10124100       0.08727890       0.01257920       2.75814000       0.16786300      -0.12248500       0.23248100       2.69755000      -0.32134300       0.02090340       0.40718300
Ba       1.93534000       9.96841000       8.62578000       2.63565000      -0.04811060      -0.06870580       0.01938560       2.57124000       0.09786820      -0.02857920       0.14470400       2.72315000       0.29795100      -0.02332070      -0.06253870
Ba       5.89556000       1.91869000      -0.06025980       2.30751000       0.00971720      -0.09004080       0.17686700       2.16455000      -0.18943400      -0.26564400      -0.15480000       2.28578000       0.19188200       0.45680200       0.56441000
Ba       5.98750000       1.86089000       4.42625000       2.60817000      -0.06225500       0.02465490      -0.07752640       2.42246000      -0.09927880       0.00295145      -0.01330710       2.48532000       0.00656320       0.51249800      -0.44878400
Ba       5.98598000       1.90777000       8.56386000       2.43234000      -0.37849300      -0.24752700      -0.26710600       2.32446000       0.07662280      -0.16785700      -0.06151480       2.41202000      -0.17913000       0.80246300       0.56080900
Ba       5.88769000       5.96711000       0.15181700       1.87680000      -0.14199100      -0.23488800      -0.07841060       1.97885000       0.00276844      -0.25311400       0.05283790       2.17315000       0.44767000      -0.45126000      -0.82339400
Ba       5.89404000       5.93830000       4.42788000       2.31968000       0.13230100       0.00615692       0.11104400       2.36870000       0.18618400      -0.10016400       0.21146800       2.41754000       0.22745000       0.10996200      -0.00832061
Ba       5.98575000       6.04481000       8.71111000       2.22408000      -0.10881300      -0.04152400      -0.18323100       2.32506000      -0.16508600      -0.05889950      -0.20988000       2.29638000      -0.43917200      -0.47527600      -0.22640400
Ba       6.00446000       9.88763000       0.01022190       2.25238000       0.08844280       0.10165200       0.17097400       1.94876000      -0.19709500       0.18144500      -0.20412700       2.45378000      -0.17100200      -0.07301340      -0.12575400
Ba       5.96538000      10.04390000       4.25977000       2.57566000       0.02260660       0.20192000      -0.02722880       2.46081000      -0.08972680       0.09375390       0.00651614       2.57159000       0.17501800      -0.79444200       0.53157900
Ba       5.85479000       9.98166000       8.55186000       2.38318000       0.04122130      -0.11827100       0.09463480       2.56855000      -0.06213020      -0.07449590       0.01585060       2.60125000       0.78140100       0.00162137       0.76465200
Ba       9.82891000       2.00005000       0.00374186       2.19789000       0.05723520       0.06925420      -0.01883080       2.37354000      -0.19952200       0.25809900      -0.17018300       2.54033000       0.11157000       0.08746760       0.25585500
Ba       9.87109000       1.92528000       4.41856000       2.73081000      -0.03525250       0.05076880      -0.06867020       2.60718000      -0.02024700       0.03735970       0.14317500       2.67681000       0.04351380       0.79121100      -0.38494900
Ba       9.99516000       1.99773000       8.73753000       2.56768000       0.10217300       0.16254000      -0.05076180       2.46981000      -0.20296300       0.09745980      -0.18226100       2.67832000      -0.47389400       0.11873200      -0.33241500
Ba       9.93723000       5.97713000      -0.07441900       2.14194000      -0.04051790       0.06075060       0.00237180       2.05996000       0.09122760       0.14066600       0.10554900       2.28542000       0.03090880      -0.33659500       0.31774600
Ba       9.91113000       5.87981000       4.38394000       2.29651000       0.02746070      -0.00492936       0.05248490       2.53399000       0.05873940      -0.07792470       0.09478290       2.38035000       0.38346600       0.24439700      -0.10682900
Ba       9.77085000       6.04731000       8.53874000       2.42759000       0.13853400       0.04442340       0.05400930       2.52085000      -0.05291080       0.06561080       0.00791769       2.44069000       0.80261100      -0.10458500       0.28727300
Ba       9.93836000       9.93851000       0.04221920       2.34457000      -0.06890800      -0.06243700      -0.15340400       2.32506000       0.06856300      -0.08860570       0.09162650       2.78746000       0.06419840      -0.47806500      -0.19737600
Ba       9.80157000       9.91878000       4.33492000       2.42967000      -0.16111600      -0.00186772      -0.14861200       2.45497000      -0.19533800       0.05604660      -0.03729170       2.58761000       1.27853000      -0.21424500       0.22809400
Ba       9.87297000       9.94213000       8.70377000       2.50306000      -0.19070700       0.04870950      -0.05229120       2.44635000       0.07604820       0.06205950       0.09294870       2.59162000       0.32985100       0.12967800      -0.31585900
Ti      -0.11315700      23.75240000       2.33944000       3.93250000       0.18818200       0.26951700       0.22091400       5.32195000      -0.13828900       0.33015000      -0.26255000       2.59918000       0.18605000      -0.01399530      -0.11425000
Ti      23.68310000      23.76690000       6.73270000       1.75234000      -0.04070990       0.14300900      -0.02491100       1.86307000       0.11822400       0.27827300       0.18667100       1.96036000      -0.47400300      -0.00802774      -0.79932200
Ti      23.80430000       0.10247800      10.93260000       3.60812000      -0.09899270      -0.23750700      -0.25820200       3.94480000      -0.35036500      -0.45701700      -0.51446000       3.83068000      -0.65948400      -0.98746900       0.45640700
Ti      -0.00105360       4.01412000       2.40028000       6.07413000       0.06688330      -0.02725940      -0.23438400       5.61558000      -0.24793900      -0.17805600      -0.34039700       2.85568000      -0.13932100      -0.94534800       0.17217600
Ti      23.72160000       3.91398000       6.59923000       3.93608000      -0.21007800       0.35891200      -0.17036200       3.49827000       0.19344900       0.40653600       0.10055500       3.09507000      -0.65188300       0.45754400      -0.50494600
Ti       0.03107020       4.09028000      10.75430000       6.04042000      -0.20260600      -0.28121900      -0.27171600       5.33496000      -0.40423600      -0.37034000      -0.52291000       4.69925000      -0.88620000       0.25697100       0.98105000
Ti       0.24204100       7.90293000       2.19207000       5.47925000      -0.04667650      -0.70860600       0.06733150       5.38039000      -0.20777300      -0.79601800      -0.39308300       4.35192000      -1.12803000       0.85168600      -0.23013500
Ti       0.07750960       8.00113000       6.67195000       4.06230000      -0.05624900      -0.23568300       0.02662670       5.07707000      -0.37546900      -0.17987300      -0.14347500       2.61561000      -0.02197100      -0.75234200      -0.14269300
Ti       0.02473060       8.00945000      10.91910000       5.94554000      -0.59558000      -0.16316700      -0.22654500       6.00104000      -0.36281200      -0.33944900      -0.54431800       4.38628000      -0.67397500      -1.01147000      -0.35992700
Ti       3.99938000      23.78870000       2.33474000       5.99591000       0.07667300      -0.24579600       0.06045180       6.28175000      -0.05818180      -0.14735300      -0.36470800       4.05889000      -0.51033500       0.58094200       0.64579600
Ti       3.84952000      23.79370000       6.69500000       2.02615000      -0.03050860       0.33562900       0.01874460       3.69759000       0.28303400       0.44932100       0.25684700       2.54932000      -0.02512010      -2.03295000      -0.16008800
Ti       4.05735000       0.01835020      10.89300000       5.19913000      -0.12520300      -0.40941000      -0.21488700       5.84544000      -0.10076200      -0.58695000      -0.15425100       4.45199000       0.12653800       0.93209500      -1.23741000
Ti       4.06637000       4.06010000       2.30750000       6.28530000       0.05235220      -0.26641800      -0.12433400       5.96422000      -0.20192800      -0.27304300      -0.41148800       4.59079000       0.10930900      -0.78999500       0.23747200
Ti       3.88736000       3.82703000       6.63058000       4.24808000      -0.01397330       0.43694300      -0.08691310       5.55073000       0.20098900       0.54604300       0.31828100       4.16402000       0.60989000       1.48522000       0.37555600
Ti       3.97196000       4.05289000      10.88800000       5.97315000      -0.34773300      -0.00365729      -0.31250200       6.56822000      -0.05033230      -0.32237800      -0.12212700       4.41002000       1.14108000      -0.38657200       0.80720500
Ti       4.11090000       7.98909000       2.18054000       5.80381000      -0.12968200      -0.34452400      -0.11328800       6.18955000      -0.30540200      -0.40540700      -0.44762000       4.73585000      -0.44492700       0.27548700       1.08218000
Ti       4.09864000       8.05488000       6.71532000       4.04977000      -0.03360800      -0.36205300      -0.04349270       4.56223000      -0.39495800      -0.38501400      -0.17405600       3.60958000      -1.09920000      -1.97401000       0.28711700
Ti       3.87358000       7.97268000      10.99960000       6.04609000      -0.14794500      -0.18964100      -0.31396400       6.39481000      -0.35193700      -0.34536100      -0.47944900       4.56211000       1.09008000      -0.17106400      -0.92573900
Ti       7.92190000      -0.07301510       2.28962000       6.31792000       0.08291060       0.06901800      -0.21648000       6.28780000       0.26628400       0.14545600       0.32586300       4.36264000      -0.49393400       0.83217500       0.45569300
Ti       7.92723000      23.82520000       6.64818000       4.14743000      -0.06200560      -0.10676300       0.09999580       4.39818000       0.03494890       0.00552903      -0.03130950       3.08892000      -0.70955700      -0.60639500       0.44275200
Ti       7.95540000      23.88860000      10.82770000       5.76406000      -0.10692200      -0.03977230      -0.14721200       6.59656000      -0.00246972      -0.07477990       0.01543040       5.59076000       1.20417000       0.12689700       1.11568000
Ti       7.93779000       3.88578000       2.31375000       6.35986000       0.14444100       0.00634548       0.16879800       6.46557000       0.43990600      -0.05444760       0.53419500       4.45403000      -0.27087400      -0.50873000       0.42283300
Ti       7.93546000       4.04978000       6.61919000       5.99619000       0.16317500       0.35479600       0.26242200       6.20098000       0.10920000       0.47512800      -0.05137220       4.48994000      -0.61000200      -0.42626000      -0.15550100
Ti       7.93264000       4.01400000      10.97440000       6.29699000      -0.14897800       0.07193500      -0.14666100       6.87979000       0.06407840      -0.20732900       0.05384860       4.16763000      -0.79669600      -0.03227550       0.84709300
Ti       8.06876000       7.74355000       2.35853000       5.82934000       0.42020900      -0.30115000       0.25090300       5.55798000       0.30354700      -0.39628600       0.47611600       4.58191000      -0.44535600       0.37921900      -0.30078800
Ti       7.94827000       8.00982000       6.47310000       5.93976000      -0.15120300      -0.39066600      -0.10028200       4.80021000      -0.29939500      -0.38327400      -0.20836600       4.62317000       0.18075600       0.12972800       1.00241000
Ti       7.97228000       7.95427000      10.87100000       6.40223000      -0.11866300      -0.11188300       0.20534200       6.55613000      -0.25244800       0.02793050      -0.27658200       4.41436000      -1.24792000       0.37916800       1.49178000
O        0.05889860       1.97815000       2.00242000      -2.01778000       0.01579390       0.03329680      -0.02357830      -4.65121000      -0.09511090       0.09089650       0.04245430      -1.76506000      -0.41094100      -0.37959900       0.70300000
O        2.03035000      23.76480000       2.25094000      -4.75307000      -0.01816570      -0.12044000      -0.06522810      -2.07211000      -0.03124040      -0.21104800       0.04876150      -1.65810000      -0.25562600       0.01605280      -0.74124300
O       -0.03468340      23.76990000       4.13921000      -1.49830000      -0.17063200      -0.14092800      -0.19160100      -1.44367000       0.01154400      -0.10307700       0.02353960      -3.19025000      -0.13949300       0.12412900      -0.13311600
O       23.73290000       2.02097000       6.40464000      -1.55056000       0.14040700       0.03723610       0.03428330      -4.15149000      -0.07012650       0.01667630      -0.09750760      -1.50651000       0.34813100      -0.08445220       0.38307000
O        1.95528000       0.01255110       6.44259000      -3.42977000      -0.00263049      -0.00196335       0.02071280      -1.54666000      -0.16153600      -0.07732880      -0.19843100      -1.55031000       0.32146900       0.28803300       0.54822700
O       23.65100000       0.09691960       8.54878000      -1.44351000      -0.13097500      -0.12855700      -0.14069400      -1.61293000      -0.07975050      -0.05737180      -0.15916900      -3.71674000       0.25132200      -0.46937000       0.34794100
O       -0.11910900       1.90031000      10.77570000      -1.54198000       0.44790500      -0.24077700       0.16553000      -4.39660000       0.32671300      -0.20138600       0.39894500      -1.40603000      -0.02096540       0.12432800      -0.32195900
O        1.80361000      23.82240000      10.64200000      -3.64200000       0.08474880       0.15999300       0.08828140      -1.80400000       0.00722868       0.33720800       0.04512870      -1.63511000       0.74288000      -0.54092000       0.28339900
O       23.76550000      23.77510000      12.88180000      -1.20906000      -0.21837600       0.06579640      -0.20335200      -1.30681000       0.23038300       0.03274360       0.08077560      -3.28433000       0.34374800       0.14514300      -0.96562500
O       -0.06360940       5.81047000       2.03039000      -1.54632000      -0.22784900      -0.12152000      -0.21060100      -4.93203000       0.46141100      -0.08548280       0.57312900      -1.35249000       0.35707800       0.96077900       0.30722500
O        1.96596000       3.95762000       2.27334000      -5.09674000      -0.00844041       0.07106250       0.00739337      -1.95403000       0.03036130       0.21974100       0.04650710      -1.69445000      -0.20398400       0.01480260      -0.23896300
O       -0.02916740       3.97613000       4.35384000      -1.72070000      -0.21288300       0.01838720      -0.19976100      -1.50775000       0.14478400       0.04649650       0.07863190      -3.40526000       0.29185100      -0.09147030      -1.54051000
O        0.00031690       6.02088000       6.38960000      -1.48962000      -0.06421100       0.03232620      -0.14532700      -3.96384000      -0.19770100       0.02172350      -0.31339900      -1.43526000       0.42990600       0.32835800       0.28723500
O        2.00622000       3.91460000       6.49334000      -4.15076000       0.06620220      -0.09703540       0.19558000      -1.57630000       0.07388640      -0.44454800       0.04231540      -1.66998000       0.56548500       0.29414100      -0.16925200
O       23.74430000       3.94692000       8.47747000      -1.86691000       0.04551100      -0.19738100       0.04636350      -1.71815000      -0.14558200      -0.06153290      -0.07371450      -4.17488000      -0.05041810      -0.10231000       0.23275200
O       -0.19409300       5.93948000      10.63970000      -1.56808000       0.02773380      -0.29546800       0.14894100      -4.55528000       0.04622570      -0.26891500       0.27593700      -1.48949000       0.28909800      -0.89750200       0.25514900
O        1.87212000       4.00376000      10.52440000      -4.81826000       0.15288700       0.00721028       0.28924200      -1.80984000      -0.14695400       0.20276100      -0.12781000      -1.73812000       0.45962400      -0.07431210       0.38502400
O       -0.00960674       3.85439000      12.67970000      -1.54406000      -0.00768873      -0.00168086      -0.01396730      -1.54795000       0.24473800       0.08981090       0.26775500      -3.30555000       0.11280600       0.73986300      -0.79253800
O        0.11198100       9.92035000       2.01383000      -1.68227000       0.05561000       0.00624341       0.10688100      -3.92360000      -0.01833440       0.02078590       0.11101900      -1.82411000      -0.57998100      -0.57510800       0.58198500
O        2.01979000       7.92613000       1.97943000      -4.65337000      -0.08743270       0.28755000       0.04580060      -1.69398000      -0.07628850       0.52373500       0.01137330      -1.57151000       0.02924150      -0.53369900       0.00078287
O       23.89770000       7.85784000       4.00499000      -1.80174000      -0.00310634       0.37170300      -0.02878580      -1.65628000       0.25311800       0.22480500       0.08233100      -3.27625000       0.02426830       0.10771000       0.06564240
O       -0.11023800       9.90294000       6.31977000      -1.63788000       0.30114900      -0.17931800       0.23675300      -5.32037000       0.22973800      -0.20388000       0.15408900      -1.49740000       0.51627900       0.18971000       0.17971900
O        1.98999000       8.08898000       6.59995000      -4.80483000      -0.06691340       0.03485590      -0.02085130      -1.62925000      -0.15848300       0.22343200      -0.19913600      -1.52827000      -0.18353800      -0.11070500      -0.68193500
O        0.01089920       7.93039000       8.49409000      -1.67957000       0.17566600       0.26974000       0.14498000      -1.49880000       0.19758400       0.14006500       0.08885540      -3.54210000      -0.16094800       0.45449600      -0.03148600
O        0.03955220       9.80657000      10.80570000      -1.63090000       0.32916900      -0.16937700       0.02792450      -4.73915000       0.17576500      -0.08820590       0.42284800      -1.44694000      -0.40409500       1.48722000      -0.11900000
O        1.83592000       7.78889000      10.76870000      -4.94529000       0.25153600       0.01442590       0.29462200      -1.63682000      -0.18589000       0.24967100      -0.17791600      -1.46517000       0.95642700       0.02111840      -0.39210300
O       -0.01668950       7.77935000      12.73590000      -1.22528000      -0.17475300       0.16255900      -0.15830700      -1.23473000       0.22944800       0.01963970       0.24895400      -3.48499000      -0.47892500       0.67835000       0.85371900
O        4.02086000       1.88150000       2.09567000      -1.89984000      -0.16140800      -0.00017795      -0.03187630      -4.77068000       0.11744500       0.00613792       0.32382600      -1.71641000      -0.26430200       0.41266300       0.31539400
O        5.99680000      23.84450000       2.05435000      -5.33562000       0.03829750      -0.03017210      -0.04787210      -1.66947000       0.06815980      -0.09442210       0.08035330      -1.46088000      -0.20946500      -1.05528000       0.51615400
O        3.92988000      -0.04484620       4.19070000      -1.59735000      -0.22803200      -0.10540300      -0.23292200      -1.60203000       0.13173100       0.09160930       0.05607780      -3.29820000       0.72650700       0.16913700      -0.20421200
O        3.93725000       1.95153000       6.57395000      -1.38081000       0.13932100       0.21547600       0.03567440      -4.64393000      -0.00074032       0.20049600      -0.30338500      -1.43538000       0.38436800       0.18665500      -0.51944500
O        6.00788000      -0.02680830       6.46122000      -3.29590000      -0.06126210       0.01630440       0.09382410      -1.57103000      -0.12812400       0.00738273      -0.11477800      -1.57879000      -0.41117300       0.37159300       0.11192300
O        3.97748000      23.72520000       8.55245000      -1.58184000       0.13704800      -0.20533200       0.12623700      -1.64056000      -0.12058200      -0.18754700       0.04210430      -3.74877000      -0.38744300       0.27453400      -0.39212000
O        3.91606000       2.02704000      10.71210000      -1.81565000       0.14377900      -0.14738400       0.15703500      -4.94302000      -0.04891320      -0.05376750      -0.03149750      -1.68533000      -0.35915500      -0.91901500       0.00852965
O        5.90768000      23.84010000      10.73450000      -5.02993000      -0.03044400       0.20163600       0.35303700      -1.32370000      -0.15809600       0.45624200      -0.11959600      -1.04947000      -0.58793700      -0.25291400       0.27658900
O        3.82245000      -0.01354500      12.65560000      -1.36757000       0.02323140       0.44444400      -0.00016073      -1.44228000       0.20225900       0.28360600       0.00548686      -3.39053000       0.27063100      -0.48246500       0.64282800
O        3.92885000       5.93484000       2.11834000      -1.75464000       0.20354900       0.02424260       0.01346870      -5.10430000       0.24495500       0.07128330       0.32825200      -1.63024000       0.18963500      -0.13289700      -0.34742600
O        5.95104000       4.06864000       2.11383000      -5.17565000       0.05094180       0.08606320       0.24990900      -1.71291000       0.03738380       0.23229200       0.05943330      -1.60904000      -1.04932000       0.02216380      -0.07028760
O        4.08321000       3.96509000       4.17762000      -1.90153000      -0.07130520       0.06793210      -0.06553730      -1.91887000       0.13505000       0.04662700       0.13156400      -3.81132000      -0.46202400      -0.22730200       0.03075840
O        3.97898000       6.10950000       6.43425000      -1.66214000       0.00239700       0.20377600      -0.13408600      -3.57064000      -0.11798000       0.18038500      -0.07514600      -1.76968000      -0.25498200      -0.47876600      -0.13890800
O        6.06474000       4.03897000       6.39661000      -4.09175000      -0.09762930      -0.26588100      -0.14392200      -1.56711000       0.15837400      -0.43374600       0.15850700      -1.53178000      -0.40702800      -0.48153800       0.03093250
O        4.09139000       3.99024000       8.41995000      -1.52840000       0.15391000      -0.32422400       0.15205300      -1.66546000      -0.28154400      -0.21539500      -0.20394100      -3.63883000      -0.59283100      -0.08180170      -0.12982400
O        3.91296000       5.97738000      10.76110000      -1.68417000       0.06202130      -0.16823700       0.09095790      -5.27041000      -0.05024650      -0.12055900       0.13479600      -1.49637000      -0.24422200      -0.79055900      -0.11027700
O        5.85290000       3.98827000      10.72510000      -4.98492000       0.06915640       0.04570640      -0.12297700      -1.54153000       0.02216660       0.20579000       0.04078550      -1.25718000      -0.22087600      -0.03531820      -0.22620800
O        3.90527000       4.00583000      12.80350000      -1.64256000       0.22328600       0.18932900       0.21247300      -1.67600000       0.16298500       0.01208630       0.06960250      -3.74488000      -0.17401700      -0.27421100      -0.69661400
O        3.92144000       9.87030000       2.02360000      -1.72520000       0.20582900      -0.03728580       0.14128100      -4.94793000      -0.07335450      -0.04056140       0.15080000      -1.82316000       0.02083610       0.44856200       0.18110900
O        5.99612000       8.03204000       2.07490000      -4.79718000       0.13323800      -0.01782900       0.17951800      -1.44984000       0.06355870       0.11323000       0.06873200      -1.39104000       0.06216690      -0.49397000      -0.03026200
O        3.92208000       7.92799000       4.05314000      -1.74524000      -0.15312000       0.36355600      -0.14106300      -1.82157000       0.13012700       0.28367800       0.08578570      -3.44855000       0.36956100       0.26173100      -0.50212900
O        4.04960000       9.94903000       6.59473000      -1.57084000       0.19905000       0.18198500       0.14960500      -5.53832000       0.47264300       0.13444800       0.31552100      -1.48337000      -0.03143040      -0.53459200      -1.01794000
O        5.95158000       7.99078000       6.35997000      -4.55922000       0.03471710       0.18821600       0.20708200      -1.56276000      -0.06494070       0.01241050      -0.04160190      -1.71998000       0.42060400       0.10098500      -0.02354110
O        3.98900000       7.85113000       8.58848000      -1.97625000      -0.08256420       0.07189600      -0.08489910      -1.81814000       0.34324900       0.12516600       0.23994400      -3.46399000       0.19970200       0.87794300      -0.87726900
O        3.71632000       9.77669000      10.78820000      -1.87486000       0.38484900      -0.07899580       0.18200300      -4.81946000       0.37147900      -0.01799940       0.51908000      -1.69148000       0.05753420       0.98492400      -0.34655700
O        5.88013000       7.99560000      10.77420000      -4.85013000       0.06948760       0.15126900       0.11685900      -1.53514000      -0.01104550       0.11495600      -0.01938220      -1.44329000       0.22660100      -0.03395030       0.38200600
O        3.79862000       7.89058000      12.82390000      -1.65036000       0.21098700       0.20478200       0.22797500      -1.62068000       0.11367400       0.03752020       0.06318050      -3.89127000       0.54297300       0.25924400       0.50414300
O        7.68239000       2.04780000       2.19246000      -1.86803000      -0.14077300       0.00478899      -0.12644300      -5.04532000      -0.08087660      -0.00156346      -0.32084200      -1.64976000       0.89110200      -0.54252000      -0.30116300
O        9.84953000       0.16726500       2.00340000      -5.27713000      -0.05329190       0.04534050      -0.13505500      -1.71339000       0.14613400      -0.00581364       0.13750800      -1.55099000       0.04899280      -0.44026400       0.47700900
O        7.97014000       0.04891520       4.23950000      -1.78745000       0.00510850      -0.03713480       0.04368690      -1.93439000      -0.21266700      -0.02181960      -0.23314300      -3.31634000      -0.04744970      -0.69083300      -0.96739300
O        8.01814000       1.97532000       6.41020000      -1.83102000       0.00323724       0.05566860      -0.01241850      -4.10117000      -0.04180000       0.02539540      -0.09905840      -1.85406000      -0.23517100       0.00840853       0.44647300
O        9.89199000      23.75520000       6.51294000      -4.51917000      -0.00397556       0.21750700       0.06505620      -1.56127000       0.18967600       0.21090800       0.22339500      -1.52405000      -0.14285700       0.15787900      -0.24587200
O        7.84809000      23.84390000       8.67470000      -1.88759000       0.07653190       0.00175017       0.08569560      -2.01786000      -0.23281900      -0.04661840      -0.09456140      -4.40469000       0.50956600       0.02960020      -0.71233700