
     Program PWSCF v.7.1 starts on 25Jan2024 at  8: 7:41 

     This program is part of the open-source Quantum ESPRESSO suite
     for quantum simulation of materials; please cite
         "P. Giannozzi et al., J. Phys.:Condens. Matter 21 395502 (2009);
         "P. Giannozzi et al., J. Phys.:Condens. Matter 29 465901 (2017);
         "P. Giannozzi et al., J. Chem. Phys. 152 154105 (2020);
          URL http://www.quantum-espresso.org", 
     in publications or presentations arising from this work. More details at
     http://www.quantum-espresso.org/quote

     Parallel version (MPI), running on   112 processors

     MPI processes distributed on     1 nodes
     1008888 MiB available memory on the printing compute node when the environment starts

     Reading input from /n/holyscratch01/kozinsky_lab/sfalletta/QE/BaTiO3/BaTiO3-E0-0/BaTiO3-scf.inp

     Current dimensions of program PWSCF are:
     Max number of different atomic species (ntypx) = 10
     Max number of k-points (npk) =  40000
     Max angular momentum in pseudopotentials (lmaxx) =  4

     IMPORTANT: XC functional enforced from input :
     Exchange-correlation= PBE
                           (   1   4   3   4   0   0   0)
     Any further DFT definition will be discarded
     Please, verify this is what you really want


     R & G space division:  proc/nbgrp/npool/nimage =     112
     Subspace diagonalization in iterative solution of the eigenvalue problem:
     one sub-group per band group will be used
     scalapack distributed-memory algorithm (size of sub-group: 10* 10 procs)


     Parallelization info
     --------------------
     sticks:   dense  smooth     PW     G-vecs:    dense   smooth      PW
     Min         287     143     35                42083    14875    1853
     Max         288     144     36                42090    14884    1864
     Sum       32201   16101   4017              4713475  1666415  208381

     Using Slab Decomposition



     bravais-lattice index     =            8
     lattice parameter (alat)  =      22.4844  a.u.
     unit-cell volume          =   12335.5658 (a.u.)^3
     number of atoms/cell      =          135
     number of atomic types    =            3
     number of electrons       =      1080.00
     number of Kohn-Sham states=          550
     kinetic-energy cutoff     =     100.0000  Ry
     charge density cutoff     =     800.0000  Ry
     scf convergence threshold =      1.0E-08
     mixing beta               =       0.7000
     number of iterations used =            8  plain     mixing
     Exchange-correlation= PBE
                           (   1   4   3   4   0   0   0)

     Using Berry phase electric field
     In a.u.(Ry)  cartesian system of reference
        0.0000000000
        0.0000000000
        0.0000000000
     In a.u.(Ry)  crystal system of reference
        0.0000000000
        0.0000000000
        0.0000000000
     Number of iterative cycles:   1


     celldm(1)=  22.484440  celldm(2)=   1.000000  celldm(3)=   1.085208
     celldm(4)=   0.000000  celldm(5)=   0.000000  celldm(6)=   0.000000

     crystal axes: (cart. coord. in units of alat)
               a(1) = (   1.000000   0.000000   0.000000 )  
               a(2) = (   0.000000   1.000000   0.000000 )  
               a(3) = (   0.000000   0.000000   1.085208 )  

     reciprocal axes: (cart. coord. in units 2 pi/alat)
               b(1) = (  1.000000  0.000000  0.000000 )  
               b(2) = (  0.000000  1.000000  0.000000 )  
               b(3) = (  0.000000  0.000000  0.921483 )  


     PseudoPot. # 1 for Ba read from file:
     /n/holyscratch01/kozinsky_lab/sfalletta/QE/Inputs/Ba.upf
     MD5 check sum: d1993ebf099ea5c29fdb9ecc5bd2bc91
     Pseudo is Norm-conserving + core correction, Zval = 10.0
     Generated using ONCVPSP code by D. R. Hamann
     Using radial grid of 1958 points,  6 beta functions with: 
                l(1) =   0
                l(2) =   0
                l(3) =   1
                l(4) =   1
                l(5) =   2
                l(6) =   2

     PseudoPot. # 2 for Ti read from file:
     /n/holyscratch01/kozinsky_lab/sfalletta/QE/Inputs/Ti.upf
     MD5 check sum: 0b3868d933a8ea9356727c02a1b807de
     Pseudo is Norm-conserving + core correction, Zval = 12.0
     Generated using ONCVPSP code by D. R. Hamann
     Using radial grid of 1586 points,  6 beta functions with: 
                l(1) =   0
                l(2) =   0
                l(3) =   1
                l(4) =   1
                l(5) =   2
                l(6) =   2

     PseudoPot. # 3 for O  read from file:
     /n/holyscratch01/kozinsky_lab/sfalletta/QE/Inputs/O.upf
     MD5 check sum: e161f86cb4953fdc9aae83e76c3f29b8
     Pseudo is Norm-conserving + core correction, Zval =  6.0
     Generated using ONCVPSP code by D. R. Hamann
     Using radial grid of  936 points,  5 beta functions with: 
                l(1) =   0
                l(2) =   0
                l(3) =   1
                l(4) =   1
                l(5) =   2

     atomic species   valence    mass     pseudopotential
        Ba            10.00   137.32700     Ba( 1.00)
        Ti            12.00    47.90000     Ti( 1.00)
        O              6.00    15.99900     O ( 1.00)

     No symmetry found



   Cartesian axes

     site n.     atom                  positions (alat units)
         1           Ba  tau(   1) = (   0.1671100   0.1666366   0.0066311  )
         2           Ba  tau(   2) = (   0.1661381   0.1670119   0.3676971  )
         3           Ba  tau(   3) = (   0.1659578   0.1668603   0.7287679  )
         4           Ba  tau(   4) = (   0.1659012   0.4993308   0.0063206  )
         5           Ba  tau(   5) = (   0.1664560   0.4995451   0.3676626  )
         6           Ba  tau(   6) = (   0.1662392   0.5006403   0.7296442  )
         7           Ba  tau(   7) = (   0.1663484   0.8330388   0.0066455  )
         8           Ba  tau(   8) = (   0.1670837   0.8326971   0.3672552  )
         9           Ba  tau(   9) = (   0.1663140   0.8336942   0.7296110  )
        10           Ba  tau(  10) = (   0.4994594   0.1667972   0.0064742  )
        11           Ba  tau(  11) = (   0.4996638   0.1662977   0.3680782  )
        12           Ba  tau(  12) = (   0.4994775   0.1673545   0.7302039  )
        13           Ba  tau(  13) = (   0.4999590   0.5007581   0.0051661  )
        14           Ba  tau(  14) = (   0.4999213   0.4995552   0.3672442  )
        15           Ba  tau(  15) = (   0.5001697   0.5001384   0.7301216  )
        16           Ba  tau(  16) = (   0.5003124   0.8325296   0.0062827  )
        17           Ba  tau(  17) = (   0.4995536   0.8328925   0.3673754  )
        18           Ba  tau(  18) = (   0.4993503   0.8332585   0.7293004  )
        19           Ba  tau(  19) = (   0.8326000   0.1665611   0.0055600  )
        20           Ba  tau(  20) = (   0.8330152   0.1668609   0.3677644  )
        21           Ba  tau(  21) = (   0.8334447   0.1672913   0.7293456  )
        22           Ba  tau(  22) = (   0.8341135   0.5005527   0.0066809  )
        23           Ba  tau(  23) = (   0.8337037   0.4995026   0.3680627  )
        24           Ba  tau(  24) = (   0.8337396   0.5002605   0.7287913  )
        25           Ba  tau(  25) = (   0.8326523   0.8329781   0.0052388  )
        26           Ba  tau(  26) = (   0.8333698   0.8334970   0.3674128  )
        27           Ba  tau(  27) = (   0.8326296   0.8328897   0.7291536  )
        28           Ti  tau(  28) = (  -0.0002944  -0.0004341   0.1930358  )
        29           Ti  tau(  29) = (   0.0005339   0.0003599   0.5540189  )
        30           Ti  tau(  30) = (  -0.0006437  -0.0000752   0.9163041  )
        31           Ti  tau(  31) = (  -0.0001429   0.3325461   0.1930055  )
        32           Ti  tau(  32) = (   0.0005401   0.3332356   0.5542220  )
        33           Ti  tau(  33) = (  -0.0000310   0.3339478   0.9157437  )
        34           Ti  tau(  34) = (  -0.0003082   0.6669509   0.1919022  )
        35           Ti  tau(  35) = (   0.0004670   0.6665449   0.5540213  )
        36           Ti  tau(  36) = (  -0.0007861   0.6667452   0.9158596  )
        37           Ti  tau(  37) = (   0.3331564   0.0006305   0.1933256  )
        38           Ti  tau(  38) = (   0.3339072   0.0000636   0.5545303  )
        39           Ti  tau(  39) = (   0.3335423  -0.0003706   0.9155909  )
        40           Ti  tau(  40) = (   0.3326456   0.3337351   0.1927905  )
        41           Ti  tau(  41) = (   0.3327798   0.3341128   0.5552228  )
        42           Ti  tau(  42) = (   0.3329930   0.3333140   0.9161723  )
        43           Ti  tau(  43) = (   0.3327123   0.6658410   0.1934319  )
        44           Ti  tau(  44) = (   0.3327961   0.6660726   0.5540454  )
        45           Ti  tau(  45) = (   0.3330722   0.6660356   0.9161118  )
        46           Ti  tau(  46) = (   0.6665356   0.0006411   0.1927262  )
        47           Ti  tau(  47) = (   0.6659765  -0.0001386   0.5550344  )
        48           Ti  tau(  48) = (   0.6666418   0.0001201   0.9160040  )
        49           Ti  tau(  49) = (   0.6669289   0.3341030   0.1930877  )
        50           Ti  tau(  50) = (   0.6661130   0.3333293   0.5544685  )
        51           Ti  tau(  51) = (   0.6659645   0.3339459   0.9155774  )
        52           Ti  tau(  52) = (   0.6658367   0.6659632   0.1921498  )
        53           Ti  tau(  53) = (   0.6661177   0.6669611   0.5551561  )
        54           Ti  tau(  54) = (   0.6659414   0.6662498   0.9162308  )
        55           O   tau(  55) = (  -0.0007040   0.1672087   0.1717149  )
        56           O   tau(  56) = (   0.1670547   0.0000960   0.1717505  )
        57           O   tau(  57) = (  -0.0003949   0.0000949   0.3429300  )
        58           O   tau(  58) = (   0.0004525   0.1658581   0.5331034  )
        59           O   tau(  59) = (   0.1660687  -0.0006806   0.5339075  )
        60           O   tau(  60) = (   0.0008093   0.0005566   0.7045392  )
        61           O   tau(  61) = (   0.0006012   0.1673561   0.8949166  )
        62           O   tau(  62) = (   0.1667602   0.0007598   0.8944347  )
        63           O   tau(  63) = (  -0.0000283   0.0002129  -0.0188335  )
        64           O   tau(  64) = (  -0.0003092   0.4999940   0.1719229  )
        65           O   tau(  65) = (   0.1666266   0.3338783   0.1709318  )
        66           O   tau(  66) = (   0.0001530   0.3338834   0.3431665  )
        67           O   tau(  67) = (   0.0007569   0.4994914   0.5322643  )
        68           O   tau(  68) = (   0.1671089   0.3337822   0.5329753  )
        69           O   tau(  69) = (   0.0008194   0.3329541   0.7060437  )
        70           O   tau(  70) = (  -0.0006815   0.5001059   0.8955176  )
        71           O   tau(  71) = (   0.1658525   0.3331579   0.8952219  )
        72           O   tau(  72) = (   0.0002919   0.3337933  -0.0189841  )
        73           O   tau(  73) = (  -0.0006494   0.8341510   0.1721391  )
        74           O   tau(  74) = (   0.1668949   0.6662115   0.1712315  )
        75           O   tau(  75) = (   0.0004685   0.6659047   0.3440964  )
        76           O   tau(  76) = (   0.0008155   0.8331225   0.5326480  )
        77           O   tau(  77) = (   0.1668718   0.6670475   0.5326227  )
        78           O   tau(  78) = (   0.0001164   0.6661732   0.7056145  )
        79           O   tau(  79) = (   0.0001121   0.8329350   0.8944615  )
        80           O   tau(  80) = (   0.1662124   0.6673528   0.8950724  )
        81           O   tau(  81) = (   0.0003821   0.6664132  -0.0177097  )
        82           O   tau(  82) = (   0.3334811   0.1669512   0.1705411  )
        83           O   tau(  83) = (   0.4995825  -0.0006902   0.1716273  )
        84           O   tau(  84) = (   0.3335538   0.0001921   0.3433332  )
        85           O   tau(  85) = (   0.3329424   0.1665877   0.5325337  )
        86           O   tau(  86) = (   0.4996340   0.0001968   0.5322624  )
        87           O   tau(  87) = (   0.3338418  -0.0007805   0.7049410  )
        88           O   tau(  88) = (   0.3327493   0.1670922   0.8948304  )
        89           O   tau(  89) = (   0.4999682  -0.0003195   0.8951004  )
        90           O   tau(  90) = (   0.3338891   0.0002062  -0.0182431  )
        91           O   tau(  91) = (   0.3329836   0.4998811   0.1719213  )
        92           O   tau(  92) = (   0.4992197   0.3331254   0.1706845  )
        93           O   tau(  93) = (   0.3333344   0.3330068   0.3434756  )
        94           O   tau(  94) = (   0.3331741   0.5000777   0.5337099  )
        95           O   tau(  95) = (   0.4997119   0.3332241   0.5337004  )
        96           O   tau(  96) = (   0.3329727   0.3325281   0.7060194  )
        97           O   tau(  97) = (   0.3331901   0.4992070   0.8955836  )
        98           O   tau(  98) = (   0.4995936   0.3330674   0.8945848  )
        99           O   tau(  99) = (   0.3335105   0.3337117  -0.0189051  )
       100           O   tau( 100) = (   0.3329950   0.8340597   0.1715049  )
       101           O   tau( 101) = (   0.4992848   0.6674036   0.1719417  )
       102           O   tau( 102) = (   0.3330995   0.6669653   0.3431007  )
       103           O   tau( 103) = (   0.3330931   0.8340476   0.5335025  )
       104           O   tau( 104) = (   0.5006730   0.6672876   0.5334783  )
       105           O   tau( 105) = (   0.3339969   0.6672322   0.7050987  )
       106           O   tau( 106) = (   0.3330621   0.8329436   0.8945359  )
       107           O   tau( 107) = (   0.5006300   0.6659157   0.8954456  )
       108           O   tau( 108) = (   0.3325391   0.6674643  -0.0177212  )
       109           O   tau( 109) = (   0.6664817   0.1667355   0.1721656  )
       110           O   tau( 110) = (   0.8332812   0.0007949   0.1719160  )
       111           O   tau( 111) = (   0.6664598   0.0002429   0.3433622  )
       112           O   tau( 112) = (   0.6672108   0.1661486   0.5326402  )
       113           O   tau( 113) = (   0.8327649   0.0005576   0.5334719  )
       114           O   tau( 114) = (   0.6659076   0.0006287   0.7045569  )
       115           O   tau( 115) = (   0.6672234   0.1673091   0.8946162  )
       116           O   tau( 116) = (   0.8327416   0.0005994   0.8941808  )
       117           O   tau( 117) = (   0.6675022  -0.0001499  -0.0188493  )
       118           O   tau( 118) = (   0.6672377   0.5007753   0.1710123  )
       119           O   tau( 119) = (   0.8336340   0.3338919   0.1715897  )
       120           O   tau( 120) = (   0.6660799   0.3333953   0.3426547  )
       121           O   tau( 121) = (   0.6661172   0.4995041   0.5330041  )
       122           O   tau( 122) = (   0.8338468   0.3339323   0.5337947  )
       123           O   tau( 123) = (   0.6664057   0.3340090   0.7054331  )
       124           O   tau( 124) = (   0.6658890   0.5007119   0.8953304  )
       125           O   tau( 125) = (   0.8332987   0.3334326   0.8952174  )
       126           O   tau( 126) = (   0.6665677   0.3338898  -0.0177124  )
       127           O   tau( 127) = (   0.6673090   0.8339934   0.1706790  )
       128           O   tau( 128) = (   0.8336815   0.6662267   0.1721913  )
       129           O   tau( 129) = (   0.6665079   0.6664644   0.3439900  )
       130           O   tau( 130) = (   0.6665797   0.8326032   0.5339298  )
       131           O   tau( 131) = (   0.8330184   0.6670267   0.5330141  )
       132           O   tau( 132) = (   0.6674656   0.6666378   0.7049422  )
       133           O   tau( 133) = (   0.6665895   0.8338098   0.8950555  )
       134           O   tau( 134) = (   0.8334946   0.6658271   0.8944904  )
       135           O   tau( 135) = (   0.6663896   0.6670366  -0.0187856  )

     number of k points=     1
                       cart. coord. in units 2pi/alat
        k(    1) = (   0.0000000   0.0000000   0.0000000), wk =   2.0000000

     Dense  grid:  4713475 G-vectors     FFT dimensions: ( 216, 216, 225)

     Smooth grid:  1666415 G-vectors     FFT dimensions: ( 144, 144, 160)

     Estimated max dynamical RAM per process >     189.27 MB

     Estimated total dynamical RAM >      20.70 GB

     Initial potential from superposition of free atoms

     starting charge    1079.5099, renormalised to    1080.0000
     Starting wfcs are  729 randomized atomic wfcs

     total cpu time spent up to now is       14.5 secs

     Self-consistent Calculation

     iteration #  1     ecut=   100.00 Ry     beta= 0.70
     Davidson diagonalization with overlap
     ethr =  1.00E-02,  avg # of iterations =  2.0

     Expectation value of exp(iGx):   (6.38856121924215841E-006,2.16377250269658457E-006)   1.0000000000000000     
     Electronic Dipole per cell (Ry a.u.)   3.3053765577346290     
     Ionic Dipole per cell (Ry a.u.)   13732.067592490663     

     Expectation value of exp(iGx):  (6.58071769706811636E-006,-1.46509025327557779E-006)   1.0000000000000000     
     Electronic Dipole per cell (Ry a.u.)  -2.2172390373560171     
     Ionic Dipole per cell (Ry a.u.)   13738.241707995414     

     Expectation value of exp(iGx):   (2.66297944176445573E-006,3.78597096987638319E-005)   1.0852077191500298     
     Electronic Dipole per cell (Ry a.u.)   16.482286293274178     
     Ionic Dipole per cell (Ry a.u.)   16131.253304506745     
Electronic Dipole on Cartesian axes
           1   3.3053765577346290     
           2  -2.2172390373560171     
           3   16.482286293274178     
Ionic Dipole on Cartesian axes
           1   13732.067592490663     
           2   13738.241707995414     
           3   16131.253304506745     

     total cpu time spent up to now is      703.5 secs

     total energy              =   -7390.20641183 Ry
     estimated scf accuracy    <      51.97359630 Ry

     iteration #  2     ecut=   100.00 Ry     beta= 0.70
     Davidson diagonalization with overlap
     ethr =  4.81E-03,  avg # of iterations = 12.0

     Expectation value of exp(iGx):   (1.13317236230371778E-025,1.97907237045498652E-026)   1.0000000000000000     
     Electronic Dipole per cell (Ry a.u.)   1.7500664600104709     
     Ionic Dipole per cell (Ry a.u.)   13732.067592490663     

     Expectation value of exp(iGx): (-2.49844192506591253E-025,-1.34746964627723906E-024)   1.0000000000000000     
     Electronic Dipole per cell (Ry a.u.)  -17.754537103631002     
     Ionic Dipole per cell (Ry a.u.)   13738.241707995414     

     Expectation value of exp(iGx):  (2.62585730392620007E-022,-1.72884284146243686E-021)   1.0852077191500298     
     Electronic Dipole per cell (Ry a.u.)  -15.597956888952183     
     Ionic Dipole per cell (Ry a.u.)   16131.253304506745     
Electronic Dipole on Cartesian axes
           1   1.7500664600104709     
           2  -17.754537103631002     
           3  -15.597956888952183     
Ionic Dipole on Cartesian axes
           1   13732.067592490663     
           2   13738.241707995414     
           3   16131.253304506745     

     total cpu time spent up to now is     1374.7 secs

     total energy              =   -7340.32959301 Ry
     estimated scf accuracy    <     509.99121738 Ry

     iteration #  3     ecut=   100.00 Ry     beta= 0.70
     Davidson diagonalization with overlap
     ethr =  4.81E-03,  avg # of iterations = 10.0

     Expectation value of exp(iGx):   (1.34066382276217061E-007,4.34546741263457336E-008)   1.0000000000000000     
     Electronic Dipole per cell (Ry a.u.)   3.1725306375954472     
     Ionic Dipole per cell (Ry a.u.)   13732.067592490663     

     Expectation value of exp(iGx):  (1.33728534480519061E-007,-3.30068810350562890E-008)   1.0000000000000000     
     Electronic Dipole per cell (Ry a.u.)  -2.4492492277272357     
     Ionic Dipole per cell (Ry a.u.)   13738.241707995414     

     Expectation value of exp(iGx): (-1.20231310146142914E-006,-3.91849997757011127E-007)   1.0852077191500298     
     Electronic Dipole per cell (Ry a.u.)  -31.046625494109605     
     Ionic Dipole per cell (Ry a.u.)   16131.253304506745     
Electronic Dipole on Cartesian axes
           1   3.1725306375954472     
           2  -2.4492492277272357     
           3  -31.046625494109609     
Ionic Dipole on Cartesian axes
           1   13732.067592490663     
           2   13738.241707995414     
           3   16131.253304506745     

     total cpu time spent up to now is     2037.5 secs

     total energy              =   -7419.42874471 Ry
     estimated scf accuracy    <       9.87851323 Ry

     iteration #  4     ecut=   100.00 Ry     beta= 0.70
     Davidson diagonalization with overlap
     ethr =  9.15E-04,  avg # of iterations =  9.0

     Expectation value of exp(iGx):   (2.99494199541642870E-007,9.62368976135675460E-008)   1.0000000000000000     
     Electronic Dipole per cell (Ry a.u.)   3.1468946231713226     
     Ionic Dipole per cell (Ry a.u.)   13732.067592490663     

     Expectation value of exp(iGx):  (3.02665920482513608E-007,-7.24614673070052681E-008)   1.0000000000000000     
     Electronic Dipole per cell (Ry a.u.)  -2.3784409152398043     
     Ionic Dipole per cell (Ry a.u.)   13738.241707995414     

     Expectation value of exp(iGx): (-2.67747938377983364E-006,-4.03018005999500394E-007)   1.0852077191500298     
     Electronic Dipole per cell (Ry a.u.)  -32.866210981287878     
     Ionic Dipole per cell (Ry a.u.)   16131.253304506745     
Electronic Dipole on Cartesian axes
           1   3.1468946231713226     
           2  -2.3784409152398043     
           3  -32.866210981287878     
Ionic Dipole on Cartesian axes
           1   13732.067592490663     
           2   13738.241707995414     
           3   16131.253304506745     

     total cpu time spent up to now is     2725.3 secs

     total energy              =   -7419.18565132 Ry
     estimated scf accuracy    <       4.66243472 Ry

     iteration #  5     ecut=   100.00 Ry     beta= 0.70
     Davidson diagonalization with overlap
     ethr =  4.32E-04,  avg # of iterations =  3.0

     Expectation value of exp(iGx):   (3.11702862206257153E-007,9.94679816929677110E-008)   1.0000000000000000     
     Electronic Dipole per cell (Ry a.u.)   3.1265156883081460     
     Ionic Dipole per cell (Ry a.u.)   13732.067592490663     

     Expectation value of exp(iGx):  (3.15045712900321605E-007,-7.50088954320286880E-008)   1.0000000000000000     
     Electronic Dipole per cell (Ry a.u.)  -2.3657837397843622     
     Ionic Dipole per cell (Ry a.u.)   13738.241707995414     

     Expectation value of exp(iGx): (-2.78161374705831544E-006,-9.18810619720393768E-007)   1.0852077191500298     
     Electronic Dipole per cell (Ry a.u.)  -31.002971222102310     
     Ionic Dipole per cell (Ry a.u.)   16131.253304506745     
Electronic Dipole on Cartesian axes
           1   3.1265156883081460     
           2  -2.3657837397843622     
           3  -31.002971222102310     
Ionic Dipole on Cartesian axes
           1   13732.067592490663     
           2   13738.241707995414     
           3   16131.253304506745     

     total cpu time spent up to now is     3377.5 secs

     total energy              =   -7418.52531895 Ry
     estimated scf accuracy    <       2.42108766 Ry

     iteration #  6     ecut=   100.00 Ry     beta= 0.70
     Davidson diagonalization with overlap
     c_bands:  1 eigenvalues not converged
     ethr =  2.24E-04,  avg # of iterations = 20.0

     Expectation value of exp(iGx):   (1.79957320548820861E-007,5.57485095787371579E-008)   1.0000000000000000     
     Electronic Dipole per cell (Ry a.u.)   3.0406331443409904     
     Ionic Dipole per cell (Ry a.u.)   13732.067592490663     

     Expectation value of exp(iGx):  (1.79643624780750743E-007,-4.30403494131039793E-008)   1.0000000000000000     
     Electronic Dipole per cell (Ry a.u.)  -2.3801321602218355     
     Ionic Dipole per cell (Ry a.u.)   13738.241707995414     

     Expectation value of exp(iGx): (-1.04013228010307776E-006,-1.68292795450186362E-006)   1.0852077191500298     
     Electronic Dipole per cell (Ry a.u.)  -23.334183900308744     
     Ionic Dipole per cell (Ry a.u.)   16131.253304506745     
Electronic Dipole on Cartesian axes
           1   3.0406331443409904     
           2  -2.3801321602218355     
           3  -23.334183900308744     
Ionic Dipole on Cartesian axes
           1   13732.067592490663     
           2   13738.241707995414     
           3   16131.253304506745     

     total cpu time spent up to now is     4035.2 secs

     total energy              =   -7418.99389621 Ry
     estimated scf accuracy    <       0.05663044 Ry

     iteration #  7     ecut=   100.00 Ry     beta= 0.70
     Davidson diagonalization with overlap
     c_bands:  4 eigenvalues not converged
     ethr =  5.24E-06,  avg # of iterations = 20.0

     Expectation value of exp(iGx):   (1.46001902157942317E-007,4.50248789376874379E-008)   1.0000000000000000     
     Electronic Dipole per cell (Ry a.u.)   3.0276817407086467     
     Ionic Dipole per cell (Ry a.u.)   13732.067592490663     

     Expectation value of exp(iGx):  (1.49617651803636764E-007,-3.55236354422335729E-008)   1.0000000000000000     
     Electronic Dipole per cell (Ry a.u.)  -2.3594658729223341     
     Ionic Dipole per cell (Ry a.u.)   13738.241707995414     

     Expectation value of exp(iGx): (-4.56159540837967632E-007,-1.71522557443579138E-006)   1.0852077191500298     
     Electronic Dipole per cell (Ry a.u.)  -20.108683621099434     
     Ionic Dipole per cell (Ry a.u.)   16131.253304506745     
Electronic Dipole on Cartesian axes
           1   3.0276817407086467     
           2  -2.3594658729223341     
           3  -20.108683621099434     
Ionic Dipole on Cartesian axes
           1   13732.067592490663     
           2   13738.241707995414     
           3   16131.253304506745     

     total cpu time spent up to now is     4752.1 secs

     total energy              =   -7419.06274165 Ry
     estimated scf accuracy    <       0.01877156 Ry

     iteration #  8     ecut=   100.00 Ry     beta= 0.70
     Davidson diagonalization with overlap
     c_bands:  1 eigenvalues not converged
     ethr =  1.74E-06,  avg # of iterations = 20.0

     Expectation value of exp(iGx):   (1.45482818960974557E-007,4.47843578394952313E-008)   1.0000000000000000     
     Electronic Dipole per cell (Ry a.u.)   3.0225703544487694     
     Ionic Dipole per cell (Ry a.u.)   13732.067592490663     

     Expectation value of exp(iGx):  (1.48446917515806771E-007,-3.52213066208056537E-008)   1.0000000000000000     
     Electronic Dipole per cell (Ry a.u.)  -2.3578933811558249     
     Ionic Dipole per cell (Ry a.u.)   13738.241707995414     

     Expectation value of exp(iGx): (-4.86587142845613929E-007,-1.71834942688107188E-006)   1.0852077191500298     
     Electronic Dipole per cell (Ry a.u.)  -20.284606936397694     
     Ionic Dipole per cell (Ry a.u.)   16131.253304506745     
Electronic Dipole on Cartesian axes
           1   3.0225703544487694     
           2  -2.3578933811558249     
           3  -20.284606936397694     
Ionic Dipole on Cartesian axes
           1   13732.067592490663     
           2   13738.241707995414     
           3   16131.253304506745     

     total cpu time spent up to now is     5496.1 secs

     total energy              =   -7419.06187447 Ry
     estimated scf accuracy    <       0.01103625 Ry

     iteration #  9     ecut=   100.00 Ry     beta= 0.70
     Davidson diagonalization with overlap
     c_bands:  1 eigenvalues not converged
     ethr =  1.02E-06,  avg # of iterations = 20.0

     Expectation value of exp(iGx):   (1.49024643873514825E-007,4.59645693013354186E-008)   1.0000000000000000     
     Electronic Dipole per cell (Ry a.u.)   3.0281481558122589     
     Ionic Dipole per cell (Ry a.u.)   13732.067592490663     

     Expectation value of exp(iGx):  (1.51707388976440842E-007,-3.60326544702188243E-008)   1.0000000000000000     
     Electronic Dipole per cell (Ry a.u.)  -2.3602776744909217     
     Ionic Dipole per cell (Ry a.u.)   13738.241707995414     

     Expectation value of exp(iGx): (-5.29602797471184800E-007,-1.74015721886330075E-006)   1.0852077191500298     
     Electronic Dipole per cell (Ry a.u.)  -20.498668046515270     
     Ionic Dipole per cell (Ry a.u.)   16131.253304506745     
Electronic Dipole on Cartesian axes
           1   3.0281481558122589     
           2  -2.3602776744909217     
           3  -20.498668046515270     
Ionic Dipole on Cartesian axes
           1   13732.067592490663     
           2   13738.241707995414     
           3   16131.253304506745     

     total cpu time spent up to now is     6276.5 secs

     total energy              =   -7419.06181115 Ry
     estimated scf accuracy    <       0.00399298 Ry

     iteration # 10     ecut=   100.00 Ry     beta= 0.70
     Davidson diagonalization with overlap
     c_bands:  1 eigenvalues not converged
     ethr =  3.70E-07,  avg # of iterations = 20.0

     Expectation value of exp(iGx):   (1.55211065601056535E-007,4.79355450302206438E-008)   1.0000000000000000     
     Electronic Dipole per cell (Ry a.u.)   3.0318908572449539     
     Ionic Dipole per cell (Ry a.u.)   13732.067592490663     

     Expectation value of exp(iGx):  (1.57924771697512676E-007,-3.73807588899939534E-008)   1.0000000000000000     
     Electronic Dipole per cell (Ry a.u.)  -2.3524735465289290     
     Ionic Dipole per cell (Ry a.u.)   13738.241707995414     

     Expectation value of exp(iGx): (-6.44873014827451244E-007,-1.76671362132703638E-006)   1.0852077191500298     
     Electronic Dipole per cell (Ry a.u.)  -21.097852071379553     
     Ionic Dipole per cell (Ry a.u.)   16131.253304506745     
Electronic Dipole on Cartesian axes
           1   3.0318908572449539     
           2  -2.3524735465289290     
           3  -21.097852071379553     
Ionic Dipole on Cartesian axes
           1   13732.067592490663     
           2   13738.241707995414     
           3   16131.253304506745     

     total cpu time spent up to now is     7021.7 secs

     total energy              =   -7419.06295171 Ry
     estimated scf accuracy    <       0.00067002 Ry

     iteration # 11     ecut=   100.00 Ry     beta= 0.70
     Davidson diagonalization with overlap
     c_bands:  1 eigenvalues not converged
     ethr =  6.20E-08,  avg # of iterations = 20.0

     Expectation value of exp(iGx):   (1.55928739840507378E-007,4.81730395005737672E-008)   1.0000000000000000     
     Electronic Dipole per cell (Ry a.u.)   3.0328299224969393     
     Ionic Dipole per cell (Ry a.u.)   13732.067592490663     

     Expectation value of exp(iGx):  (1.58658621467350660E-007,-3.75364744893764269E-008)   1.0000000000000000     
     Electronic Dipole per cell (Ry a.u.)  -2.3513869562742560     
     Ionic Dipole per cell (Ry a.u.)   13738.241707995414     

     Expectation value of exp(iGx): (-6.67800063623227044E-007,-1.76715917140730788E-006)   1.0852077191500298     
     Electronic Dipole per cell (Ry a.u.)  -21.222190221414444     
     Ionic Dipole per cell (Ry a.u.)   16131.253304506745     
Electronic Dipole on Cartesian axes
           1   3.0328299224969393     
           2  -2.3513869562742560     
           3  -21.222190221414444     
Ionic Dipole on Cartesian axes
           1   13732.067592490663     
           2   13738.241707995414     
           3   16131.253304506745     

     total cpu time spent up to now is     7766.5 secs

     total energy              =   -7419.06299040 Ry
     estimated scf accuracy    <       0.00067437 Ry

     iteration # 12     ecut=   100.00 Ry     beta= 0.70
     Davidson diagonalization with overlap
     c_bands:  1 eigenvalues not converged
     ethr =  6.20E-08,  avg # of iterations = 20.0

     Expectation value of exp(iGx):   (1.55800589537034318E-007,4.81394718677367285E-008)   1.0000000000000000     
     Electronic Dipole per cell (Ry a.u.)   3.0331871367510845     
     Ionic Dipole per cell (Ry a.u.)   13732.067592490663     

     Expectation value of exp(iGx):  (1.58577909533654758E-007,-3.75059009169542793E-008)   1.0000000000000000     
     Electronic Dipole per cell (Ry a.u.)  -2.3506931576651846     
     Ionic Dipole per cell (Ry a.u.)   13738.241707995414     

     Expectation value of exp(iGx): (-6.64787740673804300E-007,-1.76585257130818945E-006)   1.0852077191500298     
     Electronic Dipole per cell (Ry a.u.)  -21.208475352671833     
     Ionic Dipole per cell (Ry a.u.)   16131.253304506745     
Electronic Dipole on Cartesian axes
           1   3.0331871367510845     
           2  -2.3506931576651846     
           3  -21.208475352671833     
Ionic Dipole on Cartesian axes
           1   13732.067592490663     
           2   13738.241707995414     
           3   16131.253304506745     

     total cpu time spent up to now is     8531.4 secs

     total energy              =   -7419.06290583 Ry
     estimated scf accuracy    <       0.00052890 Ry

     iteration # 13     ecut=   100.00 Ry     beta= 0.70
     Davidson diagonalization with overlap
     c_bands:  1 eigenvalues not converged
     ethr =  4.90E-08,  avg # of iterations = 20.0

     Expectation value of exp(iGx):   (1.55410306828504881E-007,4.80048776897597036E-008)   1.0000000000000000     
     Electronic Dipole per cell (Ry a.u.)   3.0323545419513667     
     Ionic Dipole per cell (Ry a.u.)   13732.067592490663     

     Expectation value of exp(iGx):  (1.58177584776619021E-007,-3.74243055930249976E-008)   1.0000000000000000     
     Electronic Dipole per cell (Ry a.u.)  -2.3514862044351776     
     Ionic Dipole per cell (Ry a.u.)   13738.241707995414     

     Expectation value of exp(iGx): (-6.54767724459636799E-007,-1.76442108527119278E-006)   1.0852077191500298     
     Electronic Dipole per cell (Ry a.u.)  -21.156688323385897     
     Ionic Dipole per cell (Ry a.u.)   16131.253304506745     
Electronic Dipole on Cartesian axes
           1   3.0323545419513667     
           2  -2.3514862044351776     
           3  -21.156688323385897     
Ionic Dipole on Cartesian axes
           1   13732.067592490663     
           2   13738.241707995414     
           3   16131.253304506745     

     total cpu time spent up to now is     9267.5 secs

     total energy              =   -7419.06286992 Ry
     estimated scf accuracy    <       0.00026907 Ry

     iteration # 14     ecut=   100.00 Ry     beta= 0.70
     Davidson diagonalization with overlap
     c_bands:  1 eigenvalues not converged
     ethr =  2.49E-08,  avg # of iterations = 20.0

     Expectation value of exp(iGx):   (1.54718867896274087E-007,4.77736172250108830E-008)   1.0000000000000000     
     Electronic Dipole per cell (Ry a.u.)   3.0312985808555304     
     Ionic Dipole per cell (Ry a.u.)   13732.067592490663     

     Expectation value of exp(iGx):  (1.57533206894724255E-007,-3.72649076117065183E-008)   1.0000000000000000     
     Electronic Dipole per cell (Ry a.u.)  -2.3510639249610992     
     Ionic Dipole per cell (Ry a.u.)   13738.241707995414     

     Expectation value of exp(iGx): (-6.37745027078436008E-007,-1.76145776212741248E-006)   1.0852077191500298     
     Electronic Dipole per cell (Ry a.u.)  -21.069158820596780     
     Ionic Dipole per cell (Ry a.u.)   16131.253304506745     
Electronic Dipole on Cartesian axes
           1   3.0312985808555304     
           2  -2.3510639249610992     
           3  -21.069158820596780     
Ionic Dipole on Cartesian axes
           1   13732.067592490663     
           2   13738.241707995414     
           3   16131.253304506745     

     total cpu time spent up to now is    10041.0 secs

     total energy              =   -7419.06289126 Ry
     estimated scf accuracy    <       0.00005614 Ry

     iteration # 15     ecut=   100.00 Ry     beta= 0.70
     Davidson diagonalization with overlap
     c_bands:  1 eigenvalues not converged
     ethr =  5.20E-09,  avg # of iterations = 20.0

     Expectation value of exp(iGx):   (1.54066188878886936E-007,4.75750727865704027E-008)   1.0000000000000000     
     Electronic Dipole per cell (Ry a.u.)   3.0314777803140545     
     Ionic Dipole per cell (Ry a.u.)   13732.067592490663     

     Expectation value of exp(iGx):  (1.56925157598832360E-007,-3.71470417935575188E-008)   1.0000000000000000     
     Electronic Dipole per cell (Ry a.u.)  -2.3526501410965870     
     Ionic Dipole per cell (Ry a.u.)   13738.241707995414     

     Expectation value of exp(iGx): (-6.27369742267153188E-007,-1.75953084952451863E-006)   1.0852077191500298     
     Electronic Dipole per cell (Ry a.u.)  -21.015653195053556     
     Ionic Dipole per cell (Ry a.u.)   16131.253304506745     
Electronic Dipole on Cartesian axes
           1   3.0314777803140545     
           2  -2.3526501410965870     
           3  -21.015653195053556     
Ionic Dipole on Cartesian axes
           1   13732.067592490663     
           2   13738.241707995414     
           3   16131.253304506745     

     total cpu time spent up to now is    10778.7 secs

     total energy              =   -7419.06290390 Ry
     estimated scf accuracy    <       0.00000581 Ry

     iteration # 16     ecut=   100.00 Ry     beta= 0.70
     Davidson diagonalization with overlap
     c_bands:  1 eigenvalues not converged
     ethr =  5.38E-10,  avg # of iterations = 20.0

     Expectation value of exp(iGx):   (1.53565349671269674E-007,4.74156269866577052E-008)   1.0000000000000000     
     Electronic Dipole per cell (Ry a.u.)   3.0311896415224200     
     Ionic Dipole per cell (Ry a.u.)   13732.067592490663     

     Expectation value of exp(iGx):  (1.56427580123325682E-007,-3.70316273011671310E-008)   1.0000000000000000     
     Electronic Dipole per cell (Ry a.u.)  -2.3527954237656665     
     Ionic Dipole per cell (Ry a.u.)   13738.241707995414     

     Expectation value of exp(iGx): (-6.21118633040772576E-007,-1.75788623554005939E-006)   1.0852077191500298     
     Electronic Dipole per cell (Ry a.u.)  -20.984218126697471     
     Ionic Dipole per cell (Ry a.u.)   16131.253304506745     
Electronic Dipole on Cartesian axes
           1   3.0311896415224200     
           2  -2.3527954237656665     
           3  -20.984218126697471     
Ionic Dipole on Cartesian axes
           1   13732.067592490663     
           2   13738.241707995414     
           3   16131.253304506745     

     total cpu time spent up to now is    11579.8 secs

     total energy              =   -7419.06290644 Ry
     estimated scf accuracy    <       0.00001486 Ry

     iteration # 17     ecut=   100.00 Ry     beta= 0.70
     Davidson diagonalization with overlap
     c_bands:  1 eigenvalues not converged
     ethr =  5.38E-10,  avg # of iterations = 20.0

     Expectation value of exp(iGx):   (1.53631835684619507E-007,4.74387387442460762E-008)   1.0000000000000000     
     Electronic Dipole per cell (Ry a.u.)   3.0313450138421092     
     Ionic Dipole per cell (Ry a.u.)   13732.067592490663     

     Expectation value of exp(iGx):  (1.56490568855049786E-007,-3.70475387128870228E-008)   1.0000000000000000     
     Electronic Dipole per cell (Ry a.u.)  -2.3528566621406672     
     Ionic Dipole per cell (Ry a.u.)   13738.241707995414     

     Expectation value of exp(iGx): (-6.21858593774986935E-007,-1.75808460434073552E-006)   1.0852077191500298     
     Electronic Dipole per cell (Ry a.u.)  -20.987938331986800     
     Ionic Dipole per cell (Ry a.u.)   16131.253304506745     
Electronic Dipole on Cartesian axes
           1   3.0313450138421092     
           2  -2.3528566621406672     
           3  -20.987938331986800     
Ionic Dipole on Cartesian axes
           1   13732.067592490663     
           2   13738.241707995414     
           3   16131.253304506745     

     total cpu time spent up to now is    12368.9 secs

     total energy              =   -7419.06290549 Ry
     estimated scf accuracy    <       0.00000690 Ry

     iteration # 18     ecut=   100.00 Ry     beta= 0.70
     Davidson diagonalization with overlap
     c_bands:  1 eigenvalues not converged
     ethr =  5.38E-10,  avg # of iterations = 20.0

     Expectation value of exp(iGx):   (1.53759511688441402E-007,4.74803487147792188E-008)   1.0000000000000000     
     Electronic Dipole per cell (Ry a.u.)   3.0314763811011498     
     Ionic Dipole per cell (Ry a.u.)   13732.067592490663     

     Expectation value of exp(iGx):  (1.56617976633677179E-007,-3.70776261924874195E-008)   1.0000000000000000     
     Electronic Dipole per cell (Ry a.u.)  -2.3528520720429951     
     Ionic Dipole per cell (Ry a.u.)   13738.241707995414     

     Expectation value of exp(iGx): (-6.23075995995078923E-007,-1.75852338656940297E-006)   1.0852077191500298     
     Electronic Dipole per cell (Ry a.u.)  -20.993834081026616     
     Ionic Dipole per cell (Ry a.u.)   16131.253304506745     
Electronic Dipole on Cartesian axes
           1   3.0314763811011498     
           2  -2.3528520720429951     
           3  -20.993834081026616     
Ionic Dipole on Cartesian axes
           1   13732.067592490663     
           2   13738.241707995414     
           3   16131.253304506745     

     total cpu time spent up to now is    13132.1 secs

     total energy              =   -7419.06290581 Ry
     estimated scf accuracy    <       0.00000158 Ry

     iteration # 19     ecut=   100.00 Ry     beta= 0.70
     Davidson diagonalization with overlap
     c_bands:  1 eigenvalues not converged
     ethr =  1.46E-10,  avg # of iterations = 20.0

     Expectation value of exp(iGx):   (1.53923399094721034E-007,4.75322184037048776E-008)   1.0000000000000000     
     Electronic Dipole per cell (Ry a.u.)   3.0315521352526131     
     Ionic Dipole per cell (Ry a.u.)   13732.067592490663     

     Expectation value of exp(iGx):  (1.56783377889550401E-007,-3.71153404887013774E-008)   1.0000000000000000     
     Electronic Dipole per cell (Ry a.u.)  -2.3527638789456526     
     Ionic Dipole per cell (Ry a.u.)   13738.241707995414     

     Expectation value of exp(iGx): (-6.24927811236824084E-007,-1.75903494074496751E-006)   1.0852077191500298     
     Electronic Dipole per cell (Ry a.u.)  -21.003099329629457     
     Ionic Dipole per cell (Ry a.u.)   16131.253304506745     
Electronic Dipole on Cartesian axes
           1   3.0315521352526131     
           2  -2.3527638789456526     
           3  -21.003099329629457     
Ionic Dipole on Cartesian axes
           1   13732.067592490663     
           2   13738.241707995414     
           3   16131.253304506745     

     total cpu time spent up to now is    13887.4 secs

     total energy              =   -7419.06290630 Ry
     estimated scf accuracy    <       0.00000036 Ry

     iteration # 20     ecut=   100.00 Ry     beta= 0.70
     Davidson diagonalization with overlap
     c_bands:  1 eigenvalues not converged
     ethr =  3.36E-11,  avg # of iterations = 20.0

     Expectation value of exp(iGx):   (1.53927335884733825E-007,4.75333181190900415E-008)   1.0000000000000000     
     Electronic Dipole per cell (Ry a.u.)   3.0315451727182050     
     Ionic Dipole per cell (Ry a.u.)   13732.067592490663     

     Expectation value of exp(iGx):  (1.56785455148501969E-007,-3.71159239073770417E-008)   1.0000000000000000     
     Electronic Dipole per cell (Ry a.u.)  -2.3527694827515542     
     Ionic Dipole per cell (Ry a.u.)   13738.241707995414     

     Expectation value of exp(iGx): (-6.25075252825460677E-007,-1.75903519050528393E-006)   1.0852077191500298     
     Electronic Dipole per cell (Ry a.u.)  -21.003916309462895     
     Ionic Dipole per cell (Ry a.u.)   16131.253304506745     
Electronic Dipole on Cartesian axes
           1   3.0315451727182050     
           2  -2.3527694827515542     
           3  -21.003916309462895     
Ionic Dipole on Cartesian axes
           1   13732.067592490663     
           2   13738.241707995414     
           3   16131.253304506745     

     total cpu time spent up to now is    14631.2 secs

     total energy              =   -7419.06290631 Ry
     estimated scf accuracy    <       0.00000016 Ry

     iteration # 21     ecut=   100.00 Ry     beta= 0.70
     Davidson diagonalization with overlap
     c_bands:  1 eigenvalues not converged
     ethr =  1.51E-11,  avg # of iterations = 20.0

     Expectation value of exp(iGx):   (1.53927610072854298E-007,4.75336418358482101E-008)   1.0000000000000000     
     Electronic Dipole per cell (Ry a.u.)   3.0315595228559635     
     Ionic Dipole per cell (Ry a.u.)   13732.067592490663     

     Expectation value of exp(iGx):  (1.56784981112923515E-007,-3.71158658208970306E-008)   1.0000000000000000     
     Electronic Dipole per cell (Ry a.u.)  -2.3527727919135439     
     Ionic Dipole per cell (Ry a.u.)   13738.241707995414     

     Expectation value of exp(iGx): (-6.25139161180037196E-007,-1.75903813089161679E-006)   1.0852077191500298     
     Electronic Dipole per cell (Ry a.u.)  -21.004264834616485     
     Ionic Dipole per cell (Ry a.u.)   16131.253304506745     
Electronic Dipole on Cartesian axes
           1   3.0315595228559635     
           2  -2.3527727919135439     
           3  -21.004264834616485     
Ionic Dipole on Cartesian axes
           1   13732.067592490663     
           2   13738.241707995414     
           3   16131.253304506745     

     total cpu time spent up to now is    15407.1 secs

     total energy              =   -7419.06290631 Ry
     estimated scf accuracy    <       0.00000008 Ry

     iteration # 22     ecut=   100.00 Ry     beta= 0.70
     Davidson diagonalization with overlap
     c_bands:  1 eigenvalues not converged
     ethr =  7.15E-12,  avg # of iterations = 20.0

     Expectation value of exp(iGx):   (1.53910321708295839E-007,4.75280391233428497E-008)   1.0000000000000000     
     Electronic Dipole per cell (Ry a.u.)   3.0315436743908415     
     Ionic Dipole per cell (Ry a.u.)   13732.067592490663     

     Expectation value of exp(iGx):  (1.56765667776471607E-007,-3.71111512410565563E-008)   1.0000000000000000     
     Electronic Dipole per cell (Ry a.u.)  -2.3527640787903725     
     Ionic Dipole per cell (Ry a.u.)   13738.241707995414     

     Expectation value of exp(iGx): (-6.25093867026995621E-007,-1.75898158184199840E-006)   1.0852077191500298     
     Electronic Dipole per cell (Ry a.u.)  -21.004125132900089     
     Ionic Dipole per cell (Ry a.u.)   16131.253304506745     
Electronic Dipole on Cartesian axes
           1   3.0315436743908415     
           2  -2.3527640787903725     
           3  -21.004125132900089     
Ionic Dipole on Cartesian axes
           1   13732.067592490663     
           2   13738.241707995414     
           3   16131.253304506745     

     total cpu time spent up to now is    16142.4 secs

     End of self-consistent calculation

          k = 0.0000 0.0000 0.0000 (208381 PWs)   bands (ev):

   -46.7238 -46.7235 -46.7131 -46.7042 -46.7015 -46.6992 -46.6973 -46.6913
   -46.6848 -46.6793 -46.6720 -46.6689 -46.6573 -46.6544 -46.6487 -46.6472
   -46.6460 -46.6455 -46.6400 -46.6314 -46.6229 -46.6197 -46.6192 -46.6154
   -46.6122 -46.5885 -46.5803 -23.1178 -23.1053 -23.0998 -23.0978 -23.0925
   -23.0884 -23.0875 -23.0857 -23.0764 -23.0740 -23.0718 -23.0644 -23.0567
   -23.0557 -23.0550 -23.0526 -23.0493 -23.0465 -23.0384 -23.0359 -23.0286
   -23.0283 -23.0272 -23.0162 -23.0133 -22.9974 -22.9825 -22.9805 -22.9783
   -22.9773 -22.9771 -22.9662 -22.9626 -22.9624 -22.9581 -22.9578 -22.9514
   -22.9473 -22.9471 -22.9459 -22.9441 -22.9406 -22.9374 -22.9355 -22.9338
   -22.9298 -22.9290 -22.9257 -22.9225 -22.9209 -22.9157 -22.9128 -22.9107
   -22.9106 -22.9064 -22.9015 -22.9008 -22.8991 -22.8980 -22.8955 -22.8933
   -22.8912 -22.8821 -22.8777 -22.8777 -22.8774 -22.8759 -22.8756 -22.8755
   -22.8715 -22.8673 -22.8658 -22.8639 -22.8631 -22.8627 -22.8497 -22.8401
   -22.8318 -22.8300 -22.8284 -22.8253 -15.3539 -15.3168 -15.3055 -15.2875
   -15.2790 -15.2702 -15.2608 -15.2558 -15.2510 -15.2480 -15.2383 -15.2348
   -15.2308 -15.2228 -15.2208 -15.2124 -15.2047 -15.1985 -15.1917 -15.1893
   -15.1835 -15.1769 -15.1742 -15.1697 -15.1655 -15.1611 -15.1530  -7.1643
    -7.1596  -7.1502  -7.1400  -7.1385  -7.1306  -7.0496  -6.9527  -6.9401
    -6.9317  -6.9301  -6.9222  -6.9162  -6.9117  -6.9074  -6.9051  -6.8977
    -6.8916  -6.8867  -6.7053  -6.6990  -6.6949  -6.6828  -6.6733  -6.6694
    -6.6607  -6.6540  -6.5574  -6.5473  -6.5448  -6.5431  -6.5383  -6.5316
    -6.5200  -6.5134  -6.4892  -6.4610  -6.4478  -6.4306  -6.4233  -6.4180
    -6.4044  -6.3558  -6.3495  -6.3487  -6.3431  -6.3394  -6.3334  -6.3298
    -6.3271  -6.3084  -6.2958  -6.2877  -6.2732  -6.2712  -6.2638  -6.2529
    -6.2499  -6.2423  -6.2380  -6.2337  -6.2312  -6.2241  -6.2216  -6.2133
    -6.2087  -6.2035  -6.1984  -6.1890  -6.1873  -6.1764  -6.1705  -6.1700
    -6.1662  -6.1607  -6.1541  -6.1510  -6.1463  -6.1348  -6.1287  -6.1248
    -0.9102  -0.9088  -0.9046  -0.9027  -0.8974  -0.8943  -0.8870  -0.8823
    -0.7654  -0.7640  -0.7586  -0.7560  -0.7542  -0.7500  -0.7470  -0.7416
    -0.6607  -0.6578  -0.6489  -0.6456  -0.5433  -0.5117  -0.5061  -0.5044
    -0.4996  -0.4970  -0.4957  -0.4903  -0.4863  -0.4642  -0.4630  -0.4575
    -0.4532  -0.4526  -0.4497  -0.4481  -0.4464  -0.4424  -0.4389  -0.4372
    -0.4349  -0.4340  -0.4314  -0.4292  -0.4279  -0.4262  -0.4214  -0.3850
    -0.3830  -0.3716  -0.3708  -0.3304  -0.3289  -0.3220  -0.3191  -0.3142
    -0.3109  -0.3102  -0.3085  -0.3067  -0.3044  -0.3010  -0.2993  -0.2966
    -0.2921  -0.2903  -0.2869  -0.2815  -0.2796  -0.2736  -0.2690  -0.2440
    -0.2400  -0.2312  -0.2309  -0.2277  -0.2239  -0.2203  -0.2165  -0.1974
    -0.1896   5.8214   5.8354   5.8423   5.8505   5.8563   5.8630   5.8689
     5.8722   5.9086   5.9217   5.9335   5.9358   6.0259   6.0325   6.0357
     6.0417   6.0482   6.0515   6.0555   6.0597   6.1232   6.1276   6.1293
     6.1350   6.1406   6.1459   6.1536   6.1569   6.1943   6.2077   6.2167
     6.2300   6.2494   6.2629   6.3420   6.3640   6.3774   6.3808   6.3827
     6.3876   6.3922   6.3926   6.3988   6.4052   6.4069   6.4161   6.4179
     6.4216   6.4313   6.4382   6.4457   6.4516   6.4526   6.4599   6.4649
     6.4698   6.4738   6.4818   6.7179   6.7259   6.7325   6.7383   6.7387
     6.7422   6.7443   6.7519   6.8373   6.8432   6.8450   6.8495   6.8513
     6.8561   6.8585   6.8594   6.9319   6.9362   6.9417   6.9441   7.0378
     7.0409   7.0521   7.0556   7.0624   7.0660   7.0752   7.0759   7.0937
     7.1025   7.1043   7.1131   7.1392   7.1425   7.1436   7.1500   7.1518
     7.1533   7.1578   7.1600   7.1607   7.1651   7.1656   7.1691   7.1715
     7.1730   7.1801   7.1841   7.2058   7.2097   7.2151   7.2189   7.2494
     7.2571   7.2596   7.2639   7.2655   7.2719   7.2762   7.2812   7.2837
     7.3049   7.3074   7.3163   7.3200   7.3875   7.3923   7.3971   7.4030
     7.4041   7.4076   7.4098   7.4156   7.4222   7.4236   7.7205   7.7248
     7.7308   7.7366   7.7417   7.7447   7.7496   7.7529   7.7562   7.7593
     7.7693   7.7752   7.9943   7.9953   8.0213   8.0265   8.0399   8.0505
     8.0977   8.1095   8.1143   8.1258   8.2693   8.2765   8.2782   8.2821
     8.2857   8.2879   8.2919   8.2923   8.2956   8.3008   8.3031   8.3084
     8.3132   8.3159   8.3201   8.3224   8.3284   8.3316   8.3360   8.3389
     8.4274   8.4312   8.4394   8.4451   8.4730   8.4758   8.4803   8.4867
     8.4925   8.5909   8.6099   8.6173   8.6251   8.6468   8.6513   8.6560
     8.6573   8.6604   8.6646   8.6687   8.6707   8.6911   8.6955   8.7026
     8.7077   8.7270   8.8575   8.8635   8.8665   8.8705   8.8776   8.8802
     8.8851   8.8924   9.0312   9.0381   9.0440   9.0466   9.0512   9.0529
     9.0595   9.0624   9.0676   9.0716   9.0774   9.0860   9.0902   9.0944
     9.0977   9.1036   9.2317   9.2322   9.2394   9.2406   9.3118   9.3123
     9.4746   9.4893   9.5023   9.5115   9.5198   9.5242   9.5334   9.5395
     9.5698   9.5921   9.6059   9.6125  11.8003  11.8699  11.8784  12.6102
    12.6327  12.6429  12.6519  12.6578  12.6918  12.8802

     highest occupied, lowest unoccupied level (ev):     9.6125   11.8003

!    total energy              =   -7419.06290632 Ry
     estimated scf accuracy    <          8.0E-09 Ry

     The total energy is the sum of the following terms:
     one-electron contribution =   -2150.88706893 Ry
     hartree contribution      =    1695.23918880 Ry
     xc contribution           =   -1513.44160794 Ry
     ewald contribution        =   -5449.97341824 Ry

     convergence has been achieved in  22 iterations

     Forces acting on atoms (cartesian axes, Ry/au):

     atom    1 type  1   force =    -0.00187226   -0.00070467   -0.00424859
     atom    2 type  1   force =     0.00278719   -0.00295795    0.00029858
     atom    3 type  1   force =     0.00159921   -0.00210625    0.00365728
     atom    4 type  1   force =     0.00049782    0.00164871   -0.00173859
     atom    5 type  1   force =    -0.00161404    0.00137120   -0.00242089
     atom    6 type  1   force =    -0.00003062   -0.00173263    0.00242025
     atom    7 type  1   force =     0.00308886    0.00175548   -0.00200138
     atom    8 type  1   force =    -0.00149959    0.00340815    0.00076241
     atom    9 type  1   force =     0.00022210    0.00087249   -0.00089094
     atom   10 type  1   force =     0.00117947   -0.00026066   -0.00062046
     atom   11 type  1   force =     0.00006297    0.00079764   -0.00137374
     atom   12 type  1   force =     0.00035895   -0.00177680   -0.00081573
     atom   13 type  1   force =    -0.00137345   -0.00411297    0.00191654
     atom   14 type  1   force =     0.00083181    0.00114268    0.00204343
     atom   15 type  1   force =    -0.00059583   -0.00044235   -0.00240033
     atom   16 type  1   force =    -0.00356281    0.00536576    0.00068785
     atom   17 type  1   force =     0.00241308    0.00195380   -0.00066546
     atom   18 type  1   force =     0.00090240   -0.00000149    0.00008528
     atom   19 type  1   force =     0.00164183    0.00320250   -0.00054169
     atom   20 type  1   force =    -0.00055468   -0.00265411    0.00038491
     atom   21 type  1   force =     0.00026246   -0.00151056    0.00014720
     atom   22 type  1   force =    -0.00076259   -0.00354927   -0.00282860
     atom   23 type  1   force =    -0.00047268    0.00470996   -0.00058481
     atom   24 type  1   force =    -0.00090377   -0.00162157    0.00093774
     atom   25 type  1   force =     0.00070631    0.00175707    0.00225349
     atom   26 type  1   force =    -0.00195226   -0.00166651    0.00131432
     atom   27 type  1   force =     0.00261652    0.00236715   -0.00135162
     atom   28 type  2   force =    -0.00079271    0.00249510   -0.00473763
     atom   29 type  2   force =    -0.00184381   -0.00424521    0.00278881
     atom   30 type  2   force =     0.00573121    0.00594109   -0.00664013
     atom   31 type  2   force =    -0.00129792    0.00293230   -0.00752138
     atom   32 type  2   force =    -0.00494468    0.00046999    0.00945916
     atom   33 type  2   force =    -0.00021419   -0.00561799    0.00149934
     atom   34 type  2   force =    -0.00152610   -0.00724059    0.01491374
     atom   35 type  2   force =    -0.00721222    0.00613115    0.00212592
     atom   36 type  2   force =     0.00242460   -0.00118860    0.00572828
     atom   37 type  2   force =     0.00173436   -0.00613479   -0.00956242
     atom   38 type  2   force =    -0.00389648   -0.00036628   -0.00317354
     atom   39 type  2   force =    -0.00392582    0.00231431    0.00983508
     atom   40 type  2   force =     0.00517143   -0.00480267   -0.00134310
     atom   41 type  2   force =     0.00337242   -0.00901732   -0.00112462
     atom   42 type  2   force =    -0.00433105   -0.00536916   -0.00290246
     atom   43 type  2   force =    -0.00116482    0.00804047   -0.01412343
     atom   44 type  2   force =     0.00410153    0.00804301    0.00629870
     atom   45 type  2   force =    -0.00626582    0.00557048    0.00811641
     atom   46 type  2   force =    -0.00174877   -0.00343047    0.00182640
     atom   47 type  2   force =     0.00611333    0.00114450   -0.01180818
     atom   48 type  2   force =    -0.00157839    0.00004773   -0.00101960
     atom   49 type  2   force =    -0.00373070   -0.00741143   -0.01471086
     atom   50 type  2   force =     0.00031703    0.00176027    0.00382529
     atom   51 type  2   force =     0.00617583   -0.00483908    0.01329881
     atom   52 type  2   force =     0.00367608    0.00750569    0.01520717
     atom   53 type  2   force =     0.00291462    0.00039377   -0.01337557
     atom   54 type  2   force =     0.00345668    0.00279336   -0.00483758
     atom   55 type  3   force =     0.00255739    0.00044238   -0.00057076
     atom   56 type  3   force =    -0.00565716    0.00160739   -0.00006908
     atom   57 type  3   force =     0.00121430    0.00046443    0.00734992
     atom   58 type  3   force =     0.00014327    0.00925901   -0.00214044
     atom   59 type  3   force =     0.00303573    0.00239412   -0.00368879
     atom   60 type  3   force =    -0.00335477   -0.00182081    0.00333214
     atom   61 type  3   force =    -0.00360869   -0.00687844   -0.00058586
     atom   62 type  3   force =    -0.00089952   -0.00313958    0.00061792
     atom   63 type  3   force =    -0.00162631   -0.00140612    0.00454851
     atom   64 type  3   force =     0.00148927    0.00225499   -0.00166536
     atom   65 type  3   force =     0.00034861   -0.00153270    0.00169475
     atom   66 type  3   force =     0.00063335   -0.00265791    0.00838080
     atom   67 type  3   force =    -0.00007372    0.00070285    0.00298259
     atom   68 type  3   force =    -0.00183515   -0.00094024    0.00032100
     atom   69 type  3   force =    -0.00071763    0.00221114   -0.01127612
     atom   70 type  3   force =     0.00239204    0.00363405   -0.00324837
     atom   71 type  3   force =     0.00555525    0.00332542   -0.00198949
     atom   72 type  3   force =    -0.00147658   -0.00055131    0.00633451
     atom   73 type  3   force =     0.00157686   -0.00433567   -0.00227812
     atom   74 type  3   force =    -0.00241296    0.00197828    0.00074806
     atom   75 type  3   force =    -0.00010373    0.00231634   -0.01021739
     atom   76 type  3   force =    -0.00256146   -0.00416352    0.00069195
     atom   77 type  3   force =     0.00244456   -0.00285174    0.00146168
     atom   78 type  3   force =     0.00056420   -0.00022468   -0.00676729
     atom   79 type  3   force =    -0.00282668    0.00310333    0.00084968
     atom   80 type  3   force =     0.00507779   -0.00388294   -0.00156984
     atom   81 type  3   force =    -0.00226479    0.00198580   -0.00251392
     atom   82 type  3   force =    -0.00150488    0.00134290    0.00249998
     atom   83 type  3   force =     0.00392190    0.00297745   -0.00063708
     atom   84 type  3   force =    -0.00150212    0.00136793    0.00778108
     atom   85 type  3   force =    -0.00043434    0.00257901    0.00220176
     atom   86 type  3   force =     0.00091353   -0.00084549    0.00162100
     atom   87 type  3   force =     0.00051268    0.00277917    0.00448535
     atom   88 type  3   force =     0.00219830   -0.00248572   -0.00079726
     atom   89 type  3   force =    -0.00006840    0.00195096   -0.00208669
     atom   90 type  3   force =    -0.00138764   -0.00118091   -0.00749381
     atom   91 type  3   force =     0.00127525    0.00225992   -0.00004552
     atom   92 type  3   force =     0.00489142    0.00401233    0.00227296
     atom   93 type  3   force =    -0.00113260    0.00154547    0.00100709
     atom   94 type  3   force =     0.00063268    0.00118361   -0.00070559
     atom   95 type  3   force =     0.00038991    0.00018708   -0.00053863
     atom   96 type  3   force =    -0.00028083    0.00388659   -0.00335886
     atom   97 type  3   force =     0.00009674    0.00869284   -0.00286449
     atom   98 type  3   force =     0.00380207    0.00194035   -0.00053017
     atom   99 type  3   force =    -0.00062446   -0.00011316    0.00622992
     atom  100 type  3   force =    -0.00056304   -0.00556177    0.00172328
     atom  101 type  3   force =     0.00543676   -0.00323281   -0.00129014
     atom  102 type  3   force =     0.00009968   -0.00245042    0.01248222
     atom  103 type  3   force =     0.00105625   -0.00633054   -0.00232281
     atom  104 type  3   force =    -0.00747945   -0.00291706   -0.00092448
     atom  105 type  3   force =    -0.00219143   -0.00315555   -0.00218016
     atom  106 type  3   force =     0.00182226   -0.00134325   -0.00010076
     atom  107 type  3   force =    -0.00503029    0.00146495   -0.00139481
     atom  108 type  3   force =     0.00234027   -0.00337420   -0.00848682
     atom  109 type  3   force =     0.00036046    0.00301150   -0.00172184
     atom  110 type  3   force =     0.00161154   -0.00089895   -0.00192551
     atom  111 type  3   force =    -0.00005474   -0.00127608    0.00042147
     atom  112 type  3   force =    -0.00247440    0.00686365    0.00109161
     atom  113 type  3   force =     0.00138621   -0.00295432   -0.00075977
     atom  114 type  3   force =    -0.00068183   -0.00134661    0.01055461
     atom  115 type  3   force =    -0.00280060   -0.00036325   -0.00024550
     atom  116 type  3   force =     0.00461356   -0.00169333    0.00004485
     atom  117 type  3   force =    -0.00174793    0.00166243    0.00349002
     atom  118 type  3   force =    -0.00348774   -0.00089164    0.00067171
     atom  119 type  3   force =    -0.00449422   -0.00060789    0.00106532
     atom  120 type  3   force =     0.00086349    0.00187453    0.01009781
     atom  121 type  3   force =     0.00064761   -0.00248972    0.00019928
     atom  122 type  3   force =     0.00077244   -0.00225467   -0.00116533
     atom  123 type  3   force =    -0.00010773   -0.00121574   -0.00114500
     atom  124 type  3   force =     0.00100531   -0.00266316   -0.00228044
     atom  125 type  3   force =    -0.00486827    0.00197403   -0.00259890
     atom  126 type  3   force =    -0.00104427    0.00033957   -0.00976707
     atom  127 type  3   force =    -0.00069305   -0.00599277    0.00046174
     atom  128 type  3   force =    -0.00090814    0.00250871   -0.00304085
     atom  129 type  3   force =    -0.00108377   -0.00030879   -0.01261069
     atom  130 type  3   force =    -0.00061169    0.00422879   -0.00014927
     atom  131 type  3   force =     0.00614463   -0.00279914    0.00120173
     atom  132 type  3   force =    -0.00258465   -0.00118724    0.01124695
     atom  133 type  3   force =     0.00076313   -0.00294892   -0.00177061
     atom  134 type  3   force =    -0.00103420    0.00292096    0.00109639
     atom  135 type  3   force =     0.00101312   -0.00114000    0.00778899

     Total force =     0.079917     Total SCF correction =     0.000243


     Computing stress (Cartesian axis) and pressure

          total   stress  (Ry/bohr**3)                   (kbar)     P=        0.57
   0.00000276  -0.00000002  -0.00000280            0.41       -0.00       -0.41
  -0.00000002   0.00000247  -0.00000094           -0.00        0.36       -0.14
  -0.00000280  -0.00000094   0.00000634           -0.41       -0.14        0.93


     Writing all to output data dir /n/holyscratch01/kozinsky_lab/sfalletta/QE/BaTiO3/BaTiO3-E0-0/BaTiO3.save/

     init_run     :      8.72s CPU     13.92s WALL (       1 calls)
     electrons    :  15119.75s CPU  16128.67s WALL (       1 calls)
     forces       :      6.54s CPU      6.79s WALL (       1 calls)
     stress       :     68.02s CPU     68.58s WALL (       1 calls)

     Called by init_run:
     wfcinit      :      2.60s CPU      2.83s WALL (       1 calls)
     potinit      :      1.29s CPU      3.88s WALL (       1 calls)
     hinit0       :      0.78s CPU      2.89s WALL (       1 calls)

     Called by electrons:
     c_bands      :    231.59s CPU    235.00s WALL (      22 calls)
     sum_band     :      9.83s CPU     10.04s WALL (      22 calls)
     v_of_rho     :      4.62s CPU     11.55s WALL (      23 calls)
     mix_rho      :      1.30s CPU      1.96s WALL (      22 calls)

     Called by c_bands:
     init_us_2    :      1.34s CPU      1.43s WALL (      45 calls)
     init_us_2:cp :      1.34s CPU      1.43s WALL (      45 calls)
     cegterg      :    228.22s CPU    231.50s WALL (      22 calls)

     Called by *egterg:
     cdiaghg      :     47.67s CPU     48.31s WALL (     398 calls)
     h_psi        :    107.58s CPU    109.01s WALL (     399 calls)
     g_psi        :      0.28s CPU      0.28s WALL (     376 calls)

     Called by h_psi:
     h_psi:calbec :     34.93s CPU     35.25s WALL (     399 calls)
     vloc_psi     :     45.47s CPU     45.93s WALL (     399 calls)
     add_vuspsi   :     26.72s CPU     27.06s WALL (     399 calls)

     General routines
     calbec       :     37.45s CPU     37.79s WALL (     404 calls)
     fft          :      8.59s CPU     18.42s WALL (     298 calls)
     ffts         :      0.14s CPU      0.15s WALL (      45 calls)
     fftw         :     42.31s CPU     42.70s WALL (   84004 calls)
     interpolate  :      0.41s CPU      0.42s WALL (      23 calls)

     Parallel routines

     Electric-field routines
     c_phase_fiel :  14871.26s CPU  15871.19s WALL (      66 calls)

     PWSCF        :      4h13m CPU      4h30m WALL


   This run was terminated on:  12:38: 8  25Jan2024            

=------------------------------------------------------------------------------=
   JOB DONE.
=------------------------------------------------------------------------------=
