216
Lattice="23.796506742820853 0.0 0.0 0.0 23.796506742820853 0.0 0.0 0.0 25.824151761259785" Properties=species:S:1:pos:R:3:forces:R:3:theta:R:1 pbc="T T T" 
Ti     -0.1131570000  23.7524000000   2.3394400000  -1.6447202410   0.7985618944   2.0174577442   0.7409845626  
Ti     23.6831000000  23.7669000000   6.7327000000  -0.1226666413  -0.8953444023   1.1159844330   0.7771453036  
Ti     23.8043000000   0.1024780000  10.9326000000   1.9611117765   0.7548335579   1.2525424394   0.5120059915  
Ti     -0.0010536000   4.0141200000   2.4002800000   0.5637263044   0.2565895765   1.4649788712   0.9210627976  
Ti     23.7216000000   3.9139800000   6.5992300000   0.4579080006  -0.3749941070   0.1786230731   0.2889272549  
Ti      0.0310702000   4.0902800000  10.7543000000   1.0006248923   0.8317144439   1.7357190113   0.8001407680  
Ti      0.2420410000   7.9029300000   2.1920700000   0.8013132356   1.2757030132   2.1158240976   0.8146084311  
Ti      0.0775096000   8.0011300000   6.6719500000   0.0374345806  -1.1305783017   1.2563626312   0.7431554478  
Ti      0.0247306000   8.0094500000  10.9191000000   0.7562587656   0.8879014351   1.2158925626   0.7216658281  
Ti      3.9993800000  23.7887000000   2.3347400000  -0.5917387998   0.5040483136   2.3564010111   0.9496642339  
Ti      3.8495200000  23.7937000000   6.6950000000  -0.2218869926   0.3081504320   0.7771573946   0.8984843954  
Ti      4.0573500000   0.0183502000  10.8930000000  -0.6952852989   0.1421055073   1.7588704815   0.9273615673  
Ti      4.0663700000   4.0601000000   2.3075000000   0.3877287174   0.4303655021   1.5348062629   0.9355830122  
Ti      3.8873600000   3.8270300000   6.6305800000  -0.8722632555   0.1133311711   1.5099628490   0.8640818026  
Ti      3.9719600000   4.0528900000  10.8880000000   0.0697226236  -0.0829126368   1.1298876686   0.9954351280  
Ti      4.1109000000   7.9890900000   2.1805400000   0.4923149192   0.6510689646   2.0393798741   0.9283984188  
Ti      4.0986400000   8.0548800000   6.7153200000   0.7743075527  -1.5243160356   1.3909434009   0.6310866131  
Ti      3.8735800000   7.9726800000  10.9996000000   0.0786019210   1.3113942308   0.4936988986   0.3517752145  
Ti      7.9219000000  -0.0730151000   2.2896200000   0.3047662303  -0.8157099173   1.8403635729   0.9039214991  
Ti      7.9272300000  23.8252000000   6.6481800000  -1.2097164789   0.8466111829  -0.4224371290  -0.2750637228  
Ti      7.9554000000  23.8886000000  10.8277000000   0.7294033990  -0.2378455411   0.7577830376   0.7027257070  
Ti      7.9377900000   3.8857800000   2.3137500000   0.4800258185  -0.8240738841   1.5284383393   0.8483934898  
Ti      7.9354600000   4.0497800000   6.6191900000  -1.5029499266  -0.1746561718   1.7355372007   0.7537658965  
Ti      7.9326400000   4.0140000000  10.9744000000   0.3118325176   0.0725465611   1.4752316845   0.9772508875  
Ti      8.0687600000   7.7435500000   2.3585300000   0.3138126515  -0.2005852322   1.2178192400   0.9562790675  
Ti      7.9482700000   8.0098200000   6.4731000000   0.2792804560   0.2565661111   1.4904769412   0.9691209702  
Ti      7.9722800000   7.9542700000  10.8710000000   0.1025667321   0.6375213077   1.5540985844   0.9234607982  
Ti     11.7777000000  -0.0510791000   2.2736500000   0.0891320485  -0.8833439153   1.0501166079   0.7636482898  
Ti     11.7845000000   0.0750347000   6.5000500000   0.1750821156   0.5051049590   1.6448029560   0.9510294035  
Ti     11.9829000000   0.0920239000  11.0077000000   0.6430559294   1.4442705663   2.0941931492   0.7981088630  
Ti     11.7866000000   3.9474000000   2.2472800000  -0.0118431367  -0.1700529729   1.9785411982   0.9963090346  
Ti     11.8648000000   4.1293400000   6.7265800000   0.2976240458   0.0641342882   1.6698387900   0.9837817937  
Ti     11.8969000000   4.0675700000  10.9757000000   0.3343321743   0.6721948925   0.6350269971   0.6458105980  
Ti     11.9724000000   7.8205900000   2.3010900000   0.7462068035   0.5267042182   1.2462212666   0.8065676637  
Ti     11.9636000000   8.0235800000   6.6314200000  -0.8925677401  -0.1410914405   1.6284062481   0.8743896403  
Ti     11.7786000000   7.9557700000  11.0354000000  -0.1865768471  -0.1485053261   1.2695841445   0.9828137666  
Ti     15.7888000000  23.8732000000   2.2254000000   0.0812778048   0.2366365699   1.9644881370   0.9919865209  
Ti     15.7272000000  -0.0191832000   6.6500800000   0.1643751696   0.2363453060   1.1650746220   0.9708020916  
Ti     15.8676000000   0.0947196000  10.9678000000   0.6278870161   0.4107656773   1.1406532724   0.8354561427  
Ti     15.7896000000   3.9568000000   2.2881000000  -1.1609736969  -0.0550570333   1.8591306969   0.8479323401  
Ti     15.8850000000   4.0708500000   6.5837900000  -0.2586299352   1.3950188519   1.3259766964   0.6828057806  
Ti     15.8791000000   3.9148900000  10.9143000000   0.5096302067   0.2408739033   1.4432026592   0.9314713273  
Ti     15.9104000000   7.8633500000   2.3525500000   1.2510760090   0.4440860872   1.6182762194   0.7731344838  
Ti     15.8915000000   7.9992600000   6.5151400000   1.3735665320   0.5407755787   1.5742863767   0.7294697151  
Ti     15.8582000000   7.9222800000  11.0146000000  -0.0490625894  -0.4419883258   1.4586376403   0.9565331417  
Ti     19.6669000000  23.8026000000   2.3049300000   0.0164385622  -0.3317019450   2.1099216937   0.9878376107  
Ti     19.6979000000  -0.0272566000   6.7363600000  -1.3290187320  -0.7370203330   1.5373066351   0.7111673955  
Ti     19.8047000000  23.8553000000  10.9890000000   1.1227843866   0.8205102308   0.5413124646   0.3627417737  
Ti     19.7675000000   3.9165200000   2.3986100000  -0.1467688160   0.0272494048   1.0388490708   0.9898331119  
Ti     19.7732000000   3.8191500000   6.5120100000  -0.5769465609   0.2489423446   1.7524383805   0.9413172152  
Ti     19.8119000000   4.0055300000  10.9501000000   1.0004314935   0.4539214016   1.7999085630   0.8535666810  
Ti     20.0256000000   7.8926500000   2.2445500000   1.5581009454   0.1141475777   1.3953535826   0.6661389477  
Ti     19.8924000000   7.8821200000   6.5292900000   0.5106914011  -0.1020610570   1.5012552493   0.9447670790  
Ti     19.8992000000   7.9062900000  10.9060000000   1.2536119618   0.2523081853   1.6398105707   0.7885727139  
Ti     23.8972000000  11.9442000000   2.3900200000   1.4822510747  -0.4417755158   1.2409401112   0.6257990347  
Ti     -0.1724010000  11.8553000000   6.4964200000  -0.0725691722   1.8636596863   1.0054633000   0.4745365254  
Ti      0.0125125000  11.9781000000  10.8605000000   0.2385983814   0.5391082699   1.5106658390   0.9315734578  
Ti      0.0457288000  15.9792000000   2.2168300000   1.1429054551   0.1608547188   0.8926225661   0.6117754569  
Ti     23.7103000000  15.8553000000   6.4877400000   0.3924922708  -0.3742570359   1.0485233621   0.8882220431  
Ti     23.8319000000  15.8786000000  10.9053000000   0.7995060300   0.0842768368   1.3469250111   0.8586773653  
Ti     -0.0382472000  19.8413000000   2.4019100000  -0.3766496243   0.3106974229   1.8339971041   0.9663405750  
Ti     23.7014000000  19.8581000000   6.5083300000  -0.5672835353  -0.0366569861   0.2468400687   0.3982926986  
Ti     23.6451000000  19.7786000000  10.7634000000   0.1661832775   1.6844643815   1.8375908319   0.7355203350  
Ti      4.0405300000  11.9320000000   2.3246000000   0.2078637370   1.0503126225   0.4160887699   0.3622282495  
Ti      3.9091500000  11.8800000000   6.4363400000  -1.0032269832   1.2297263524   1.2693981041   0.6246252211  
Ti      3.9847800000  11.9098000000  10.8557000000   1.1206040969   1.6407433091   1.6203957418   0.6320094932  
Ti      4.1330800000  16.0119000000   2.3496600000   1.0518333506   0.5593487913   1.5435802815   0.7916457814  
Ti      3.8225300000  15.7347000000   6.5588900000  -1.1819722938   0.0412779671   0.9956059967   0.6440048351  
Ti      3.9768200000  16.0134000000  10.6905000000   0.1171657007   0.3690616636   1.3424907169   0.9608318652  
Ti      3.8661600000  19.9269000000   2.3861900000  -0.5071422504   0.5443014961   1.6162681719   0.9083914598  
Ti      3.8597000000  19.7524000000   6.6026200000  -0.8291209567  -0.9895955876   1.3658254012   0.7267270268  
Ti      4.0049100000  19.8765000000  10.9541000000  -0.5319642393   0.8667302186   1.5589226221   0.8375439399  
Ti      8.0024100000  11.7512000000   2.2725800000   1.2995665048  -1.1268763056   1.6483557665   0.6918905649  
Ti      7.9895200000  11.9151000000   6.6818900000  -1.4870066205  -0.2597649505   0.8007896923   0.4686322863  
Ti      7.9874400000  11.9270000000  10.9177000000   0.3561043555   0.6016403156   1.0919392272   0.8421705666  
Ti      8.0239200000  15.7960000000   2.2194000000   0.4458908477  -0.8471217390   1.8344043115   0.8865402427  
Ti      7.9546400000  15.8304000000   6.6188100000  -1.4586870234   0.8050779275   1.5148726049   0.6727283021  
Ti      7.8603700000  15.8441000000  10.8035000000   0.6725137190   0.9110249991   1.4492376045   0.7879863766  
Ti      7.8878000000  19.8147000000   2.3078500000  -0.5388992492  -0.7580912336   2.0545690519   0.9109967395  
Ti      8.0374000000  19.7536000000   6.6913300000  -1.0419009419  -1.3131143650   0.6949049132   0.3829552240  
Ti      7.8996600000  19.8569000000  10.8769000000  -0.1854750584   0.7106135885   1.3686655972   0.8811565063  
Ti     11.8626000000  11.7853000000   2.3289400000  -0.2743253030  -1.5259456420   1.3955438035   0.6690115428  
Ti     11.9475000000  11.9482000000   6.6576200000  -0.6248186955   0.1236848428   0.9853545793   0.8398186280  
Ti     11.9246000000  11.9177000000  10.9583000000  -0.0861625235   1.8347140016   1.4362068948   0.6159787235  
Ti     11.9131000000  15.8295000000   2.1928900000  -0.1468091093  -1.3942145300   1.7265838073   0.7763178844  
Ti     11.8260000000  15.9034000000   6.5904000000   0.4992122320   0.5279756568   1.4803876476   0.8976962795  
Ti     11.8846000000  15.9236000000  11.0950000000  -0.3584279612   0.9603902359   1.3423203211   0.7947533877  
Ti     11.8602000000  19.7504000000   2.2195600000  -0.4782682071  -0.5180924535   2.0314796305   0.9447138524  
Ti     11.8988000000  19.9555000000   6.6282200000   0.8054549152   1.0774028674   1.5727826934   0.7599491730  
Ti     11.8289000000  19.9215000000  11.0410000000  -0.1781289410  -0.2066988636   0.9056639293   0.9574869075  
Ti     15.9338000000  11.8500000000   2.4726400000   0.9040788359   0.3537724662   1.5419429826   0.8462381960  
Ti     15.8561000000  11.9198000000   6.5766700000   0.8619724989  -0.5654347374   1.1800084005   0.7530912469  
Ti     15.8433000000  11.8115000000  11.0106000000   0.6429048079  -0.1450437110   1.4395591064   0.9092405176  
Ti     15.8388000000  15.9169000000   2.3403200000  -0.2101178062   0.2042861844   1.2029404727   0.9715841214  
Ti     15.8387000000  15.8064000000   6.5809700000  -0.5646607675   1.0627936209   1.5621816852   0.7921814145  
Ti     15.8878000000  15.8622000000  10.9622000000   0.4421080739   0.7481278999   0.6859351886   0.6195804766  
Ti     15.8041000000  19.8536000000   2.2080700000  -0.3713641149   0.5695736500   2.0114550241   0.9473381816  
Ti     15.7565000000  19.8824000000   6.7508000000  -0.3964941614   0.3599639781   1.2037442676   0.9136642842  
Ti     15.7597000000  19.8997000000  11.0052000000  -0.0623741745   1.5895502315   0.6903409697   0.3980956801  
Ti     19.9461000000  11.7801000000   2.2981400000   1.0832755634   0.1473911954   1.3532546438   0.7778728178  
Ti     19.8210000000  11.8249000000   6.5715300000   0.4670561471  -1.0452156288   1.1996568350   0.7234474301  
Ti     19.7953000000  11.9207000000  10.9179000000   0.4435590811   0.3227039283   1.4987684024   0.9390828851  
Ti     19.8127000000  15.7498000000   2.3254600000   0.4482848442  -0.4742435261   1.5854793768   0.9247315169  
Ti     19.7731000000  15.8892000000   6.5225800000  -1.0316766975  -0.0599741279   1.2965643309   0.7819952435  
Ti     19.8158000000  15.8627000000  10.8472000000   0.9966682463   0.2125979386   1.2408304851   0.7727760731  
Ti     19.7225000000  19.9307000000   2.3948900000  -0.5102796679  -0.2790476799   1.8825135387   0.9554416740  
Ti     19.6875000000  19.7992000000   6.5799900000  -1.0480908493  -0.4002742076   1.4235727413   0.7854054613  
Ti     19.7580000000  19.8593000000  11.0310000000   0.0113230884   0.7158803915   0.9555182394   0.8002687626  
Ti     -0.0390855000  23.8669000000  15.2410000000  -0.1264057721   1.4294364337   0.8847430760   0.5248102273  
Ti     23.7241000000  23.8901000000  19.5621000000   0.4228901613   2.0177621424   2.1327317371   0.7189950006  
Ti     23.7703000000  23.8246000000  23.8144000000  -0.0555400310   0.6555401869   0.5107331868   0.6132236114  
Ti     23.7875000000   4.0638500000  15.2220000000  -0.1875927648   0.3963531174   1.7039830297   0.9684465594  
Ti      0.0236850000   4.0363400000  19.4064000000  -0.4668702595   0.5117510877   1.1288707768   0.8523224034  
Ti     23.8022000000   3.9265800000  23.7478000000  -1.1852728234  -0.9577375008   1.7373486451   0.7517881701  
Ti     23.8510000000   8.0042500000  15.1118000000  -0.0363576280   0.3876179158   1.8469071184   0.9784966967  
Ti      0.1625610000   8.0319900000  19.6602000000   0.1687067589   0.1968281527   1.5812406950   0.9868260519  
Ti     23.9429000000   7.8199300000  23.8302000000   0.4979609511  -0.9449273477   0.7918451301   0.5955454370  
Ti      3.9617900000  23.7952000000  15.3836000000   0.4944353013   1.4385146818   1.5655479410   0.7172113814  
Ti      4.0095500000  -0.1416930000  19.5369000000  -1.0805237015  -0.5311996143  -0.2655708864  -0.2153899680  
Ti      3.9673400000  -0.1164470000  23.7343000000   1.2398368420  -0.0676055207   1.4827208354   0.7666734277  
Ti      3.9425500000   4.0613800000  15.2134000000  -0.1546379966   0.7345355306   1.6536329181   0.9105768451  
Ti      3.9874400000   3.9684200000  19.5533000000   1.3151063014   0.8777102470   1.4682547284   0.6804734138  
Ti      3.8976200000   3.8545700000  23.7927000000   0.0486452843  -1.5004200636   1.3782118085   0.6762854736  
Ti      3.9228500000   7.9843400000  15.2084000000  -0.5413678149   0.2545122460   2.1113592009   0.9621276961  
Ti      3.9959800000   7.8716200000  19.6888000000   1.7956306772  -0.2162855222   1.8477694253   0.7146388966  
Ti      4.0578300000   7.9142800000  23.8011000000   0.1461304735  -0.9292852838   1.0924246006   0.7577668485  
Ti      7.8468600000   0.0147779000  15.2327000000  -0.5171963840  -0.7726410936   1.4096042896   0.8347651038  
Ti      7.9000700000   0.0986210000  19.4035000000   1.2138713910   0.1099602578   1.6977620815   0.8123383409  
Ti      7.9071700000  23.7621000000  23.8859000000  -0.9360208761  -1.3961017451   1.1921800185   0.5785285876  
Ti      7.8513900000   4.0404900000  15.3616000000   0.3267213206   0.5053409231   1.3289851829   0.9109654199  
Ti      8.0344900000   4.0736700000  19.4269000000   0.9935667519   0.8463994082   1.4445607716   0.7419894417  
Ti      7.8699600000   3.9593600000  23.7996000000  -0.4433339847  -0.8091908850   1.7361819191   0.8830458588  
Ti      7.8892000000   7.9560300000  15.3604000000  -0.1747456316   0.5525010939   1.4986584126   0.9327039932  
Ti      8.0056600000   7.9635200000  19.5309000000  -0.0519132812  -0.4655629770   1.3240002609   0.9427321318  
Ti      8.0021400000   7.8378000000  23.7753000000   0.4367421558  -0.2453590326   1.4071940986   0.9420860962  
Ti     11.8589000000  -0.1164620000  15.2227000000   1.1478482465  -0.8378464188   1.1435646536   0.6269254439  
Ti     11.9828000000  23.8547000000  19.4547000000  -1.3370881577   1.0336692547   0.8515084491   0.4499517779  
Ti     11.8320000000  23.9039000000  23.8627000000   0.5466797457   0.2911380331   1.9160124447   0.9515194894  
Ti     11.8740000000   3.8131400000  15.2143000000  -0.5002193312  -0.0490566459   1.4603343881   0.9455612976  
Ti     11.9627000000   3.9553300000  19.5131000000  -0.9204671421   0.1325809309   1.1067081609   0.7655919049  
Ti     11.8175000000   3.9799000000  23.7781000000  -0.3579802997   1.1457800595   1.3345627391   0.7434896206  
Ti     11.8090000000   7.7987500000  15.1182000000   0.7984619145  -1.2216271504   0.8712706880   0.5125984728  
Ti     12.0187000000   8.0276700000  19.4162000000   0.9316728377   1.4688222722   1.5414915534   0.6632510635  
Ti     11.9633000000   8.0048600000  23.7531000000   0.5185759507  -0.4556233089   1.5054201599   0.9089926722  
Ti     15.8377000000  23.9035000000  15.2389000000   0.6763377506   0.7677771905   1.6198633879   0.8454613742  
Ti     15.9488000000  23.8499000000  19.5095000000   0.8033313635   1.2362657354   1.7554665616   0.7657578291  
Ti     15.8675000000  23.8188000000  23.9921000000  -1.2299230015   0.4648284598   1.0857566189   0.6367396658  
Ti     15.8458000000   4.0454900000  15.2519000000   0.2784750688   0.3098590385   1.3947123142   0.9581673142  
Ti     15.8403000000   4.0032500000  19.5242000000   0.7738930161   0.1667230135   0.9828437070   0.7787875672  
Ti     15.7969000000   4.0291000000  23.7628000000  -0.2470954540   0.7187138287   1.3809741852   0.8760905173  
Ti     15.9611000000   7.9668600000  15.2091000000   0.0772725294   0.7441418519   1.4609767570   0.8900834175  
Ti     15.9284000000   7.9387700000  19.5195000000   0.7253314670  -0.0282644833   1.7197915864   0.9212979804  
Ti     15.8665000000   7.9792200000  23.8383000000   0.2975764369   0.7505758285   1.4819964445   0.8781317684  
Ti     19.8844000000   0.0578555000  15.1265000000   0.4778283970   0.5360574915   1.8008303457   0.9288719394  
Ti     19.8533000000  23.8817000000  19.5805000000   0.7977211347   1.5169833353   1.6556973813   0.6947805558  
Ti     19.7206000000   0.0144768000  23.8570000000  -0.0612152574   0.3797734837   1.1568852100   0.9489175293  
Ti     19.8140000000   3.9854100000  15.2690000000   0.3916334393   1.3687954058   1.8758688989   0.7965590275  
Ti     19.8734000000   4.0099200000  19.4832000000   0.3242298856   0.5543977213   1.2783199076   0.8935622304  
Ti     19.7215000000   4.1257600000  23.8207000000  -1.0277949340   0.2980932686   1.3756012529   0.7892859282  
Ti     19.8720000000   8.0830000000  15.2767000000   1.2631709800   1.1399204459   1.6523459395   0.6966737076  
Ti     20.0286000000   7.9835200000  19.5477000000   0.8509387440  -0.1759899413   1.4475297951   0.8573807230  
Ti     19.8316000000   8.0528500000  23.8874000000   0.8096134173   1.3444288353   0.9359597588   0.5122123478  
Ti     23.7316000000  12.0097000000  15.2575000000   0.0575249178   1.1397006394   1.4419194800   0.7841432407  
Ti     23.8130000000  12.0361000000  19.4848000000  -0.3364110138   0.5516895582   1.6637226726   0.9321625737  
Ti      0.1400780000  11.9329000000  23.8774000000   0.2697138398  -0.3389007290   1.8949737338   0.9748595740  
Ti     23.9334000000  15.9037000000  15.2350000000   0.6641239597  -0.0572097296   1.9410679009   0.9457852047  
Ti     23.8636000000  15.9970000000  19.5508000000   1.4275386807   1.0441913549   1.4750579732   0.6404826970  
Ti     23.7907000000  15.9713000000  23.9465000000  -0.2577289531   0.2480351800   1.0241788666   0.9440787887  
Ti     23.8419000000  19.8028000000  15.3000000000   0.6006408763   0.8776387402   1.8507039283   0.8670400668  
Ti     23.8063000000  19.9544000000  19.6351000000   1.8397611873  -0.8737625640   1.0706648134   0.4653083359  
Ti     23.8212000000  19.8892000000  23.8361000000   0.5517237013  -0.3023921713   1.3681483971   0.9085383600  
Ti      3.9558100000  11.8741000000  15.3538000000   0.7784880904   0.0486398481   1.9905894051   0.9310712825  
Ti      3.9562600000  11.8855000000  19.5293000000   0.8735274541  -0.9164554822   0.8028319206   0.5355212615  
Ti      3.9866100000  11.8931000000  23.8242000000   0.0691549468  -0.5127061304   1.5652893883   0.9494835038  
Ti      4.0304800000  15.9298000000  15.2896000000  -0.0609003180   0.5113255681   2.2264141248   0.9742806621  
Ti      4.0260400000  15.8924000000  19.6210000000   0.8091950797   0.6858956965   1.0607960199   0.7071128470  
Ti      4.0050600000  15.8741000000  23.8273000000   0.1272235397  -0.5739033025   0.9168820080   0.8418412432  
Ti      3.9888000000  19.8556000000  15.2965000000   0.0859985660   0.6148700481   2.1957703975   0.9622737043  
Ti      4.1689800000  19.8942000000  19.7443000000   0.6129778943   0.3552797103   1.1307344209   0.8473961077  
Ti      4.1502400000  19.8930000000  23.7973000000  -0.1185142577   0.0441674719   1.0203936293   0.9924057067  
Ti      7.8522300000  11.8950000000  15.2199000000   0.6269283336   0.3176820543   1.8750551180   0.9363820439  
Ti      7.9166700000  11.8786000000  19.5724000000   0.1980443090   0.7397799404   1.1002386956   0.8207489341  
Ti      7.9667700000  11.7690000000  23.8526000000   0.9271510232  -0.0664354523   1.1895299570   0.7879575483  
Ti      7.9566300000  15.8149000000  15.3424000000   0.7410681323  -0.1289406924   1.9874760581   0.9352576079  
Ti      7.9717000000  15.7680000000  19.5635000000   0.5359729956   0.0856501390   0.8169038885   0.8329100620  
Ti      8.0227800000  15.6690000000  23.8029000000   0.6926782687  -0.8271388510   1.1477201338   0.7286233233  
Ti      8.0117800000  19.7367000000  15.3745000000   0.8912546293  -0.0247132305   1.8586101871   0.9016244121  
Ti      8.1247900000  19.9010000000  19.6435000000   0.0494894977   0.9428652701   0.5425777501   0.4982529690  
Ti      7.9855700000  19.6877000000  23.7661000000   0.3723599726  -0.7363289735   0.9497621046   0.7549023752  
Ti     11.8765000000  11.7502000000  15.2071000000  -0.8321327550  -1.0177454061   0.9703883181   0.5938786694  
Ti     11.9512000000  11.9884000000  19.4328000000   1.6915574839   0.5753299197   1.0829631411   0.5183374373  
Ti     11.9782000000  11.8515000000  23.8210000000   1.6173197677   0.3851674957   1.8410327078   0.7421661711  
Ti     11.8912000000  15.7178000000  15.2486000000   1.4400807177  -0.7211724341   1.5270261120   0.6880359369  
Ti     12.0157000000  15.8491000000  19.5112000000   1.6794865217  -0.6370888735   0.8550604176   0.4298096493  
Ti     12.0046000000  15.8429000000  23.8685000000  -0.5603048905   1.1975148586   1.3251302849   0.7079122073  
Ti     11.9172000000  19.7049000000  15.1450000000   1.0935169665  -0.4868352509   1.5851576145   0.7980327877  
Ti     12.0594000000  19.7740000000  19.5319000000   0.8839445363   1.1292443914   0.2552503075   0.1752362382  
Ti     11.9656000000  19.8275000000  23.6426000000   0.3587578356   0.4926058159   0.7529530518   0.7773125104  
Ti     15.9244000000  11.9269000000  15.1970000000  -0.4070116927   0.6277744235   0.9524115129   0.7863795984  
Ti     16.0048000000  11.8589000000  19.5193000000   0.5595086110   1.8022269108   2.0312465020   0.7326275184  
Ti     16.0253000000  11.8929000000  23.9338000000   0.2492952411   0.5471727222   1.7531008773   0.9459088795  
Ti     16.0017000000  15.8376000000  15.1646000000   0.8063228407   0.9201946352   1.7393751580   0.8179215063  
Ti     16.0487000000  15.8773000000  19.5182000000   0.3543966744   0.3078950998   2.2346539415   0.9786370558  
Ti     15.8998000000  15.8067000000  24.0027000000   0.0682071270   0.5174979819   1.2618476372   0.9240608903  
Ti     15.9332000000  19.9121000000  15.1919000000   0.2352621595   0.9329468621   1.6755063294   0.8671887027  
Ti     15.9736000000  19.8152000000  19.4833000000   0.2360332164  -0.4110111099   1.4351410128   0.9495562823  
Ti     15.9743000000  19.8638000000  23.8290000000   0.5192586575   1.0215393753   1.0373186277   0.6710976612  
Ti     19.7781000000  11.9487000000  15.2227000000   0.3954704719   0.0742301884   1.8963549489   0.9782216003  
Ti     19.8578000000  11.9000000000  19.5356000000  -0.0286913530   0.9206999969   1.1953756135   0.7921026033  
Ti     19.8678000000  11.9148000000  23.8908000000   0.5113468082   0.4831338425   1.5740320853   0.9129663632  
Ti     19.9207000000  15.8216000000  15.2892000000   1.3011035429   0.0609528310   2.0646311347   0.8457564273  
Ti     19.9050000000  15.8345000000  19.5941000000   0.3237774544   0.3263799066   0.7226800196   0.8437423467  
Ti     19.7105000000  15.9055000000  23.8172000000  -0.3221679375   0.4516184055   0.9726362167   0.8686424595  
Ti     19.9258000000  19.7959000000  15.1331000000   0.0845822087   0.5870210110   1.3332498539   0.9136772529  
Ti     19.9417000000  19.8847000000  19.5082000000  -0.2147938751   0.1973546326   1.0683183759   0.9646871697  
Ti     19.9286000000  19.8717000000  23.7625000000   0.3898651230   0.7893256861   1.6730252969   0.8849578600  
216
Lattice="23.796506742820853 0.0 0.0 0.0 23.796506742820853 0.0 0.0 0.0 25.824151761259785" Properties=species:S:1:pos:R:3:forces:R:3:theta:R:1 pbc="T T T" 
Ti     -0.1038280000  23.8037000000   2.4202700000  -1.8401605592  -0.6395844890   1.0889714867   0.4879250205  
Ti     23.7507000000  23.8501000000   6.6964800000  -0.0811213322  -0.1677224865   0.3438366520   0.8792219422  
Ti     23.7617000000  -0.0055812800  10.8665000000   0.7223931866  -0.6383329169   1.2042382587   0.7806719903  
Ti      0.0379493000   3.9661800000   2.3784500000  -0.4564522311  -0.3310956343   0.8643834184   0.8375385038  
Ti     23.9105000000   4.1001500000   6.6477900000   0.6555859478  -0.3664251968   1.0274890733   0.8073229497  
Ti     -0.0693687000   3.9548700000  10.9593000000   0.0497225410  -0.9804663620   1.3183104199   0.8020414141  
Ti     -0.0314096000   7.8931100000   2.3404200000  -0.0065920172   0.4339184489   1.9403710559   0.9758906082  
Ti     -0.0284216000   7.9325400000   6.6535500000  -1.1827222594  -1.1597198693   0.6781943485   0.3789014203  
Ti     -0.0550779000   7.7790600000  11.0444000000  -0.7453185887  -0.5666013741   1.3650019918   0.8246628715  
Ti      3.8836000000  23.6909000000   2.3813300000  -0.4026594085  -1.1380746714   1.6318306918   0.8039238187  
Ti      3.9653600000  23.6452000000   6.6295100000   0.1982554116   0.4693755709   0.4531871121   0.6645878312  
Ti      4.0631100000  -0.0837044000  10.9402000000  -0.5599638593  -1.0601929546   1.3414365188   0.7455854023  
Ti      3.9342600000   3.9953000000   2.4530900000   0.2797414948  -1.0563757749   1.4585468085   0.8002954995  
Ti      3.9146200000   3.9020200000   6.5879700000  -0.0161139879  -0.7336732794   0.8736556339   0.7657137200  
Ti      3.9971000000   3.8610500000  10.8943000000  -0.9215454518  -1.5373804247   1.1963633485   0.5551543255  
Ti      3.9515100000   7.8966600000   2.4610600000  -0.4019221437  -0.7186950781   2.0508395178   0.9279905409  
Ti      3.9858900000   7.8806900000   6.8613800000   0.8193188122  -1.8307071347   1.1478028214   0.4966924763  
Ti      3.9565000000   7.8223000000  11.0086000000  -0.7227727009  -0.4850565349   0.2497148253   0.2757575513  
Ti      7.9425200000  -0.0257877000   2.1593600000   0.6210306669   0.2890053383   1.6174166485   0.9208257327  
Ti      7.9587300000  23.8368000000   6.4724800000   0.0360047028   0.6542029760   0.6269059794   0.6913375994  
Ti      8.0641600000  23.7426000000  10.9528000000   0.8482970875  -0.5622531956   0.9597341881   0.6860801046  
Ti      7.9270000000   4.0864000000   2.3122700000   0.4022165390  -0.2521771525   0.5473677973   0.7554515861  
Ti      7.9420600000   3.9678200000   6.5263700000  -0.7695915361  -0.3625395919   1.7443358266   0.8988062800  
Ti      7.8986300000   3.8715800000  10.9096000000  -0.5757000492  -1.2193664687   1.5594380024   0.7564267931  
Ti      7.9499400000   7.9327000000   2.3227600000   0.1875886981   1.2452447630   1.3560075100   0.7327543596  
Ti      8.0427400000   7.8481600000   6.6982800000   0.7102857372  -0.0045006129   0.7339663143   0.7185972421  
Ti      7.9406800000   7.8187800000  10.8737000000   0.2110614022  -0.8972456222   1.1263693371   0.7739031677  
Ti     11.9924000000   0.0668741000   2.1402100000   0.5841783842  -0.8253049710  -3.1851779834  -0.9531271375  
Ti     11.9514000000  -0.0228529000   6.4551600000   0.2788188801  -0.2337852416  -1.5349469772  -0.9730345112  
Ti     12.0077000000  -0.0250537000  10.8850000000   0.0435885623  -0.4544494825   1.0449246830   0.9163567041  
Ti     11.9098000000   4.0367300000   2.3719800000   0.6851283713  -0.2495109825   1.9058303689   0.9339785734  
Ti     11.9524000000   3.8931600000   6.7033600000   0.8561180157  -0.2600904340   0.4764413660   0.4700037574  
Ti     11.8476000000   3.8512200000  10.8484000000  -1.0583828321  -0.0785468275   1.0961095520   0.7184244976  
Ti     11.8441000000   7.8935900000   2.3890000000   0.2903014169   1.2338640016   0.9402826048   0.5957809995  
Ti     12.0524000000   7.9376500000   6.6753000000  -0.1927180925  -0.8714492857   0.8336195576   0.6825875300  
Ti     11.8417000000   7.9159900000  10.9224000000  -1.1348202488  -1.1394130530   1.5125348694   0.6851248569  
Ti     15.8797000000  23.7829000000   2.0708700000   0.9316251827  -0.7920393094  -1.3567611384  -0.7428257584  
Ti     15.9297000000   0.0040848100   6.3609100000   0.5679614718  -0.7275408745  -2.2122693893  -0.9228986214  
Ti     15.9226000000  -0.0081737300  10.5658000000   0.0509020761   0.3124041938  -1.7390845833  -0.9838373615  
Ti     15.7866000000   3.9913900000   2.3964000000  -0.2422820170  -1.0211796500   1.6398242206   0.8422620193  
Ti     16.0292000000   3.9419500000   6.7799500000  -0.2672748826  -0.0089826761   0.7207050560   0.9375375989  
Ti     15.8338000000   3.9412900000  10.9320000000  -0.9803404169  -0.0529621823   1.0191068992   0.7201762107  
Ti     15.7925000000   7.8958000000   2.3085600000  -0.7048711140   0.3475987689   1.0038282419   0.7873854544  
Ti     15.8552000000   7.9319400000   6.5624800000   0.9386518451  -0.4059895524   1.2552126489   0.7752579344  
Ti     15.8298000000   7.9004000000  11.0017000000  -1.1527682680  -0.7535321477   0.4602433444   0.3169565676  
Ti     19.7745000000  23.8938000000   2.3833400000  -0.1462604373  -1.3197364741   1.6304699977   0.7754013954  