
     Program PWSCF v.7.1 starts on 31Mar2024 at  9:52:34 

     This program is part of the open-source Quantum ESPRESSO suite
     for quantum simulation of materials; please cite
         "P. Giannozzi et al., J. Phys.:Condens. Matter 21 395502 (2009);
         "P. Giannozzi et al., J. Phys.:Condens. Matter 29 465901 (2017);
         "P. Giannozzi et al., J. Chem. Phys. 152 154105 (2020);
          URL http://www.quantum-espresso.org", 
     in publications or presentations arising from this work. More details at
     http://www.quantum-espresso.org/quote

     Parallel version (MPI), running on   112 processors

     MPI processes distributed on     1 nodes
     956545 MiB available memory on the printing compute node when the environment starts

     Reading input from /n/holyscratch01/kozinsky_lab/sfalletta/QE/BaTiO3/BaTiO3-wall-E0-0/BaTiO3-scf.inp

     Current dimensions of program PWSCF are:
     Max number of different atomic species (ntypx) = 10
     Max number of k-points (npk) =  40000
     Max angular momentum in pseudopotentials (lmaxx) =  4

     IMPORTANT: XC functional enforced from input :
     Exchange-correlation= PBE
                           (   1   4   3   4   0   0   0)
     Any further DFT definition will be discarded
     Please, verify this is what you really want


     R & G space division:  proc/nbgrp/npool/nimage =     112
     Subspace diagonalization in iterative solution of the eigenvalue problem:
     one sub-group per band group will be used
     scalapack distributed-memory algorithm (size of sub-group: 10* 10 procs)


     Parallelization info
     --------------------
     sticks:   dense  smooth     PW     G-vecs:    dense   smooth      PW
     Min         287     143     35                42083    14875    1853
     Max         288     144     36                42090    14884    1864
     Sum       32201   16101   4017              4713475  1666415  208381

     Using Slab Decomposition



     bravais-lattice index     =           14
     lattice parameter (alat)  =      22.4844  a.u.
     unit-cell volume          =   12335.5658 (a.u.)^3
     number of atoms/cell      =          135
     number of atomic types    =            3
     number of electrons       =      1080.00
     number of Kohn-Sham states=          540
     kinetic-energy cutoff     =     100.0000  Ry
     charge density cutoff     =     800.0000  Ry
     scf convergence threshold =      1.0E-08
     mixing beta               =       0.7000
     number of iterations used =            8  plain     mixing
     Exchange-correlation= PBE
                           (   1   4   3   4   0   0   0)

     Using Berry phase electric field
     In a.u.(Ry)  cartesian system of reference
        0.0000000000
        0.0000000000
        0.0000000000
     In a.u.(Ry)  crystal system of reference
        0.0000000000
        0.0000000000
        0.0000000000
     Number of iterative cycles:   1


     celldm(1)=  22.484440  celldm(2)=   1.000000  celldm(3)=   1.085208
     celldm(4)=   0.000000  celldm(5)=   0.000000  celldm(6)=   0.000000

     crystal axes: (cart. coord. in units of alat)
               a(1) = (   1.000000   0.000000   0.000000 )  
               a(2) = (   0.000000   1.000000   0.000000 )  
               a(3) = (   0.000000   0.000000   1.085208 )  

     reciprocal axes: (cart. coord. in units 2 pi/alat)
               b(1) = (  1.000000  0.000000  0.000000 )  
               b(2) = (  0.000000  1.000000  0.000000 )  
               b(3) = (  0.000000  0.000000  0.921483 )  


     PseudoPot. # 1 for Ba read from file:
     /n/holyscratch01/kozinsky_lab/sfalletta/QE/Inputs/Ba.upf
     MD5 check sum: d1993ebf099ea5c29fdb9ecc5bd2bc91
     Pseudo is Norm-conserving + core correction, Zval = 10.0
     Generated using ONCVPSP code by D. R. Hamann
     Using radial grid of 1958 points,  6 beta functions with: 
                l(1) =   0
                l(2) =   0
                l(3) =   1
                l(4) =   1
                l(5) =   2
                l(6) =   2

     PseudoPot. # 2 for Ti read from file:
     /n/holyscratch01/kozinsky_lab/sfalletta/QE/Inputs/Ti.upf
     MD5 check sum: 0b3868d933a8ea9356727c02a1b807de
     Pseudo is Norm-conserving + core correction, Zval = 12.0
     Generated using ONCVPSP code by D. R. Hamann
     Using radial grid of 1586 points,  6 beta functions with: 
                l(1) =   0
                l(2) =   0
                l(3) =   1
                l(4) =   1
                l(5) =   2
                l(6) =   2

     PseudoPot. # 3 for O  read from file:
     /n/holyscratch01/kozinsky_lab/sfalletta/QE/Inputs/O.upf
     MD5 check sum: e161f86cb4953fdc9aae83e76c3f29b8
     Pseudo is Norm-conserving + core correction, Zval =  6.0
     Generated using ONCVPSP code by D. R. Hamann
     Using radial grid of  936 points,  5 beta functions with: 
                l(1) =   0
                l(2) =   0
                l(3) =   1
                l(4) =   1
                l(5) =   2

     atomic species   valence    mass     pseudopotential
        Ba            10.00   137.32700     Ba( 1.00)
        Ti            12.00    47.90000     Ti( 1.00)
        O              6.00    15.99900     O ( 1.00)

     No symmetry found



   Cartesian axes

     site n.     atom                  positions (alat units)
         1           Ba  tau(   1) = (   0.1667771   0.1659883   0.0215221  )
         2           Ba  tau(   2) = (   0.1662210   0.1662205   0.3829439  )
         3           Ba  tau(   3) = (   0.1673264   0.1668654   0.7457458  )
         4           Ba  tau(   4) = (   0.1668879   0.4994216   0.0211890  )
         5           Ba  tau(   5) = (   0.1671482   0.5000090   0.3838960  )
         6           Ba  tau(   6) = (   0.1671718   0.4996959   0.7449152  )
         7           Ba  tau(   7) = (   0.1663350   0.8328971   0.0216659  )
         8           Ba  tau(   8) = (   0.1662001   0.8327804   0.3830598  )
         9           Ba  tau(   9) = (   0.1659912   0.8337592   0.7458291  )
        10           Ba  tau(  10) = (   0.4997693   0.1664268  -0.0175034  )
        11           Ba  tau(  11) = (   0.4995109   0.1671833   0.3445562  )
        12           Ba  tau(  12) = (   0.5003099   0.1666304   0.7065571  )
        13           Ba  tau(  13) = (   0.4996958   0.4999061  -0.0180019  )
        14           Ba  tau(  14) = (   0.4997884   0.5001492   0.3445009  )
        15           Ba  tau(  15) = (   0.4999856   0.4994153   0.7057651  )
        16           Ba  tau(  16) = (   0.4994730   0.8330999  -0.0179725  )
        17           Ba  tau(  17) = (   0.4994610   0.8326307   0.3434316  )
        18           Ba  tau(  18) = (   0.5002710   0.8340032   0.7064850  )
        19           Ba  tau(  19) = (   0.8332642   0.1660902   0.0211511  )
        20           Ba  tau(  20) = (   0.8327306   0.1661209   0.3830512  )
        21           Ba  tau(  21) = (   0.8328216   0.1663328   0.7454292  )
        22           Ba  tau(  22) = (   0.8334456   0.4995459   0.0220590  )
        23           Ba  tau(  23) = (   0.8334426   0.4999097   0.3833755  )
        24           Ba  tau(  24) = (   0.8328252   0.4993485   0.7450081  )
        25           Ba  tau(  25) = (   0.8328548   0.8338886   0.0215019  )
        26           Ba  tau(  26) = (   0.8326417   0.8330840   0.3833411  )
        27           Ba  tau(  27) = (   0.8339197   0.8332851   0.7459656  )
        28           Ti  tau(  28) = (   0.0006207   0.0003627   0.1953627  )
        29           Ti  tau(  29) = (  -0.0000786  -0.0007635   0.5570082  )
        30           Ti  tau(  30) = (  -0.0001835   0.0005087   0.9187428  )
        31           Ti  tau(  31) = (   0.0008388   0.3337791   0.1960052  )
        32           Ti  tau(  32) = (  -0.0005935   0.3327777   0.5573725  )
        33           Ti  tau(  33) = (   0.0002184   0.3331879   0.9193709  )
        34           Ti  tau(  34) = (   0.0004805   0.6660875   0.1957277  )
        35           Ti  tau(  35) = (  -0.0004348   0.6662256   0.5572503  )
        36           Ti  tau(  36) = (   0.0001329   0.6664100   0.9192446  )
        37           Ti  tau(  37) = (   0.3326961   0.0001963   0.1588395  )
        38           Ti  tau(  38) = (   0.3341313  -0.0007382   0.5201273  )
        39           Ti  tau(  39) = (   0.3330898  -0.0004038   0.8809157  )
        40           Ti  tau(  40) = (   0.3325220   0.3338094   0.1583261  )
        41           Ti  tau(  41) = (   0.3331597   0.3329070   0.5204208  )
        42           Ti  tau(  42) = (   0.3327366   0.3328482   0.8823817  )
        43           Ti  tau(  43) = (   0.3332997   0.6667788   0.1583127  )
        44           Ti  tau(  44) = (   0.3334132   0.6664160   0.5201131  )
        45           Ti  tau(  45) = (   0.3329682   0.6664871   0.8812592  )
        46           Ti  tau(  46) = (   0.6662683  -0.0003617   0.1588374  )
        47           Ti  tau(  47) = (   0.6670779  -0.0008086   0.5204856  )
        48           Ti  tau(  48) = (   0.6671615  -0.0002615   0.8814636  )
        49           Ti  tau(  49) = (   0.6662397   0.3338041   0.1575030  )
        50           Ti  tau(  50) = (   0.6662024   0.3339211   0.5198706  )
        51           Ti  tau(  51) = (   0.6673272   0.3341104   0.8815604  )
        52           Ti  tau(  52) = (   0.6663398   0.6664523   0.1584256  )
        53           Ti  tau(  53) = (   0.6667308   0.6673641   0.5191157  )
        54           Ti  tau(  54) = (   0.6670482   0.6673357   0.8816988  )
        55           O   tau(  55) = (  -0.0002680   0.1672968   0.1636516  )
        56           O   tau(  56) = (   0.1664293  -0.0004089   0.1645251  )
        57           O   tau(  57) = (  -0.0001102  -0.0007025   0.3393559  )
        58           O   tau(  58) = (  -0.0006273   0.1661836   0.5259712  )
        59           O   tau(  59) = (   0.1671952  -0.0007585   0.5259899  )
        60           O   tau(  60) = (   0.0006787   0.0006639   0.7001382  )
        61           O   tau(  61) = (  -0.0008332   0.1667067   0.8876057  )
        62           O   tau(  62) = (   0.1659935   0.0004865   0.8875679  )
        63           O   tau(  63) = (  -0.0008347  -0.0001631  -0.0227306  )
        64           O   tau(  64) = (  -0.0007405   0.5007245   0.1642322  )
        65           O   tau(  65) = (   0.1671386   0.3331285   0.1646419  )
        66           O   tau(  66) = (   0.0001441   0.3328074   0.3390411  )
        67           O   tau(  67) = (  -0.0004299   0.5007300   0.5261770  )
        68           O   tau(  68) = (   0.1673715   0.3334819   0.5253813  )
        69           O   tau(  69) = (  -0.0001849   0.3327254   0.7008817  )
        70           O   tau(  70) = (  -0.0007707   0.4995915   0.8879093  )
        71           O   tau(  71) = (   0.1663601   0.3333977   0.8880777  )
        72           O   tau(  72) = (  -0.0000474   0.3327033  -0.0223897  )
        73           O   tau(  73) = (  -0.0004304   0.8334973   0.1646239  )
        74           O   tau(  74) = (   0.1671797   0.6668781   0.1642200  )
        75           O   tau(  75) = (  -0.0006969   0.6667876   0.3386277  )
        76           O   tau(  76) = (   0.0006573   0.8334190   0.5255615  )
        77           O   tau(  77) = (   0.1667297   0.6667951   0.5264799  )
        78           O   tau(  78) = (   0.0003075   0.6664903   0.7013989  )
        79           O   tau(  79) = (  -0.0001330   0.8339266   0.8880905  )
        80           O   tau(  80) = (   0.1664753   0.6666612   0.8873096  )
        81           O   tau(  81) = (   0.0003565   0.6667855  -0.0225736  )
        82           O   tau(  82) = (   0.3337310   0.1674332   0.2021902  )
        83           O   tau(  83) = (   0.5006865  -0.0000344   0.2012080  )
        84           O   tau(  84) = (   0.3333964   0.0003635   0.3767054  )
        85           O   tau(  85) = (   0.3340236   0.1669619   0.5636574  )
        86           O   tau(  86) = (   0.4997702  -0.0004984   0.5626447  )
        87           O   tau(  87) = (   0.3336726  -0.0007376   0.7377365  )
        88           O   tau(  88) = (   0.3331579   0.1663462   0.9255361  )
        89           O   tau(  89) = (   0.4996697   0.0005156   0.9244971  )
        90           O   tau(  90) = (   0.3325340   0.0001667   0.0150825  )
        91           O   tau(  91) = (   0.3327267   0.4998899   0.2019900  )
        92           O   tau(  92) = (   0.4993843   0.3326641   0.2021322  )
        93           O   tau(  93) = (   0.3330671   0.3333967   0.3758023  )
        94           O   tau(  94) = (   0.3330916   0.5000718   0.5641013  )
        95           O   tau(  95) = (   0.4996950   0.3332940   0.5625642  )
        96           O   tau(  96) = (   0.3328636   0.3335112   0.7387368  )
        97           O   tau(  97) = (   0.3333151   0.5000000   0.9256460  )
        98           O   tau(  98) = (   0.5002430   0.3336683   0.9244223  )
        99           O   tau(  99) = (   0.3334800   0.3331998   0.0146186  )
       100           O   tau( 100) = (   0.3330838   0.8340988   0.2010872  )
       101           O   tau( 101) = (   0.4994191   0.6668213   0.2016660  )
       102           O   tau( 102) = (   0.3332073   0.6669298   0.3768681  )
       103           O   tau( 103) = (   0.3331904   0.8338903   0.5626623  )
       104           O   tau( 104) = (   0.4999944   0.6673368   0.5641198  )
       105           O   tau( 105) = (   0.3336798   0.6669590   0.7384629  )
       106           O   tau( 106) = (   0.3334421   0.8331723   0.9250489  )
       107           O   tau( 107) = (   0.4999618   0.6662966   0.9252399  )
       108           O   tau( 108) = (   0.3331473   0.6662648   0.0146839  )
       109           O   tau( 109) = (   0.6663724   0.1667430   0.2007745  )
       110           O   tau( 110) = (   0.8338228  -0.0003887   0.1638473  )
       111           O   tau( 111) = (   0.6664827   0.0001375   0.3768669  )
       112           O   tau( 112) = (   0.6659280   0.1671757   0.5633193  )
       113           O   tau( 113) = (   0.8337887   0.0001303   0.5265428  )
       114           O   tau( 114) = (   0.6667462   0.0005636   0.7382235  )
       115           O   tau( 115) = (   0.6664863   0.1664615   0.9246692  )
       116           O   tau( 116) = (   0.8334312   0.0003264   0.8870606  )
       117           O   tau( 117) = (   0.6672203   0.0002080   0.0150124  )
       118           O   tau( 118) = (   0.6662046   0.4995471   0.2024377  )
       119           O   tau( 119) = (   0.8337688   0.3333106   0.1651661  )
       120           O   tau( 120) = (   0.6667206   0.3325171   0.3763782  )
       121           O   tau( 121) = (   0.6659828   0.5004740   0.5637726  )
       122           O   tau( 122) = (   0.8329828   0.3339097   0.5266808  )
       123           O   tau( 123) = (   0.6668197   0.3330158   0.7380843  )
       124           O   tau( 124) = (   0.6664042   0.5006385   0.9250779  )
       125           O   tau( 125) = (   0.8327004   0.3331897   0.8876106  )
       126           O   tau( 126) = (   0.6663240   0.3339225   0.0144973  )
       127           O   tau( 127) = (   0.6670707   0.8341533   0.2020525  )
       128           O   tau( 128) = (   0.8340576   0.6672188   0.1645584  )
       129           O   tau( 129) = (   0.6673257   0.6666135   0.3759688  )
       130           O   tau( 130) = (   0.6666628   0.8341676   0.5641187  )
       131           O   tau( 131) = (   0.8326477   0.6670023   0.5265568  )
       132           O   tau( 132) = (   0.6664112   0.6660490   0.7375738  )
       133           O   tau( 133) = (   0.6667896   0.8334660   0.9254427  )
       134           O   tau( 134) = (   0.8340403   0.6665347   0.8886101  )
       135           O   tau( 135) = (   0.6662195   0.6667714   0.0142597  )

     number of k points=     1
                       cart. coord. in units 2pi/alat
        k(    1) = (   0.0000000   0.0000000   0.0000000), wk =   2.0000000

     Dense  grid:  4713475 G-vectors     FFT dimensions: ( 216, 216, 225)

     Smooth grid:  1666415 G-vectors     FFT dimensions: ( 144, 144, 160)

     Estimated max dynamical RAM per process >     187.53 MB

     Estimated total dynamical RAM >      20.51 GB

     Initial potential from superposition of free atoms

     starting charge    1079.5099, renormalised to    1080.0000
     Starting wfcs are  729 randomized atomic wfcs

     total cpu time spent up to now is       17.4 secs

     Self-consistent Calculation

     iteration #  1     ecut=   100.00 Ry     beta= 0.70
     Davidson diagonalization with overlap
     ethr =  1.00E-02,  avg # of iterations =  2.0

     Expectation value of exp(iGx):   (7.24656061116365751E-006,1.85618503300465416E-006)   1.0000000000000000     
     Electronic Dipole per cell (Ry a.u.)   2.5380372303521419     
     Ionic Dipole per cell (Ry a.u.)   13734.085957190531     

     Expectation value of exp(iGx):  (7.23171499133557963E-006,-3.77032818806495909E-008)   1.0000000000000000     
     Electronic Dipole per cell (Ry a.u.)  -5.2769272857021592E-002
     Ionic Dipole per cell (Ry a.u.)   13735.445067148443     

     Expectation value of exp(iGx):  (-3.21505266464765664E-005,1.10110015869356222E-005)   1.0852077191500298     
     Electronic Dipole per cell (Ry a.u.)   30.882914908919464     
     Ionic Dipole per cell (Ry a.u.)   16152.258749944860     
Electronic Dipole on Cartesian axes
           1   2.5380372303521419     
           2  -5.2769272857021592E-002
           3   30.882914908919464     
Ionic Dipole on Cartesian axes
           1   13734.085957190531     
           2   13735.445067148443     
           3   16152.258749944860     

     total cpu time spent up to now is      713.4 secs

     total energy              =   -7389.27099838 Ry
     estimated scf accuracy    <      52.27477810 Ry

     iteration #  2     ecut=   100.00 Ry     beta= 0.70
     Davidson diagonalization with overlap
     ethr =  4.84E-03,  avg # of iterations = 10.0

     Expectation value of exp(iGx):  (2.18613999769098424E-020,-6.13352167204503956E-021)   1.0000000000000000     
     Electronic Dipole per cell (Ry a.u.)  -2.7685650016016368     
     Ionic Dipole per cell (Ry a.u.)   13734.085957190531     

     Expectation value of exp(iGx): (-1.61288338130985364E-022,-1.31667443019179323E-022)   1.0000000000000000     
     Electronic Dipole per cell (Ry a.u.)  -24.868278247718735     
     Ionic Dipole per cell (Ry a.u.)   13735.445067148443     

     Expectation value of exp(iGx):  (1.19280087175476783E-013,-1.05230810519962446E-013)   1.0852077191500298     
     Electronic Dipole per cell (Ry a.u.)  -7.9403515264103781     
     Ionic Dipole per cell (Ry a.u.)   16152.258749944860     
Electronic Dipole on Cartesian axes
           1  -2.7685650016016368     
           2  -24.868278247718735     
           3  -7.9403515264103772     
Ionic Dipole on Cartesian axes
           1   13734.085957190531     
           2   13735.445067148443     
           3   16152.258749944860     

     total cpu time spent up to now is     1403.0 secs

     total energy              =   -7343.51306863 Ry
     estimated scf accuracy    <     478.45987501 Ry

     iteration #  3     ecut=   100.00 Ry     beta= 0.70
     Davidson diagonalization with overlap
     ethr =  4.84E-03,  avg # of iterations =  6.0

     Expectation value of exp(iGx):   (8.24848419652119562E-008,1.84886882116199562E-008)   1.0000000000000000     
     Electronic Dipole per cell (Ry a.u.)   2.2318220204652830     
     Ionic Dipole per cell (Ry a.u.)   13734.085957190531     

     Expectation value of exp(iGx):  (1.14315361024256761E-007,-4.41891845609859855E-009)   1.0000000000000000     
     Electronic Dipole per cell (Ry a.u.) -0.39105911407365374     
     Ionic Dipole per cell (Ry a.u.)   13735.445067148443     

     Expectation value of exp(iGx):  (-9.53405636145998474E-007,6.19857615981420466E-008)   1.0852077191500298     
     Electronic Dipole per cell (Ry a.u.)   33.794095840741051     
     Ionic Dipole per cell (Ry a.u.)   16152.258749944860     
Electronic Dipole on Cartesian axes
           1   2.2318220204652830     
           2 -0.39105911407365374     
           3   33.794095840741051     
Ionic Dipole on Cartesian axes
           1   13734.085957190531     
           2   13735.445067148443     
           3   16152.258749944860     

     total cpu time spent up to now is     2074.4 secs

     total energy              =   -7417.44773957 Ry
     estimated scf accuracy    <      12.92304939 Ry

     iteration #  4     ecut=   100.00 Ry     beta= 0.70
     Davidson diagonalization with overlap
     ethr =  1.20E-03,  avg # of iterations =  4.0

     Expectation value of exp(iGx):   (3.26167062935217122E-007,7.78301427470890036E-008)   1.0000000000000000     
     Electronic Dipole per cell (Ry a.u.)   2.3708747094069964     
     Ionic Dipole per cell (Ry a.u.)   13734.085957190531     

     Expectation value of exp(iGx):  (3.38494372160823114E-007,-1.07148234322504108E-008)   1.0000000000000000     
     Electronic Dipole per cell (Ry a.u.) -0.32028438562828981     
     Ionic Dipole per cell (Ry a.u.)   13735.445067148443     

     Expectation value of exp(iGx):  (-2.28189736869693394E-006,8.84754706397628714E-007)   1.0852077191500298     
     Electronic Dipole per cell (Ry a.u.)   30.444435441880742     
     Ionic Dipole per cell (Ry a.u.)   16152.258749944860     
Electronic Dipole on Cartesian axes
           1   2.3708747094069964     
           2 -0.32028438562828981     
           3   30.444435441880746     
Ionic Dipole on Cartesian axes
           1   13734.085957190531     
           2   13735.445067148443     
           3   16152.258749944860     

     total cpu time spent up to now is     2771.3 secs

     total energy              =   -7418.64890892 Ry
     estimated scf accuracy    <       4.62177153 Ry

     iteration #  5     ecut=   100.00 Ry     beta= 0.70
     Davidson diagonalization with overlap
     ethr =  4.28E-04,  avg # of iterations =  2.0

     Expectation value of exp(iGx):   (3.94920972388635734E-007,9.50072864133944069E-008)   1.0000000000000000     
     Electronic Dipole per cell (Ry a.u.)   2.3895633970038999     
     Ionic Dipole per cell (Ry a.u.)   13734.085957190531     

     Expectation value of exp(iGx):  (4.03293097735453580E-007,-1.33464025962236278E-008)   1.0000000000000000     
     Electronic Dipole per cell (Ry a.u.) -0.33483600739676633     
     Ionic Dipole per cell (Ry a.u.)   13735.445067148443     

     Expectation value of exp(iGx):  (-2.62085551156382266E-006,1.05716545928965051E-006)   1.0852077191500298     
     Electronic Dipole per cell (Ry a.u.)   30.295898939453497     
     Ionic Dipole per cell (Ry a.u.)   16152.258749944860     
Electronic Dipole on Cartesian axes
           1   2.3895633970038999     
           2 -0.33483600739676633     
           3   30.295898939453497     
Ionic Dipole on Cartesian axes
           1   13734.085957190531     
           2   13735.445067148443     
           3   16152.258749944860     

     total cpu time spent up to now is     3447.5 secs

     total energy              =   -7417.50761388 Ry
     estimated scf accuracy    <       3.35643877 Ry

     iteration #  6     ecut=   100.00 Ry     beta= 0.70
     Davidson diagonalization with overlap
     ethr =  3.11E-04,  avg # of iterations =  5.0

     Expectation value of exp(iGx):   (2.56222174025044857E-007,6.10506113378325003E-008)   1.0000000000000000     
     Electronic Dipole per cell (Ry a.u.)   2.3675388069352983     
     Ionic Dipole per cell (Ry a.u.)   13734.085957190531     

     Expectation value of exp(iGx):  (2.59836588123650016E-007,-1.08092064416574433E-008)   1.0000000000000000     
     Electronic Dipole per cell (Ry a.u.) -0.42081417572892937     
     Ionic Dipole per cell (Ry a.u.)   13735.445067148443     

     Expectation value of exp(iGx):  (-1.50679650864114481E-006,1.15475996527827899E-006)   1.0852077191500298     
     Electronic Dipole per cell (Ry a.u.)   27.324849684259600     
     Ionic Dipole per cell (Ry a.u.)   16152.258749944860     
Electronic Dipole on Cartesian axes
           1   2.3675388069352983     
           2 -0.42081417572892937     
           3   27.324849684259600     
Ionic Dipole on Cartesian axes
           1   13734.085957190531     
           2   13735.445067148443     
           3   16152.258749944860     

     total cpu time spent up to now is     4111.9 secs

     total energy              =   -7418.01631043 Ry
     estimated scf accuracy    <       0.21414654 Ry

     iteration #  7     ecut=   100.00 Ry     beta= 0.70
     Davidson diagonalization with overlap
     ethr =  1.98E-05,  avg # of iterations =  8.0

     Expectation value of exp(iGx):   (2.03409573736883227E-007,4.87967354051499357E-008)   1.0000000000000000     
     Electronic Dipole per cell (Ry a.u.)   2.3830666967716345     
     Ionic Dipole per cell (Ry a.u.)   13734.085957190531     

     Expectation value of exp(iGx):  (1.87183064291655688E-007,-9.39907822249545181E-009)   1.0000000000000000     
     Electronic Dipole per cell (Ry a.u.) -0.50781005347449504     
     Ionic Dipole per cell (Ry a.u.)   13735.445067148443     

     Expectation value of exp(iGx):  (-1.15463113210791283E-006,9.66338595981866929E-007)   1.0852077191500298     
     Electronic Dipole per cell (Ry a.u.)   26.852984699703786     
     Ionic Dipole per cell (Ry a.u.)   16152.258749944860     
Electronic Dipole on Cartesian axes
           1   2.3830666967716345     
           2 -0.50781005347449504     
           3   26.852984699703786     
Ionic Dipole on Cartesian axes
           1   13734.085957190531     
           2   13735.445067148443     
           3   16152.258749944860     

     total cpu time spent up to now is     4823.5 secs

     total energy              =   -7418.16558103 Ry
     estimated scf accuracy    <       0.06327295 Ry

     iteration #  8     ecut=   100.00 Ry     beta= 0.70
     Davidson diagonalization with overlap
     ethr =  5.86E-06,  avg # of iterations =  6.0

     Expectation value of exp(iGx):   (1.98081028499855405E-007,4.80678035767729745E-008)   1.0000000000000000     
     Electronic Dipole per cell (Ry a.u.)   2.4095933256768309     
     Ionic Dipole per cell (Ry a.u.)   13734.085957190531     

     Expectation value of exp(iGx):  (1.79810681952473252E-007,-9.30557784509956634E-009)   1.0000000000000000     
     Electronic Dipole per cell (Ry a.u.) -0.52334463770820749     
     Ionic Dipole per cell (Ry a.u.)   13735.445067148443     

     Expectation value of exp(iGx):  (-1.11127208215348259E-006,9.86794719893610048E-007)   1.0852077191500298     
     Electronic Dipole per cell (Ry a.u.)   26.531325046713057     
     Ionic Dipole per cell (Ry a.u.)   16152.258749944860     
Electronic Dipole on Cartesian axes
           1   2.4095933256768309     
           2 -0.52334463770820749     
           3   26.531325046713057     
Ionic Dipole on Cartesian axes
           1   13734.085957190531     
           2   13735.445067148443     
           3   16152.258749944860     

     total cpu time spent up to now is     5490.7 secs

     total energy              =   -7418.16559446 Ry
     estimated scf accuracy    <       0.06997692 Ry

     iteration #  9     ecut=   100.00 Ry     beta= 0.70
     Davidson diagonalization with overlap
     ethr =  5.86E-06,  avg # of iterations =  2.0

     Expectation value of exp(iGx):   (2.03885908416991898E-007,4.94974426780650266E-008)   1.0000000000000000     
     Electronic Dipole per cell (Ry a.u.)   2.4105770891165119     
     Ionic Dipole per cell (Ry a.u.)   13734.085957190531     

     Expectation value of exp(iGx):  (1.85131100899609034E-007,-9.52212268034135318E-009)   1.0000000000000000     
     Electronic Dipole per cell (Ry a.u.) -0.52013854972032847     
     Ionic Dipole per cell (Ry a.u.)   13735.445067148443     

     Expectation value of exp(iGx):  (-1.12218021836396821E-006,1.02357627699560502E-006)   1.0852077191500298     
     Electronic Dipole per cell (Ry a.u.)   26.384805307620745     
     Ionic Dipole per cell (Ry a.u.)   16152.258749944860     
Electronic Dipole on Cartesian axes
           1   2.4105770891165119     
           2 -0.52013854972032847     
           3   26.384805307620745     
Ionic Dipole on Cartesian axes
           1   13734.085957190531     
           2   13735.445067148443     
           3   16152.258749944860     

     total cpu time spent up to now is     6182.8 secs

     total energy              =   -7418.16046583 Ry
     estimated scf accuracy    <       0.03459485 Ry

     iteration # 10     ecut=   100.00 Ry     beta= 0.70
     Davidson diagonalization with overlap
     ethr =  3.20E-06,  avg # of iterations =  6.0

     Expectation value of exp(iGx):   (2.20925632018751183E-007,5.40719787124575460E-008)   1.0000000000000000     
     Electronic Dipole per cell (Ry a.u.)   2.4295095063799796     
     Ionic Dipole per cell (Ry a.u.)   13734.085957190531     

     Expectation value of exp(iGx):  (2.00904321254915819E-007,-1.01165101266883835E-008)   1.0000000000000000     
     Electronic Dipole per cell (Ry a.u.) -0.50923936652979929     
     Ionic Dipole per cell (Ry a.u.)   13735.445067148443     

     Expectation value of exp(iGx):  (-1.18809154553909966E-006,1.08018723516437798E-006)   1.0852077191500298     
     Electronic Dipole per cell (Ry a.u.)   26.402538753956858     
     Ionic Dipole per cell (Ry a.u.)   16152.258749944860     
Electronic Dipole on Cartesian axes
           1   2.4295095063799796     
           2 -0.50923936652979929     
           3   26.402538753956858     
Ionic Dipole on Cartesian axes
           1   13734.085957190531     
           2   13735.445067148443     
           3   16152.258749944860     

     total cpu time spent up to now is     6854.0 secs

     total energy              =   -7418.16514395 Ry
     estimated scf accuracy    <       0.00305547 Ry

     iteration # 11     ecut=   100.00 Ry     beta= 0.70
     Davidson diagonalization with overlap
     ethr =  2.83E-07,  avg # of iterations =  8.0

     Expectation value of exp(iGx):   (2.28971251551065901E-007,5.60289450601380660E-008)   1.0000000000000000     
     Electronic Dipole per cell (Ry a.u.)   2.4290000721231650     
     Ionic Dipole per cell (Ry a.u.)   13734.085957190531     

     Expectation value of exp(iGx):  (2.09593632019521653E-007,-1.03194696136362813E-008)   1.0000000000000000     
     Electronic Dipole per cell (Ry a.u.) -0.49793874654236137     
     Ionic Dipole per cell (Ry a.u.)   13735.445067148443     

     Expectation value of exp(iGx):  (-1.27492134365177945E-006,1.06858650321709040E-006)   1.0852077191500298     
     Electronic Dipole per cell (Ry a.u.)   26.845014075518389     
     Ionic Dipole per cell (Ry a.u.)   16152.258749944860     
Electronic Dipole on Cartesian axes
           1   2.4290000721231650     
           2 -0.49793874654236137     
           3   26.845014075518389     
Ionic Dipole on Cartesian axes
           1   13734.085957190531     
           2   13735.445067148443     
           3   16152.258749944860     

     total cpu time spent up to now is     7522.6 secs

     total energy              =   -7418.16713315 Ry
     estimated scf accuracy    <       0.00096783 Ry

     iteration # 12     ecut=   100.00 Ry     beta= 0.70
     Davidson diagonalization with overlap
     ethr =  8.96E-08,  avg # of iterations =  5.0

     Expectation value of exp(iGx):   (2.31077873817573157E-007,5.64803801028793402E-008)   1.0000000000000000     
     Electronic Dipole per cell (Ry a.u.)   2.4263528101082685     
     Ionic Dipole per cell (Ry a.u.)   13734.085957190531     

     Expectation value of exp(iGx):  (2.11336880291227394E-007,-1.03504232889027543E-008)   1.0000000000000000     
     Electronic Dipole per cell (Ry a.u.) -0.49531688335416973     
     Ionic Dipole per cell (Ry a.u.)   13735.445067148443     

     Expectation value of exp(iGx):  (-1.28506385411646698E-006,1.06926497403571459E-006)   1.0852077191500298     
     Electronic Dipole per cell (Ry a.u.)   26.884405014635600     
     Ionic Dipole per cell (Ry a.u.)   16152.258749944860     
Electronic Dipole on Cartesian axes
           1   2.4263528101082685     
           2 -0.49531688335416973     
           3   26.884405014635600     
Ionic Dipole on Cartesian axes
           1   13734.085957190531     
           2   13735.445067148443     
           3   16152.258749944860     

     total cpu time spent up to now is     8228.9 secs

     total energy              =   -7418.16683791 Ry
     estimated scf accuracy    <       0.00175283 Ry

     iteration # 13     ecut=   100.00 Ry     beta= 0.70
     Davidson diagonalization with overlap
     ethr =  8.96E-08,  avg # of iterations =  5.0

     Expectation value of exp(iGx):   (2.28845271738037660E-007,5.59360959958799486E-008)   1.0000000000000000     
     Electronic Dipole per cell (Ry a.u.)   2.4264117256639737     
     Ionic Dipole per cell (Ry a.u.)   13734.085957190531     

     Expectation value of exp(iGx):  (2.09017710820157763E-007,-1.02739621423036438E-008)   1.0000000000000000     
     Electronic Dipole per cell (Ry a.u.) -0.49711019404355805     
     Ionic Dipole per cell (Ry a.u.)   13735.445067148443     

     Expectation value of exp(iGx):  (-1.26774012683384086E-006,1.06827960498463337E-006)   1.0852077191500298     
     Electronic Dipole per cell (Ry a.u.)   26.816009083333160     
     Ionic Dipole per cell (Ry a.u.)   16152.258749944860     
Electronic Dipole on Cartesian axes
           1   2.4264117256639737     
           2 -0.49711019404355805     
           3   26.816009083333160     
Ionic Dipole on Cartesian axes
           1   13734.085957190531     
           2   13735.445067148443     
           3   16152.258749944860     

     total cpu time spent up to now is     8890.7 secs

     total energy              =   -7418.16686607 Ry
     estimated scf accuracy    <       0.00031656 Ry

     iteration # 14     ecut=   100.00 Ry     beta= 0.70
     Davidson diagonalization with overlap
     ethr =  2.93E-08,  avg # of iterations =  8.0

     Expectation value of exp(iGx):   (2.25965347072026931E-007,5.52252930969462467E-008)   1.0000000000000000     
     Electronic Dipole per cell (Ry a.u.)   2.4261213525843051     
     Ionic Dipole per cell (Ry a.u.)   13734.085957190531     

     Expectation value of exp(iGx):  (2.06484937145834955E-007,-1.02118180441975247E-008)   1.0000000000000000     
     Electronic Dipole per cell (Ry a.u.) -0.50015911235982102     
     Ionic Dipole per cell (Ry a.u.)   13735.445067148443     

     Expectation value of exp(iGx):  (-1.25034116630312192E-006,1.06448752306645533E-006)   1.0852077191500298     
     Electronic Dipole per cell (Ry a.u.)   26.760410992894069     
     Ionic Dipole per cell (Ry a.u.)   16152.258749944860     
Electronic Dipole on Cartesian axes
           1   2.4261213525843051     
           2 -0.50015911235982102     
           3   26.760410992894069     
Ionic Dipole on Cartesian axes
           1   13734.085957190531     
           2   13735.445067148443     
           3   16152.258749944860     

     total cpu time spent up to now is     9553.9 secs

     total energy              =   -7418.16699166 Ry
     estimated scf accuracy    <       0.00003217 Ry

     iteration # 15     ecut=   100.00 Ry     beta= 0.70
     Davidson diagonalization with overlap
     ethr =  2.98E-09,  avg # of iterations =  5.0

     Expectation value of exp(iGx):   (2.25914383511149027E-007,5.52085327230860251E-008)   1.0000000000000000     
     Electronic Dipole per cell (Ry a.u.)   2.4259393466642631     
     Ionic Dipole per cell (Ry a.u.)   13734.085957190531     

     Expectation value of exp(iGx):  (2.06385589704811375E-007,-1.02204173551259238E-008)   1.0000000000000000     
     Electronic Dipole per cell (Ry a.u.) -0.50082017722530514     
     Ionic Dipole per cell (Ry a.u.)   13735.445067148443     

     Expectation value of exp(iGx):  (-1.24939072146038693E-006,1.06503383931898859E-006)   1.0852077191500298     
     Electronic Dipole per cell (Ry a.u.)   26.753505691567838     
     Ionic Dipole per cell (Ry a.u.)   16152.258749944860     
Electronic Dipole on Cartesian axes
           1   2.4259393466642631     
           2 -0.50082017722530514     
           3   26.753505691567838     
Ionic Dipole on Cartesian axes
           1   13734.085957190531     
           2   13735.445067148443     
           3   16152.258749944860     

     total cpu time spent up to now is    10268.0 secs

     total energy              =   -7418.16699625 Ry
     estimated scf accuracy    <       0.00001415 Ry

     iteration # 16     ecut=   100.00 Ry     beta= 0.70
     Davidson diagonalization with overlap
     ethr =  1.31E-09,  avg # of iterations =  6.0

     Expectation value of exp(iGx):   (2.25994144539687041E-007,5.52266809449707209E-008)   1.0000000000000000     
     Electronic Dipole per cell (Ry a.u.)   2.4258825610418380     
     Ionic Dipole per cell (Ry a.u.)   13734.085957190531     

     Expectation value of exp(iGx):  (2.06428447637910314E-007,-1.02256168535652373E-008)   1.0000000000000000     
     Electronic Dipole per cell (Ry a.u.) -0.50097068524618704     
     Ionic Dipole per cell (Ry a.u.)   13735.445067148443     

     Expectation value of exp(iGx):  (-1.24960022103817188E-006,1.06521359823568900E-006)   1.0852077191500298     
     Electronic Dipole per cell (Ry a.u.)   26.753499722360583     
     Ionic Dipole per cell (Ry a.u.)   16152.258749944860     
Electronic Dipole on Cartesian axes
           1   2.4258825610418380     
           2 -0.50097068524618704     
           3   26.753499722360583     
Ionic Dipole on Cartesian axes
           1   13734.085957190531     
           2   13735.445067148443     
           3   16152.258749944860     

     total cpu time spent up to now is    10928.3 secs

     total energy              =   -7418.16699557 Ry
     estimated scf accuracy    <       0.00000833 Ry

     iteration # 17     ecut=   100.00 Ry     beta= 0.70
     Davidson diagonalization with overlap
     ethr =  7.71E-10,  avg # of iterations =  5.0

     Expectation value of exp(iGx):   (2.26108696519347464E-007,5.52563308669273834E-008)   1.0000000000000000     
     Electronic Dipole per cell (Ry a.u.)   2.4259525384811225     
     Ionic Dipole per cell (Ry a.u.)   13734.085957190531     

     Expectation value of exp(iGx):  (2.06521916286749704E-007,-1.02294535432924619E-008)   1.0000000000000000     
     Electronic Dipole per cell (Ry a.u.) -0.50093189802330840     
     Ionic Dipole per cell (Ry a.u.)   13735.445067148443     

     Expectation value of exp(iGx):  (-1.25010088938178808E-006,1.06533536334150362E-006)   1.0852077191500298     
     Electronic Dipole per cell (Ry a.u.)   26.755052101857000     
     Ionic Dipole per cell (Ry a.u.)   16152.258749944860     
Electronic Dipole on Cartesian axes
           1   2.4259525384811225     
           2 -0.50093189802330840     
           3   26.755052101857000     
Ionic Dipole on Cartesian axes
           1   13734.085957190531     
           2   13735.445067148443     
           3   16152.258749944860     

     total cpu time spent up to now is    11632.9 secs

     total energy              =   -7418.16699566 Ry
     estimated scf accuracy    <       0.00000306 Ry

     iteration # 18     ecut=   100.00 Ry     beta= 0.70
     Davidson diagonalization with overlap
     ethr =  2.83E-10,  avg # of iterations =  5.0

     Expectation value of exp(iGx):   (2.26316663553554821E-007,5.53050286387246362E-008)   1.0000000000000000     
     Electronic Dipole per cell (Ry a.u.)   2.4258628532237636     
     Ionic Dipole per cell (Ry a.u.)   13734.085957190531     

     Expectation value of exp(iGx):  (2.06703995764643010E-007,-1.02398466082787016E-008)   1.0000000000000000     
     Electronic Dipole per cell (Ry a.u.) -0.50099902762843262     
     Ionic Dipole per cell (Ry a.u.)   13735.445067148443     

     Expectation value of exp(iGx):  (-1.25174534580819106E-006,1.06518594445884138E-006)   1.0852077191500298     
     Electronic Dipole per cell (Ry a.u.)   26.762940158106179     
     Ionic Dipole per cell (Ry a.u.)   16152.258749944860     
Electronic Dipole on Cartesian axes
           1   2.4258628532237636     
           2 -0.50099902762843262     
           3   26.762940158106179     
Ionic Dipole on Cartesian axes
           1   13734.085957190531     
           2   13735.445067148443     
           3   16152.258749944860     

     total cpu time spent up to now is    12296.1 secs

     total energy              =   -7418.16699652 Ry
     estimated scf accuracy    <       0.00000040 Ry

     iteration # 19     ecut=   100.00 Ry     beta= 0.70
     Davidson diagonalization with overlap
     ethr =  3.71E-11,  avg # of iterations =  3.0

     Expectation value of exp(iGx):   (2.26310735137394500E-007,5.53037060862992990E-008)   1.0000000000000000     
     Electronic Dipole per cell (Ry a.u.)   2.4258681783086065     
     Ionic Dipole per cell (Ry a.u.)   13734.085957190531     

     Expectation value of exp(iGx):  (2.06699645782140695E-007,-1.02397996699533078E-008)   1.0000000000000000     
     Electronic Dipole per cell (Ry a.u.) -0.50100726108835514     
     Ionic Dipole per cell (Ry a.u.)   13735.445067148443     

     Expectation value of exp(iGx):  (-1.25167658705630578E-006,1.06521585689647840E-006)   1.0852077191500298     
     Electronic Dipole per cell (Ry a.u.)   26.762490120159612     
     Ionic Dipole per cell (Ry a.u.)   16152.258749944860     
Electronic Dipole on Cartesian axes
           1   2.4258681783086065     
           2 -0.50100726108835514     
           3   26.762490120159612     
Ionic Dipole on Cartesian axes
           1   13734.085957190531     
           2   13735.445067148443     
           3   16152.258749944860     

     total cpu time spent up to now is    12960.8 secs

     total energy              =   -7418.16699652 Ry
     estimated scf accuracy    <       0.00000016 Ry

     iteration # 20     ecut=   100.00 Ry     beta= 0.70
     Davidson diagonalization with overlap
     ethr =  1.48E-11,  avg # of iterations =  8.0

     Expectation value of exp(iGx):   (2.26295283741904641E-007,5.53007885184016986E-008)   1.0000000000000000     
     Electronic Dipole per cell (Ry a.u.)   2.4259044043183002     
     Ionic Dipole per cell (Ry a.u.)   13734.085957190531     

     Expectation value of exp(iGx):  (2.06688171768562454E-007,-1.02399225736511752E-008)   1.0000000000000000     
     Electronic Dipole per cell (Ry a.u.) -0.50104103229325381     
     Ionic Dipole per cell (Ry a.u.)   13735.445067148443     

     Expectation value of exp(iGx):  (-1.25137417704892846E-006,1.06547683976401901E-006)   1.0852077191500298     
     Electronic Dipole per cell (Ry a.u.)   26.759851965585533     
     Ionic Dipole per cell (Ry a.u.)   16152.258749944860     
Electronic Dipole on Cartesian axes
           1   2.4259044043183002     
           2 -0.50104103229325381     
           3   26.759851965585533     
Ionic Dipole on Cartesian axes
           1   13734.085957190531     
           2   13735.445067148443     
           3   16152.258749944860     

     total cpu time spent up to now is    13657.1 secs

     total energy              =   -7418.16699656 Ry
     estimated scf accuracy    <       0.00000017 Ry

     iteration # 21     ecut=   100.00 Ry     beta= 0.70
     Davidson diagonalization with overlap
     ethr =  1.48E-11,  avg # of iterations =  2.0

     Expectation value of exp(iGx):   (2.26300895587610339E-007,5.53018475604395501E-008)   1.0000000000000000     
     Electronic Dipole per cell (Ry a.u.)   2.4258912214005841     
     Ionic Dipole per cell (Ry a.u.)   13734.085957190531     

     Expectation value of exp(iGx):  (2.06694568055501047E-007,-1.02403020081437434E-008)   1.0000000000000000     
     Electronic Dipole per cell (Ry a.u.) -0.50104408749739704     
     Ionic Dipole per cell (Ry a.u.)   13735.445067148443     

     Expectation value of exp(iGx):  (-1.25141397296233008E-006,1.06548944260210515E-006)   1.0852077191500298     
     Electronic Dipole per cell (Ry a.u.)   26.759960253549046     
     Ionic Dipole per cell (Ry a.u.)   16152.258749944860     
Electronic Dipole on Cartesian axes
           1   2.4258912214005841     
           2 -0.50104408749739704     
           3   26.759960253549046     
Ionic Dipole on Cartesian axes
           1   13734.085957190531     
           2   13735.445067148443     
           3   16152.258749944860     

     total cpu time spent up to now is    14324.1 secs

     total energy              =   -7418.16699655 Ry
     estimated scf accuracy    <       0.00000011 Ry

     iteration # 22     ecut=   100.00 Ry     beta= 0.70
     Davidson diagonalization with overlap
     ethr =  1.04E-11,  avg # of iterations =  5.0

     Expectation value of exp(iGx):   (2.26308078582223325E-007,5.53037184254947649E-008)   1.0000000000000000     
     Electronic Dipole per cell (Ry a.u.)   2.4258960974538040     
     Ionic Dipole per cell (Ry a.u.)   13734.085957190531     

     Expectation value of exp(iGx):  (2.06703462549638968E-007,-1.02402265055345948E-008)   1.0000000000000000     
     Electronic Dipole per cell (Ry a.u.) -0.50101887461576056     
     Ionic Dipole per cell (Ry a.u.)   13735.445067148443     

     Expectation value of exp(iGx):  (-1.25152438171322359E-006,1.06545032756876708E-006)   1.0852077191500298     
     Electronic Dipole per cell (Ry a.u.)   26.760637607843229     
     Ionic Dipole per cell (Ry a.u.)   16152.258749944860     
Electronic Dipole on Cartesian axes
           1   2.4258960974538040     
           2 -0.50101887461576056     
           3   26.760637607843229     
Ionic Dipole on Cartesian axes
           1   13734.085957190531     
           2   13735.445067148443     
           3   16152.258749944860     

     total cpu time spent up to now is    15001.0 secs

     total energy              =   -7418.16699655 Ry
     estimated scf accuracy    <       0.00000005 Ry

     iteration # 23     ecut=   100.00 Ry     beta= 0.70
     Davidson diagonalization with overlap
     ethr =  4.96E-12,  avg # of iterations =  5.0

     Expectation value of exp(iGx):   (2.26313340113163058E-007,5.53049381882706994E-008)   1.0000000000000000     
     Electronic Dipole per cell (Ry a.u.)   2.4258933113408405     
     Ionic Dipole per cell (Ry a.u.)   13734.085957190531     

     Expectation value of exp(iGx):  (2.06710718347593324E-007,-1.02407036516471626E-008)   1.0000000000000000     
     Electronic Dipole per cell (Ry a.u.) -0.50102462313190310     
     Ionic Dipole per cell (Ry a.u.)   13735.445067148443     

     Expectation value of exp(iGx):  (-1.25160648388052074E-006,1.06542804669142483E-006)   1.0852077191500298     
     Electronic Dipole per cell (Ry a.u.)   26.761106638449306     
     Ionic Dipole per cell (Ry a.u.)   16152.258749944860     
Electronic Dipole on Cartesian axes
           1   2.4258933113408405     
           2 -0.50102462313190310     
           3   26.761106638449306     
Ionic Dipole on Cartesian axes
           1   13734.085957190531     
           2   13735.445067148443     
           3   16152.258749944860     

     total cpu time spent up to now is    15695.0 secs

     total energy              =   -7418.16699655 Ry
     estimated scf accuracy    <       0.00000002 Ry

     iteration # 24     ecut=   100.00 Ry     beta= 0.70
     Davidson diagonalization with overlap
     ethr =  1.94E-12,  avg # of iterations =  5.0

     Expectation value of exp(iGx):   (2.26328785840420137E-007,5.53087934846283318E-008)   1.0000000000000000     
     Electronic Dipole per cell (Ry a.u.)   2.4258967199960191     
     Ionic Dipole per cell (Ry a.u.)   13734.085957190531     

     Expectation value of exp(iGx):  (2.06727652472823246E-007,-1.02412607314995515E-008)   1.0000000000000000     
     Electronic Dipole per cell (Ry a.u.) -0.50101085694188630     
     Ionic Dipole per cell (Ry a.u.)   13735.445067148443     

     Expectation value of exp(iGx):  (-1.25175138917912225E-006,1.06539559283579843E-006)   1.0852077191500298     
     Electronic Dipole per cell (Ry a.u.)   26.761899420129005     
     Ionic Dipole per cell (Ry a.u.)   16152.258749944860     
Electronic Dipole on Cartesian axes
           1   2.4258967199960191     
           2 -0.50101085694188630     
           3   26.761899420129005     
Ionic Dipole on Cartesian axes
           1   13734.085957190531     
           2   13735.445067148443     
           3   16152.258749944860     

     total cpu time spent up to now is    16357.2 secs

     End of self-consistent calculation

          k = 0.0000 0.0000 0.0000 (208381 PWs)   bands (ev):

   -46.6934 -46.6797 -46.6785 -46.6592 -46.6569 -46.6542 -46.6325 -46.6243
   -46.6081 -46.5962 -46.5543 -46.5461 -46.5449 -46.5440 -46.5419 -46.5373
   -46.5319 -46.5249 -46.5155 -46.5148 -46.5065 -46.5060 -46.5047 -46.5024
   -46.5006 -46.4722 -46.4636 -23.2289 -23.2171 -23.2019 -23.2008 -23.1943
   -23.1865 -23.1744 -23.1611 -23.1489 -23.1109 -23.0950 -23.0877 -23.0777
   -23.0772 -23.0743 -23.0721 -23.0627 -23.0585 -23.0551 -23.0545 -23.0460
   -23.0443 -23.0325 -23.0293 -23.0112 -23.0020 -23.0009 -22.9412 -22.9308
   -22.9295 -22.9231 -22.9205 -22.9185 -22.9141 -22.9066 -22.9036 -22.9016
   -22.8969 -22.8841 -22.8801 -22.8775 -22.8718 -22.8508 -22.8495 -22.8483
   -22.8460 -22.8220 -22.8133 -22.8071 -22.8051 -22.8006 -22.7974 -22.7958
   -22.7844 -22.7832 -22.7799 -22.7792 -22.7788 -22.7766 -22.7732 -22.7724
   -22.7720 -22.7696 -22.7650 -22.7621 -22.7621 -22.7588 -22.7555 -22.7500
   -22.7462 -22.7459 -22.7358 -22.7327 -22.7324 -22.7242 -22.7227 -22.7224
   -22.7158 -22.7147 -22.6961 -22.6858 -15.3345 -15.2990 -15.2922 -15.2674
   -15.2546 -15.2453 -15.2361 -15.2349 -15.2269 -15.2226 -15.2135 -15.2052
   -15.1941 -15.1826 -15.1706 -15.1692 -15.1566 -15.1489 -14.9969 -14.9690
   -14.9608 -14.9283 -14.9125 -14.8983 -14.8948 -14.8816 -14.8566  -7.3582
    -7.3423  -7.3323  -7.2523  -7.2105  -7.1941  -7.1473  -7.1356  -7.1321
    -7.1238  -7.1154  -7.0937  -7.0875  -7.0848  -7.0709  -7.0038  -6.9996
    -6.9793  -6.9760  -6.9111  -6.9041  -6.9038  -6.8957  -6.8924  -6.8889
    -6.8750  -6.8692  -6.7284  -6.7275  -6.7221  -6.7119  -6.7055  -6.6989
    -6.6923  -6.6175  -6.6060  -6.5988  -6.5905  -6.5841  -6.5836  -6.5448
    -6.5302  -6.5113  -6.5102  -6.4985  -6.4908  -6.4846  -6.4813  -6.4805
    -6.4617  -6.4576  -6.4524  -6.4255  -6.4163  -6.3455  -6.3260  -6.2693
    -6.2565  -6.2521  -6.2464  -6.2434  -6.2327  -6.2171  -6.2067  -6.1862
    -6.1733  -6.1653  -6.1535  -6.1409  -6.1348  -6.1073  -6.0967  -6.0493
    -6.0445  -6.0381  -6.0342  -6.0244  -6.0090  -5.9761  -5.9701  -5.9536
    -0.9309  -0.9279  -0.9232  -0.9176  -0.9014  -0.8986  -0.8868  -0.8759
    -0.6982  -0.6942  -0.6913  -0.6872  -0.6796  -0.6776  -0.6554  -0.6526
    -0.6490  -0.6394  -0.6285  -0.6253  -0.5606  -0.5522  -0.5248  -0.5179
    -0.5081  -0.4930  -0.4757  -0.4735  -0.4539  -0.4395  -0.4355  -0.4320
    -0.4254  -0.4192  -0.4154  -0.4135  -0.4127  -0.4092  -0.4024  -0.4021
    -0.3968  -0.3873  -0.3466  -0.3379  -0.3266  -0.3198  -0.3182  -0.3157
    -0.3105  -0.2525  -0.2496  -0.2459  -0.2435  -0.2410  -0.2231  -0.2181
    -0.1431  -0.1392  -0.1338  -0.1280  -0.1260  -0.1214  -0.1056  -0.0992
    -0.0975  -0.0903  -0.0854  -0.0844  -0.0794  -0.0698  -0.0654  -0.0631
    -0.0589  -0.0490  -0.0321  -0.0273  -0.0199   0.0292   0.0338   0.0752
     0.0829   5.6501   5.6567   5.6624   5.6806   5.7498   5.7651   5.7695
     5.7736   5.7811   5.7898   5.8354   5.8413   5.9424   5.9491   5.9502
     5.9544   5.9556   5.9642   5.9806   5.9899   6.0357   6.0473   6.0714
     6.0806   6.0892   6.0918   6.0946   6.1068   6.1145   6.1356   6.1419
     6.2892   6.2973   6.3099   6.3166   6.3245   6.3299   6.3322   6.3483
     6.3538   6.3603   6.3621   6.3688   6.3702   6.3713   6.3747   6.3807
     6.3870   6.4359   6.4388   6.4443   6.4547   6.4789   6.4806   6.4926
     6.5000   6.5038   6.5108   6.5182   6.5298   6.5312   6.5388   6.5891
     6.5977   6.6370   6.6426   6.6761   6.6842   6.6860   6.6960   6.7112
     6.7339   6.7428   6.7449   6.7578   6.7787   6.7915   6.8963   6.9043
     6.9323   6.9332   6.9431   6.9492   6.9685   6.9710   6.9993   7.0042
     7.0064   7.0119   7.0142   7.0223   7.0277   7.0306   7.0432   7.0463
     7.0508   7.0618   7.0639   7.1160   7.1270   7.1364   7.1516   7.1603
     7.1680   7.1836   7.1993   7.2075   7.2145   7.2159   7.2262   7.2284
     7.2373   7.2438   7.2573   7.3520   7.3567   7.3633   7.3771   7.3821
     7.3847   7.3887   7.3891   7.3960   7.4071   7.4278   7.4316   7.4342
     7.4413   7.4460   7.4497   7.4574   7.4641   7.4706   7.5016   7.5120
     7.5259   7.5323   7.5385   7.5442   7.5487   7.5584   7.5639   7.5652
     7.5734   7.6098   7.7266   7.7324   7.8337   7.8488   7.9349   7.9734
     7.9828   7.9875   7.9960   8.0835   8.0982   8.1071   8.1893   8.1941
     8.2037   8.2289   8.2368   8.2415   8.2498   8.2543   8.2561   8.2601
     8.3084   8.3154   8.3203   8.3612   8.3651   8.3669   8.3700   8.3709
     8.3744   8.3794   8.3834   8.3846   8.3878   8.3987   8.4362   8.4492
     8.4759   8.4983   8.5480   8.5684   8.5707   8.5775   8.5866   8.5958
     8.6019   8.6078   8.6810   8.6872   8.6923   8.6962   8.7572   8.7670
     8.7700   8.7834   8.7880   8.7937   8.8006   8.8041   8.8139   8.8234
     8.8273   8.8679   8.8759   8.8840   8.8884   8.9200   8.9231   8.9401
     8.9609   8.9938   9.0090   9.0436   9.0880   9.0950   9.1010   9.1067
     9.1297   9.1410   9.1793   9.1868   9.1945   9.3116   9.3208   9.3283
     9.3354   9.3362   9.3603   9.3736   9.3909   9.4247   9.5827   9.6027
     9.6174   9.6336   9.6673   9.6978

     highest occupied level (ev):     9.6978

!    total energy              =   -7418.16699655 Ry
     estimated scf accuracy    <          4.5E-09 Ry

     The total energy is the sum of the following terms:
     one-electron contribution =   -2202.29194235 Ry
     hartree contribution      =    1722.05522291 Ry
     xc contribution           =   -1515.64222302 Ry
     ewald contribution        =   -5422.28805409 Ry

     convergence has been achieved in  24 iterations

     Forces acting on atoms (cartesian axes, Ry/au):

     atom    1 type  1   force =     0.00053793    0.00173850   -0.05604292
     atom    2 type  1   force =     0.00357814   -0.00080795   -0.05255829
     atom    3 type  1   force =    -0.00248592   -0.00110944   -0.06080930
     atom    4 type  1   force =     0.00024370    0.00295644   -0.05559119
     atom    5 type  1   force =     0.00039059   -0.00037528   -0.05620342
     atom    6 type  1   force =    -0.00227106    0.00105035   -0.05667883
     atom    7 type  1   force =     0.00022438    0.00161989   -0.05640850
     atom    8 type  1   force =     0.00258803    0.00289243   -0.05487658
     atom    9 type  1   force =     0.00144325   -0.00190179   -0.06089584
     atom   10 type  1   force =     0.00199534    0.00027970    0.01041356
     atom   11 type  1   force =     0.00254061   -0.00201369    0.01032124
     atom   12 type  1   force =     0.00014088    0.00098366    0.00789786
     atom   13 type  1   force =     0.00049035    0.00010294    0.01016675
     atom   14 type  1   force =    -0.00118379   -0.00394530    0.00939937
     atom   15 type  1   force =     0.00034762    0.00220479    0.01209491
     atom   16 type  1   force =     0.00072023    0.00263980    0.01111118
     atom   17 type  1   force =     0.00035270    0.00590633    0.01253206
     atom   18 type  1   force =    -0.00165493   -0.00305170    0.00817345
     atom   19 type  1   force =    -0.00249400    0.00192376   -0.05237053
     atom   20 type  1   force =    -0.00087041    0.00203807   -0.05569801
     atom   21 type  1   force =    -0.00005581    0.00197287   -0.06030279
     atom   22 type  1   force =    -0.00103043    0.00268154   -0.05712651
     atom   23 type  1   force =    -0.00158318   -0.00100729   -0.05724613
     atom   24 type  1   force =     0.00089334    0.00378530   -0.05696941
     atom   25 type  1   force =     0.00174270   -0.00217756   -0.05397350
     atom   26 type  1   force =     0.00422853    0.00310460   -0.05927413
     atom   27 type  1   force =    -0.00103925   -0.00144078   -0.05963636
     atom   28 type  2   force =    -0.00894760   -0.00517908   -0.05724111
     atom   29 type  2   force =     0.00458547    0.00238108   -0.06880335
     atom   30 type  2   force =     0.00055105   -0.00252616   -0.05880263
     atom   31 type  2   force =    -0.00842335   -0.00502160   -0.07208334
     atom   32 type  2   force =     0.00019374   -0.00370571   -0.06402334
     atom   33 type  2   force =    -0.00270359    0.00083026   -0.06567759
     atom   34 type  2   force =    -0.00481452    0.00671215   -0.07338307
     atom   35 type  2   force =     0.00397148    0.00183681   -0.05348294
     atom   36 type  2   force =    -0.00183140    0.00014390   -0.06562032
     atom   37 type  2   force =     0.03208884    0.00041303    0.12394758
     atom   38 type  2   force =     0.02235250    0.00049207    0.12779275
     atom   39 type  2   force =     0.03099164   -0.00010513    0.13820812
     atom   40 type  2   force =     0.03540507   -0.00353671    0.13144017
     atom   41 type  2   force =     0.02796314   -0.00374627    0.11180833
     atom   42 type  2   force =     0.03505166    0.00237450    0.12760018
     atom   43 type  2   force =     0.02456736   -0.00187380    0.12473018
     atom   44 type  2   force =     0.02654159    0.00303407    0.13559308
     atom   45 type  2   force =     0.03088634   -0.00041565    0.13950645
     atom   46 type  2   force =    -0.02538627    0.00532523    0.12218640
     atom   47 type  2   force =    -0.03044790    0.00610790    0.12538908
     atom   48 type  2   force =    -0.03079267    0.00622550    0.13548532
     atom   49 type  2   force =    -0.02609634   -0.00767209    0.14178032
     atom   50 type  2   force =    -0.02788683   -0.00592319    0.12939746
     atom   51 type  2   force =    -0.03253239   -0.00387427    0.13086904
     atom   52 type  2   force =    -0.02102178    0.00159707    0.11927068
     atom   53 type  2   force =    -0.03011943   -0.00485283    0.14392942
     atom   54 type  2   force =    -0.03040426   -0.00586281    0.12170013
     atom   55 type  3   force =     0.00348048   -0.00205035    0.03102158
     atom   56 type  3   force =    -0.01596620    0.00277220    0.03243934
     atom   57 type  3   force =     0.00031325    0.00246775    0.04546093
     atom   58 type  3   force =     0.00208613    0.00692254    0.02782235
     atom   59 type  3   force =    -0.01928093    0.00313934    0.03229738
     atom   60 type  3   force =    -0.00120240   -0.00199955    0.05961619
     atom   61 type  3   force =     0.00261367    0.00163646    0.02945424
     atom   62 type  3   force =    -0.01317360   -0.00011949    0.03250664
     atom   63 type  3   force =     0.00214668    0.00131087    0.04883635
     atom   64 type  3   force =     0.00548986   -0.00444968    0.02931710
     atom   65 type  3   force =    -0.02162028    0.00153146    0.03157690
     atom   66 type  3   force =     0.00082117    0.00203159    0.05840643
     atom   67 type  3   force =     0.00107558   -0.00259351    0.02838208
     atom   68 type  3   force =    -0.02438351   -0.00038133    0.03595177
     atom   69 type  3   force =     0.00135314    0.00114902    0.04946480
     atom   70 type  3   force =     0.00306115   -0.00068561    0.02939335
     atom   71 type  3   force =    -0.01805268   -0.00025855    0.03382464
     atom   72 type  3   force =     0.00071979    0.00159097    0.05082280
     atom   73 type  3   force =     0.00361805   -0.00023865    0.02722105
     atom   74 type  3   force =    -0.01784935   -0.00141186    0.03369252
     atom   75 type  3   force =     0.00182813   -0.00136398    0.06249698
     atom   76 type  3   force =    -0.00428495   -0.00372659    0.03014609
     atom   77 type  3   force =    -0.01786294   -0.00089803    0.03184436
     atom   78 type  3   force =    -0.00149210    0.00045528    0.04252189
     atom   79 type  3   force =     0.00038120   -0.00185548    0.02861372
     atom   80 type  3   force =    -0.01678236   -0.00096557    0.03355522
     atom   81 type  3   force =     0.00087096   -0.00096099    0.05205550
     atom   82 type  3   force =    -0.02063299   -0.00544897   -0.05740326
     atom   83 type  3   force =    -0.00414174   -0.00039009   -0.05451043
     atom   84 type  3   force =     0.00922355   -0.00113059   -0.04061169
     atom   85 type  3   force =    -0.01833690    0.00157493   -0.05396448
     atom   86 type  3   force =     0.00243892    0.00138420   -0.05243108
     atom   87 type  3   force =     0.00707578    0.00141098   -0.03734998
     atom   88 type  3   force =    -0.01834185    0.00157174   -0.05742466
     atom   89 type  3   force =    -0.00095456   -0.00311429   -0.05626076
     atom   90 type  3   force =     0.00956873   -0.00023198   -0.03189086
     atom   91 type  3   force =    -0.01546349    0.00265132   -0.05576497
     atom   92 type  3   force =     0.00343757    0.00500489   -0.05861653
     atom   93 type  3   force =     0.00880856    0.00094727   -0.02073288
     atom   94 type  3   force =    -0.01614056    0.00184069   -0.05622180
     atom   95 type  3   force =     0.00106625    0.00177954   -0.05372004
     atom   96 type  3   force =     0.00888790   -0.00097500   -0.03425826
     atom   97 type  3   force =    -0.01946660   -0.00068356   -0.05686531
     atom   98 type  3   force =    -0.00293117   -0.00147136   -0.05487452
     atom   99 type  3   force =     0.00706291    0.00037694   -0.03593911
     atom  100 type  3   force =    -0.01585026   -0.00256110   -0.05381990
     atom  101 type  3   force =     0.00382930   -0.00048362   -0.05663030
     atom  102 type  3   force =     0.00948468   -0.00135193   -0.04060192
     atom  103 type  3   force =    -0.01452127   -0.00407376   -0.05255680
     atom  104 type  3   force =     0.00023478   -0.00031267   -0.05984852
     atom  105 type  3   force =     0.00785882   -0.00020799   -0.04409330
     atom  106 type  3   force =    -0.01864385    0.00207336   -0.05631794
     atom  107 type  3   force =     0.00080048    0.00251928   -0.05766907
     atom  108 type  3   force =     0.00900848    0.00072874   -0.03258547
     atom  109 type  3   force =     0.01717147    0.00099076   -0.05362866
     atom  110 type  3   force =     0.01685978    0.00281014    0.03488239
     atom  111 type  3   force =    -0.00745845   -0.00151844   -0.03401274
     atom  112 type  3   force =     0.01860129   -0.00162647   -0.05446874
     atom  113 type  3   force =     0.01267197   -0.00175628    0.03136355
     atom  114 type  3   force =    -0.00893001   -0.00225469   -0.03964668
     atom  115 type  3   force =     0.01718490   -0.00065615   -0.05432493
     atom  116 type  3   force =     0.01603288   -0.00160037    0.03379412
     atom  117 type  3   force =    -0.01089805   -0.00169606   -0.03461370
     atom  118 type  3   force =     0.01740262    0.00530453   -0.05792808
     atom  119 type  3   force =     0.01337245    0.00112065    0.02926137
     atom  120 type  3   force =    -0.00836924    0.00313679   -0.03405440
     atom  121 type  3   force =     0.01805846    0.00030302   -0.05923811
     atom  122 type  3   force =     0.02057172   -0.00046318    0.03107165
     atom  123 type  3   force =    -0.00940870    0.00184647   -0.03668334
     atom  124 type  3   force =     0.01896381   -0.00100444   -0.05591263
     atom  125 type  3   force =     0.02023559    0.00074461    0.03449087
     atom  126 type  3   force =    -0.00739023    0.00030309   -0.04170040
     atom  127 type  3   force =     0.01481864   -0.00794884   -0.05486233
     atom  128 type  3   force =     0.00698536   -0.00256173    0.03023358
     atom  129 type  3   force =    -0.01074405    0.00074906   -0.04126481
     atom  130 type  3   force =     0.01777570   -0.00285836   -0.05756186
     atom  131 type  3   force =     0.01819378    0.00013966    0.03149088
     atom  132 type  3   force =    -0.00601786    0.00306564   -0.02341694
     atom  133 type  3   force =     0.01686230   -0.00054450   -0.05738988
     atom  134 type  3   force =     0.01221781    0.00076489    0.02954948
     atom  135 type  3   force =    -0.00756442   -0.00049346   -0.02217318

     Total force =     0.766440     Total SCF correction =     0.000287


     Computing stress (Cartesian axis) and pressure

          total   stress  (Ry/bohr**3)                   (kbar)     P=       48.88
   0.00021821   0.00000028   0.00000052           32.10        0.04        0.08
   0.00000028   0.00012477  -0.00000200            0.04       18.35       -0.29
   0.00000052  -0.00000200   0.00065394            0.08       -0.29       96.20


     Writing all to output data dir /n/holyscratch01/kozinsky_lab/sfalletta/QE/BaTiO3/BaTiO3-wall-E0-0/BaTiO3.save/

     init_run     :     11.81s CPU     16.79s WALL (       1 calls)
     electrons    :  15254.31s CPU  16340.29s WALL (       1 calls)
     forces       :      5.86s CPU      6.34s WALL (       1 calls)
     stress       :     66.87s CPU     67.49s WALL (       1 calls)

     Called by init_run:
     wfcinit      :      2.65s CPU      2.83s WALL (       1 calls)
     potinit      :      4.17s CPU      6.83s WALL (       1 calls)
     hinit0       :      0.94s CPU      2.80s WALL (       1 calls)

     Called by electrons:
     c_bands      :    181.19s CPU    184.12s WALL (      24 calls)
     sum_band     :     10.29s CPU     10.50s WALL (      24 calls)
     v_of_rho     :      9.25s CPU     15.70s WALL (      25 calls)
     mix_rho      :      1.31s CPU      1.84s WALL (      24 calls)

     Called by c_bands:
     init_us_2    :      1.45s CPU      1.51s WALL (      49 calls)
     init_us_2:cp :      1.45s CPU      1.50s WALL (      49 calls)
     cegterg      :    177.49s CPU    180.36s WALL (      24 calls)

     Called by *egterg:
     cdiaghg      :     14.51s CPU     14.69s WALL (     150 calls)
     h_psi        :     99.43s CPU    101.00s WALL (     151 calls)
     g_psi        :      0.30s CPU      0.30s WALL (     126 calls)

     Called by h_psi:
     h_psi:calbec :     30.57s CPU     30.86s WALL (     151 calls)
     vloc_psi     :     44.88s CPU     45.40s WALL (     151 calls)
     add_vuspsi   :     23.53s CPU     23.91s WALL (     151 calls)

     General routines
     calbec       :     32.71s CPU     33.02s WALL (     156 calls)
     fft          :     10.29s CPU     19.52s WALL (     322 calls)
     ffts         :      0.11s CPU      0.12s WALL (      49 calls)
     fftw         :     41.68s CPU     42.14s WALL (   87824 calls)
     interpolate  :      0.34s CPU      0.35s WALL (      25 calls)

     Parallel routines

     Electric-field routines
     c_phase_fiel :  15054.70s CPU  16132.83s WALL (      72 calls)

     PWSCF        :      4h15m CPU      4h33m WALL


   This run was terminated on:  14:26:33  31Mar2024            

=------------------------------------------------------------------------------=
   JOB DONE.
=------------------------------------------------------------------------------=
