72
Lattice="9.970606803894043 0.0 0.0 0.0 8.634799003601074 0.0 0.0 0.0 10.957059860229492" Properties=species:S:1:pos:R:3:born_charge:R:9:forces:R:3:energies:R:1 polarization="-1.0176488190938267 -1.5123282925130115 -0.1163934317754058" polarizability="7.187049607776426 -0.040562694740215295 0.0186442904414839 -0.040545455201557945 7.162391357307882 0.02352744788514581 0.01866826633168783 0.023531011304324667 7.394408318899675" original_dataset_index=0 energy=-24451.915532760555 stress="-0.036619221104837577 -0.012038516776442255 -0.005986454771758871 -0.012038516776442255 -0.04538361948348802 0.007138440810606105 -0.005986454771758871 0.007138440810606105 -0.04563979336133695" pbc="F F F"
Si       8.78713036       2.16647005       4.64591026       3.43186155       0.25877357       0.31197494       0.22098932       3.12595841       0.06256197      -0.35031777      -0.14748596       3.43617119      -2.47445455       0.55506706      -2.57406628    -339.74418088
Si       1.33929014       2.32646012       2.90642023       3.42711579      -0.37930559      -0.16671173      -0.07617862       3.15901532       0.12679787       0.17271341      -0.05491528       3.43911666      -0.50315810      -3.80277285      -1.33174917    -340.18918366
Si       2.37692022       8.53889084       1.00746012       3.01015451       0.01383418      -0.01198172      -0.03209353       3.68439404      -0.13560242      -0.07419956       0.06963803       3.41724463      -3.40721051       3.55335786       0.70292967    -340.07179370
O        9.18729019       3.19760013       0.06459621      -1.37844195      -0.57031875      -0.41825486      -0.63081141      -2.09762884      -0.73724817      -0.44768111      -0.87551458      -1.72988897      -1.43478643      -1.50405820      -0.31582509    -339.37297307
O        1.07676005       3.61683035       2.05473018      -1.31385202       0.45749670      -0.45032447       0.43975333      -1.86003966       0.72960378      -0.39483045       0.57091982      -1.78929807      -0.73453953       1.21527458      -1.65283473    -339.36536546
O        0.22650301       1.98546016       4.03225040      -2.42314945      -0.00732830       0.80599238       0.01367444      -1.01205185       0.00269394       0.87175150       0.07481711      -1.76026962       3.32745175      -0.08613928      -0.76048273    -339.39666114
O        1.22594011       0.98636705       1.81727016      -1.30202655       0.48122766       0.28858886       0.34370520      -1.95267316      -0.65580292       0.21534946      -0.69653443      -1.65731443       2.08087941      -0.46707131      -0.21586633    -339.35738412
O        2.81061029       2.40914011       3.51330018      -2.41982435       0.15976355      -0.82446684       0.03641553      -1.10314310       0.07496356      -0.88269309       0.14893699      -1.68036836      -1.15595999       1.35534815      -1.58743357    -339.37783194
O        3.32743025       0.56203204       5.13025045      -1.44353264      -0.47701988       0.45250908      -0.58964482      -1.83866153       0.60545847       0.48986484       0.58950336      -1.65883063      -0.21085935      -0.45314310       1.35854179    -339.34764440
Si       8.89653111       1.90797019      10.12320042       3.58336305       0.32718128       0.30397307       0.24772448       3.20437485      -0.04968346      -0.02974557      -0.08522341       3.47060854       0.38429052       0.01774645      -4.18352508    -340.34505269
Si       1.33250010       2.12541008       8.22759056       3.45732672      -0.26872426      -0.32100158      -0.30699508       3.06973273       0.21374017       0.29585388      -0.25840405       3.42367491       0.15395512       2.69219238       0.97284258    -339.61929724
Si       2.34874010       0.00562589       6.35886049       3.03823457      -0.06339870      -0.08155931       0.07212172       3.57571738      -0.27307374       0.02431496       0.20853662       3.41936946       1.41279491       2.76834287       0.14249998    -340.43076659
O        8.72410107       3.37776017       5.64523029      -1.28420809      -0.44487036      -0.38598108      -0.35868603      -1.89023816      -0.74217247      -0.18893071      -0.73489074      -1.78236436      -0.11599437       1.08280867       1.83496586    -339.28855230
O        0.75475508       3.49495029       7.66273069      -1.46469910       0.59102840      -0.38353572       0.64938263      -1.96107274       0.59321890      -0.50755713       0.63081054      -1.61875470      -1.97799629       2.37299976      -1.56664791    -339.43640376
O        0.39548302       1.52920008       9.30027103      -2.15598586      -0.13256884       0.80014939       0.01476749      -1.11815999       0.05945993       0.70481610       0.21571090      -1.74743137      -3.99027114      -0.83621367       3.80384084    -339.32815679
O        1.39769006       1.21159005       7.02381039      -1.31996520       0.51202432       0.41192614       0.39862341      -1.86565488      -0.74167311       0.23631739      -0.67383206      -1.78461379       1.58418891      -4.42828125      -4.50763271    -339.27360607
O        2.75917029       2.40506029       8.85403061      -2.30454724       0.01457630      -0.78515412      -0.00708654      -1.01964707       0.01795016      -0.76743237       0.06603399      -1.71890960       0.66348741       0.28195196       0.41352276    -339.43294773
O        3.32049012       0.77497905       0.06055120      -1.44878183      -0.59141780       0.53068964      -0.57093458      -1.94536714       0.76654222       0.56891739       0.73136042      -1.81724085       0.78687206       0.99143356      -1.74656633    -339.51499980
Si       8.75969028       6.47683048       2.79338026       3.62196381      -0.31639100      -0.15227498      -0.51837400       3.19787110       0.17122443       0.02436000      -0.09394956       3.50385072       2.48021833       0.32161389      -3.30488044    -339.70967840
Si       0.14232801       4.19683027       0.81217903       3.02140355      -0.05244423      -0.05942574       0.06752623       3.76949044      -0.07685986      -0.00142976       0.23383024       3.58422693      -1.72656364       1.71157848       6.63557361    -339.84606777
O        8.26462078       7.87539053       2.09730005      -1.38299941       0.51166846      -0.42485459       0.58615512      -1.97816228       0.72926297      -0.45542174       0.70105958      -1.69639036       0.57582053      -0.36591696       0.23603484    -339.43054639
O        9.22134113       5.35454035       1.71150017      -1.41394729       0.60770110       0.48003605       0.62858395      -2.06012025      -0.81291807       0.45823499      -0.78598603      -1.80456650      -0.36368786      -0.94575880      -1.38206974    -339.54838050
O        0.01902430       6.73475027       3.71219015      -2.32416588       0.01613614      -0.87950480       0.06038316      -1.07668002       0.01644965      -0.89937788       0.05511042      -1.81351891       2.91201087       0.82206280       1.38474635    -339.46441087
O        0.90610307       5.10498047       5.49515057      -1.47576065      -0.59445637       0.43024077      -0.53061960      -1.95156750       0.66260900       0.43624585       0.72254941      -1.70231141      -2.83354329      -4.81454781       3.83367958    -339.29535248
Si       8.80891037       6.54994059       8.29150105       3.54526770      -0.47829856      -0.09883213      -0.24800235       3.33307953       0.02078386       0.16887447      -0.06717092       3.46918020       0.04019861       0.92610343       0.36750245    -340.24754111
Si       9.66070080       4.21911049       6.58136034       3.08134420       0.04855545      -0.04413074       0.01697008       3.57320618      -0.08651480      -0.07873202       0.00462118       3.41659323       5.75366524       0.43244894      -1.26680332    -340.20243917
O        8.38206100       7.82610035       7.38668060      -1.45767124       0.61454025      -0.47188920       0.61143089      -1.98956522       0.75083894      -0.58938392       0.77045601      -1.73219746      -0.54768583       0.87006616      -0.17999202    -339.46470962
O        8.80266094       5.26671028       7.32741070      -1.28014232       0.50165084       0.36054744       0.36757547      -2.13771047      -0.73127028       0.28484983      -0.74713432      -1.63643856      -1.05029668       1.21843625       0.84218545    -339.32330604
O        0.28332302       6.75905037       9.05565071      -2.37560418       0.13117663      -0.86099414       0.03026173      -1.08084645       0.02991656      -0.84900222       0.12946041      -1.69466493      -3.34787197       0.67949023      -3.02839991    -339.40904630
O        1.00550008       4.99218035      10.82210064      -1.38783514      -0.49952782       0.42300443      -0.54875406      -2.05371135       0.70976684       0.47911864       0.69610296      -1.73880349       2.86243585       1.79642624      -3.19725690    -339.35431357
Si       3.89247036       1.95408010       4.53090048       3.59433266       0.27662559       0.21459092       0.32596860       3.18524324       0.23500948      -0.16979001      -0.16319505       3.43973202       2.23983479      -1.58707359       0.32562529    -340.07046193
Si       6.33222055       2.36767006       2.63354015       3.31184472      -0.19242408      -0.13033154      -0.10541076       3.14844720       0.10254968       0.17484125      -0.11326302       3.43558581       3.79438953      -1.40697674       3.36237567    -339.90429781
Si       7.40499067       8.55534077       0.96155608       3.02292882      -0.01105128      -0.02988853       0.05768730       3.61248112      -0.35108767       0.02207748       0.25040258       3.42776974      -2.05046925       2.72544247       0.78295234    -340.26812174
O        3.95301032       3.26756024       0.04773180      -1.37266725      -0.51760828      -0.35679740      -0.49885503      -2.07677622      -0.76602786      -0.32167886      -0.80131538      -1.72467384      -0.32295187       1.13901924       1.16710291    -339.45081204
O        5.97547054       3.62927032       1.82625008      -1.43085061       0.58026820      -0.51036782       0.55556949      -1.91326803       0.66372453      -0.50536883       0.60187712      -1.72330875      -1.35016405       2.83201127      -1.34378608    -339.36650166
O        5.32230043       1.74205017       3.71436024      -2.21852442      -0.23410186       0.86847533      -0.07689259      -1.04938956       0.05230737       0.79885357       0.20768961      -1.73419466      -1.77641460       0.64863755       1.69009631    -339.39539361
O        6.41166067       1.18854010       1.60303009      -1.27938515       0.54730701       0.33562402       0.39825973      -2.06879857      -0.70187446       0.22983512      -0.77528796      -1.66676131       2.33247945      -3.42365306      -2.53954617    -339.35945315
O        7.86442041       2.73232031       3.42077017      -2.10473307       0.09065375      -0.82925119      -0.03627828      -1.09589938       0.04302696      -0.69048332       0.16164069      -1.77387504      -2.83000686      -0.75030296      -1.63070559    -339.39631539
O        8.25371075       0.85786605       5.26263046      -1.43096685      -0.59593852       0.45346046      -0.58201944      -1.96871050       0.63218976       0.49118298       0.70178798      -1.68958859      -0.84758249      -2.88740771       2.23202964    -339.40955019
Si       3.75493026       2.03295016      10.04370117       3.54261956       0.37887984       0.10410338       0.37680110       3.12932513      -0.01384190      -0.23037981      -0.01743066       3.55528508       2.07076462      -1.42526445      -0.35513124    -340.15956760
Si       6.30168056       2.48675013       8.20054054       3.60021011      -0.41147235      -0.29326081      -0.34207897       3.18730275       0.20535099       0.26072645      -0.29389123       3.33262620      -0.55130513      -1.87798122       0.93331657    -340.06382182
Si       7.33076048       0.05562070       6.43329048       3.03873253      -0.08668486       0.02155159       0.12736911       3.75626303      -0.09109937       0.22068966       0.08275274       3.32389115       1.05668338       2.15468074      -0.98329563    -340.06400834
O        4.02396011       3.01649022       5.72001028      -1.21281963      -0.51536959      -0.33015427      -0.36016397      -2.13183859      -0.75783937      -0.24382502      -0.80529932      -1.72216671       0.73104548       2.61588427       1.39544163    -339.37466927
O        5.70544052       3.92318034       7.63514042      -1.41425172       0.51772423      -0.48746610       0.61602159      -1.89384281       0.59740452      -0.52892166       0.60779142      -1.69843685      -0.42804596       0.12160848      -1.65533850    -339.18898802
O        5.22494030       1.80357015       9.29324055      -2.27552588      -0.22517627       0.82226308      -0.07579265      -1.09667713       0.06378872       0.81845478       0.21796053      -1.71389278      -0.20234864       0.47035576       0.14297812    -339.41849532
O        6.44267035       1.31565011       7.07349062      -1.32294927       0.52969557       0.31338479       0.43977858      -2.15103738      -0.73668586       0.30721683      -0.91733507      -1.69772966       0.39421328      -0.95361003      -0.55160665    -339.33472614
O        7.80820036       2.38818026       8.86452103      -2.36543081       0.27657782      -0.80364479       0.08921011      -1.05704116       0.14990471      -0.87377020       0.23856765      -1.75972377       0.97751337       0.57923990       1.75086492    -339.38708157
O        8.35138035       0.55341405      10.76250076      -1.45950873      -0.51380927       0.48351322      -0.57760251      -1.83492436       0.65689602       0.54495029       0.67743666      -1.74167887       0.37594582       0.23295382       0.16748743    -339.34125688
Si       1.29005015       6.34655046       4.70347023       3.56849203       0.38685458       0.07006336       0.19821186       3.22803670       0.01372758       0.01816106      -0.08382451       3.46659647      -2.13981739       1.98022364      -2.24217257    -339.87236265
Si       3.71222019       6.43474054       2.70307016       3.57680026      -0.23653156      -0.20573580      -0.28862951       3.29543657       0.04301783       0.08269805      -0.01003284       3.41667646      -2.27283985      -0.10771923       1.05336141    -340.10628495
Si       4.85878038       4.32201052       0.84541905       3.05383277       0.04654335      -0.02658707      -0.07866142       3.63085136      -0.04057379       0.04574073       0.09747267       3.57576853       2.17166054      -1.60745695      -1.37704559    -340.16524384
O        1.48631012       7.51571035       0.16234601      -1.25770956      -0.47481429      -0.40674030      -0.42667711      -2.03238169      -0.80134508      -0.31949996      -0.76843167      -1.79822874       0.09868828      -0.29433357      -0.13539671    -339.47799466
O        3.27687025       7.80238056       2.04006004      -1.40381623       0.55834462      -0.40853464       0.59601762      -2.00068338       0.67282771      -0.47652322       0.73389557      -1.67552147       0.30780598      -0.14556077       0.17209559    -339.31693164
O        2.57965016       6.07525063       3.82725024      -2.27630816       0.01155215       0.88891130      -0.03310725      -1.07715439       0.07371919       0.86323637       0.05939709      -1.85900468       1.96781385      -0.33156284      -1.05929373    -339.51682705
O        3.94658017       5.17893028       1.75728011      -1.37812799       0.48818578       0.43265070       0.54279942      -1.96838946      -0.76417032       0.39026186      -0.77442251      -1.79258400      -1.84537764       1.23761179       0.84566526    -339.41076789
O        5.07519054       6.92225027       3.30235028      -2.22365935      -0.07179575      -0.67481450      -0.04333492      -1.07140619       0.01075102      -0.76839598       0.04503179      -1.61182634       1.66396754       0.65812628       0.24261283    -339.14027812
O        5.58071041       5.06458044       4.98005056      -1.36336287      -0.51922166       0.45975523      -0.55260258      -1.95757468       0.69447545       0.49439771       0.66301281      -1.77357026      -0.52438367      -1.64203518       1.61830009    -339.28035427
Si       1.40588009       6.34521055      10.01970100       3.52144310       0.23659594       0.11584188       0.25555808       3.27897496       0.07315651      -0.12920863      -0.10628970       3.56731943       0.77654507      -0.63717806       2.12608388    -340.07889944
Si       3.77617025       6.65721035       8.16037083       3.47783319      -0.27266795      -0.20673568      -0.27792737       3.16843663       0.24406636       0.21107241      -0.23612841       3.52589850       0.90172176      -1.17293166      -2.61884996    -340.14259849
Si       4.73155022       4.43920040       6.25217056       2.82337735      -0.02663695       0.07830517      -0.11694054       3.71066405      -0.50820655       0.01163270       0.29273847       3.44645801       0.90873812      -1.87628391       1.28663177    -340.42394245
O        1.41763008       7.60429049       5.68649054      -1.31234232      -0.54332470      -0.32743462      -0.49147317      -2.09158888      -0.67901244      -0.29133661      -0.70321073      -1.61681550      -1.06167243      -0.80789142      -0.09573831    -339.36829171
O        3.27724028       8.00754070       7.54306078      -1.40761651       0.53945061      -0.41459863       0.58793618      -1.95486773       0.61542686      -0.48175515       0.59518960      -1.71107517      -0.63008307       2.06809347      -0.49213160    -339.37154259
O        2.74103022       6.10190058       9.17589092      -2.23204592      -0.11158252       0.87400994      -0.04146942      -1.07522437       0.04863129       0.82522633       0.17760026      -1.80001044      -0.75566618      -1.15650700       1.79214996    -339.42617415
O        3.79282022       5.65144062       6.79893064      -1.25315978       0.52678148       0.30831848       0.41193599      -1.89008054      -0.65771759       0.21573530      -0.63803549      -1.70983305       0.59922195      -0.38304081       0.97734204    -339.27323317
O        5.19206047       6.84188032       8.87996101      -2.27583972       0.02945420      -0.86431471       0.01725653      -1.06350294       0.04872630      -0.85167965       0.10678093      -1.80558056      -1.79486377       1.30144199      -2.68066460    -339.32569980
O        5.70690060       5.15203047      10.71750069      -1.34918021      -0.56370086       0.42075328      -0.58243784      -2.03377422       0.70594767       0.46922836       0.69565730      -1.75787767      -0.07726983      -0.20282994      -0.10080863    -339.52876563
Si       6.12870026       6.38979053       4.32860041       3.50438635       0.30654942       0.18600901       0.35149084       3.25041995       0.22920767      -0.26500003      -0.05495965       3.27974515       3.50774888       3.27146552       2.74956417    -340.19922330
O        6.35109043       7.57563066       0.28308603      -1.38274113      -0.48924651      -0.35661028      -0.54382069      -1.86496350      -0.72495356      -0.37644765      -0.67609086      -1.77176718      -0.93515464      -1.05031714      -1.49325830    -339.39233119
O        7.65793037       6.10048056       3.78286028      -2.33892716      -0.07730878       0.79039907       0.05595409      -1.08537253       0.01268691       0.85852507       0.06808692      -1.63173557      -5.21309189      -1.24771275       2.77900980    -339.24664156
Si       6.19274044       6.49984026       9.97590065       3.54067792       0.40299486       0.26821802       0.39337637       3.16817742       0.16765840      -0.18543522      -0.10564702       3.53647430       2.84858750      -0.55694767       4.30308649    -340.06117398
O        6.30425024       7.84597063       5.58181047      -1.35801337      -0.41777332      -0.38754686      -0.63858268      -1.87351419      -0.76221439      -0.42967582      -0.66213882      -1.69987146      -1.31877098      -4.26189269      -2.41462503    -339.16097006
O        7.68201065       6.29306030       9.40567112      -2.33794426       0.00593760       0.76185789      -0.01430738      -1.07151848      -0.00055346       0.86958447       0.02504272      -1.68435335       0.05951995      -0.20317168       0.14638561    -339.48688413
72
Lattice="9.970606803894043 0.0 0.0 0.0 8.634799003601074 0.0 0.0 0.0 10.957059860229492" Properties=species:S:1:pos:R:3:born_charge:R:9:forces:R:3:energies:R:1 polarization="0.24064806411908005 0.7758572933537974 -0.820293893325605" polarizability="6.972491118991574 0.009128989557448798 -0.0076893936362382245 0.009116080789959635 7.001556182032068 -0.008859904187784116 -0.00766716585559579 -0.008860166631245555 7.248952817210588" original_dataset_index=1 energy=-24453.444413640624 stress="-0.0672266452979278 0.006665554925554852 -0.0070291939522102295 0.006665554925554852 -0.044383432014090014 -5.6779620179793696e-05 -0.0070291939522102295 -5.6779620179793696e-05 -0.052936542519777516" pbc="F F F"
Si       8.75824070       2.04751015       4.44033051       3.54714168       0.44537184       0.24873276       0.38431998       3.23860738       0.01531604      -0.17379913      -0.00174139       3.42251718      -0.82808770       1.09902177       5.24552320    -340.04317527
Si       1.39078009       2.32156014       2.83376026       3.61913923      -0.26415878      -0.18011331      -0.41919871       3.21976475       0.14625330       0.16177388       0.01716052       3.35669931      -1.34789544      -0.26753608       0.56597413    -340.33293093
Si       2.40389013       8.66642094       0.86213505       3.00881521      -0.05732140      -0.01880694       0.09125287       3.58304130      -0.10409488       0.06489562       0.25366558       3.49155647       0.83843585      -0.65777664       2.09281310    -339.95642030
O        9.00021076       3.28070021       0.30672804      -1.40314507      -0.56034461      -0.36896414      -0.59307407      -2.04785203      -0.71179589      -0.38283103      -0.81931831      -1.72862338      -0.20608957      -1.28355762      -0.55275264    -339.53501513
O        0.68923306       3.66632032       2.27482009      -1.37928584       0.50137565      -0.47108213       0.56348204      -1.92123707       0.63187557      -0.48171784       0.65929511      -1.70516958       1.88251984      -0.77525245       0.69152394    -339.33754029
O        0.21326502       1.85558009       3.91103029      -2.37671681      -0.09299842       0.67960252      -0.05467710      -1.12067840       0.06771745       0.85432534       0.08148042      -1.61195536       4.11031424      -1.30672861      -1.81274826    -339.32332520
O        1.67302012       1.12987006       1.78665018      -1.29611155       0.54253184       0.43276958       0.52467095      -2.10486651      -0.88386535       0.35252955      -0.88209598      -1.86270430      -0.92444419       1.00388474      -0.11939423    -339.57694673
O        2.75864029       2.74685025       3.55189037      -2.18745612       0.07132810      -0.78118494       0.03798300      -1.11081759       0.05961970      -0.76169347       0.10876514      -1.67089729      -0.64774025       0.59876026      -0.81837945    -339.31633020
O        3.09557033       0.73425108       5.18457031      -1.38833578      -0.53981106       0.43753103      -0.56373934      -1.96729263       0.64994697       0.46512621       0.67926915      -1.70262165       1.03496606       0.95987688      -0.11430596    -339.51733250
Si       8.72789097       2.02140021      10.16330051       3.66623698       0.35539377       0.20506545       0.37140272       3.13678714       0.19904994      -0.25242073      -0.12913211       3.47833906       1.20673342       6.66804537      -0.36841642    -339.81754038
Si       1.14417005       2.23727012       8.09953022       3.49147929      -0.41339533      -0.21559011      -0.25027309       3.17068932       0.00062994       0.12097948      -0.09320707       3.53834456       2.51777155      -0.82383793       1.80581722    -340.41596138
Si       2.32797027      -0.03908000       6.39156055       2.94799069      -0.01337419      -0.02531783      -0.20936810       3.70668406      -0.27427756       0.01645161       0.14640306       3.48938003       3.53781429      -1.03557794      -0.09722253    -340.00918994
O        8.91897106       3.40850019       5.46379042      -1.37833676      -0.49110684      -0.35198198      -0.56397478      -2.03196324      -0.70719264      -0.36555668      -0.72089529      -1.65268467      -0.52641266      -1.50018410      -0.62962660    -339.45741068
O        0.85334504       3.61015034       7.30309057      -1.33075720       0.52082336      -0.45523802       0.50164643      -1.95018590       0.74828008      -0.45719100       0.73458167      -1.75696265       1.51293691      -2.15123707       2.25927210    -339.36969801
O        0.15686601       1.98943019       9.40319061      -2.26241052      -0.08935634       0.91012914       0.02623644      -0.98667478       0.02898973       0.88682204       0.08768281      -1.85919810       1.56144579      -0.90630415      -2.09922641    -339.45675209
O        1.33264005       0.90753508       7.09094048      -1.40728058       0.50278707       0.34309565       0.60242012      -2.02057331      -0.67394638       0.41997841      -0.73608985      -1.65646752      -2.66721866       3.61234349       2.77176097    -339.33631235
O        2.68999028       2.42651010       8.88418102      -2.25831337       0.15339125      -0.86709198       0.00465868      -1.05116324       0.05456917      -0.79609897       0.16175989      -1.75020678      -4.10899332       0.40062985      -2.77094056    -339.39468169
O        3.42757034       0.61813504      -0.18062501      -1.35704371      -0.48118716       0.42485360      -0.54819670      -1.83589228       0.68816147       0.47502503       0.61037725      -1.72634418       0.26395790       1.48737852      -1.45785478    -339.39245397
Si       8.80991077       6.70539045       2.90898013       3.54221296      -0.36868816      -0.28868615      -0.38759900       3.17478183       0.11288257       0.14584753      -0.09876442       3.35981891      -5.67659391      -5.04792615      -1.60957783    -339.87051498
Si      -0.01181760       4.38664055       1.07489014       2.92046602       0.02618541       0.11156651       0.15406626       3.71856288      -0.29071936      -0.10933612       0.24996067       3.42191832      -1.50720755       0.66649559      -2.81273158    -340.07834964
O        8.25217056       7.95038080       2.18188024      -1.38469172       0.53979037      -0.47620773       0.57231834      -1.94583720       0.68540151      -0.49620574       0.68295244      -1.82824835      -1.74051335       3.69992971      -2.83238556    -339.39059079
O        9.01511097       5.51745033       1.68481016      -1.35249509       0.53779282       0.34439571       0.54079106      -2.01271935      -0.68680241       0.38862445      -0.77055882      -1.71942837      -1.03115148       1.53598597       1.44970638    -339.40169387
O        0.23376802       6.90802050       3.42716026      -2.35307565       0.07935931      -0.68702199       0.02696254      -1.09487068       0.04509546      -0.84944648       0.05906428      -1.59702809       4.80482800       1.07621995       2.74207775    -339.25984245
O        0.90129405       5.05061054       5.22913027      -1.41161254      -0.47881701       0.42340220      -0.57841490      -1.94909500       0.67438413       0.45935971       0.57294747      -1.67678486       2.72788905       2.77132670      -3.21988285    -339.33493199
Si       8.83211040       6.52854061       8.11839104       3.59013414      -0.33851576      -0.24998398      -0.33907155       3.12397586       0.15164373       0.28620805      -0.15436081       3.43601357      -0.85503509      -0.61316562       1.50339634    -340.04847361
Si       9.97069073       4.38424015       6.25339031       3.01777018      -0.01669558       0.04688817      -0.00138451       3.63779495      -0.14232484       0.05759033       0.17425502       3.45597441      -5.14077888      -0.97260342      -0.17212810    -339.91355481
O        8.15281105       7.86713076       7.58921051      -1.43680827       0.54779358      -0.41108313       0.63559048      -1.97210186       0.62175671      -0.48859035       0.67067928      -1.68270625       0.86577652       0.38456240       0.16587947    -339.45071869
O        8.95651054       5.40079021       7.04808044      -1.32820287       0.51371878       0.40898829       0.50986166      -1.93528350      -0.73724677       0.33686320      -0.75804464      -1.74126076       0.72826193      -0.88856311      -1.60793922    -339.45493146
O        0.27597502       6.69299030       8.86747074      -2.25713867       0.00925572      -0.89634117      -0.03788611      -1.02363100       0.02568789      -0.86383436       0.06707047      -1.86219704      -1.07669327       1.20166591      -1.45566009    -339.41041483
O        0.99037808       5.09996033      10.91210079      -1.34790055      -0.54390967       0.50297462      -0.47300581      -1.92148222       0.73551483       0.46579795       0.67834442      -1.77262350      -0.64803160      -0.34071169       0.36389628    -339.45026144
Si       3.78286028       2.17841005       4.62013054       3.48893182       0.16109138       0.15920652       0.30486086       3.13854791       0.20841789      -0.30887616      -0.14697604       3.37604502       1.07631550      -3.92013689      -1.42527329    -340.20509801