
units		metal
atom_style	atomic

read_data ${STRUCTURE}.data
read_data BaTiO3-sc333.data
Reading data file ...
  orthogonal box = (0 0 0) to (11.898253 11.898253 12.912076)
  2 by 4 by 4 MPI processor grid
  reading atoms ...
  135 atoms
  read_data CPU = 0.009 seconds
replicate $L $L $L
replicate 2 $L $L
replicate 2 2 $L
replicate 2 2 2
Replication is creating a 2x2x2 = 8 times larger system...
  orthogonal box = (0 0 0) to (23.796507 23.796507 25.824152)
  2 by 4 by 4 MPI processor grid
  1080 atoms
  replicate CPU = 0.003 seconds

pair_style allegro
pair_coeff	* * ${MODEL}.pth Ba Ti O
pair_coeff	* * BaTiO3-E0.pth Ba Ti O
mass 1 137.3
mass 2 47.9
mass 3 15.9994

timestep 0.002
compute polarization all allegro polarization 3
compute allegro will evaluate the quantity polarization of length 3 (src/compute_allegro.cpp:53)
compute polarizability all allegro polarizability 9
compute allegro will evaluate the quantity polarizability of length 9 (src/compute_allegro.cpp:53)

thermo_style custom pe fmax fnorm spcpu cpuremain

variable efield equal 1e-2*36.36
fix born all addbornforce 0.0 0.0 ${efield}
fix born all addbornforce 0.0 0.0 0.3636

thermo 10
min_style fire
#minimize 0.0 1e-6 100 100
velocity all create ${TEMP} ${SEED} dist gaussian rot yes mom yes
velocity all create 300 ${SEED} dist gaussian rot yes mom yes
velocity all create 300 5744 dist gaussian rot yes mom yes
fix nvt all nvt temp ${TEMP} ${TEMP} $(100*dt)
fix nvt all nvt temp 300 ${TEMP} $(100*dt)
fix nvt all nvt temp 300 300 $(100*dt)
fix nvt all nvt temp 300 300 0.2000000000000000111
run 5000
Neighbor list info ...
  update: every = 1 steps, delay = 0 steps, check = yes
  max neighbors/atom: 2000, page size: 100000
  master list distance cutoff = 8
  ghost atom cutoff = 8
  binsize = 8, bins = 3 3 4
  1 neighbor lists, perpetual/occasional/extra = 1 0 0
  (1) pair allegro/kk, perpetual
      attributes: full, newton on, kokkos_device
      pair build: full/bin/kk/device
      stencil: full/bin/3d
      bin: kk/device
Per MPI rank memory allocation (min/avg/max) = 3.516 | 3.516 | 3.516 Mbytes
    PotEng          Fmax          Fnorm          S/CPU         CPULeft    
-807708.29      1.595624       37.041862      0              0            
-807646.5       3.6969948      45.574384      2.3058831      2164.0308    
-807638.31      2.5985285      34.999685      25.866551      1176.1104    
-807608.77      3.0227837      37.29841       25.875727      846.52309    
-807604.91      3.8944119      49.799795      25.845326      681.5926     
-807567.53      3.3640447      40.430614      25.809351      582.53292    
-807602.53      2.946673       38.936274      25.860039      516.30146    
-807645.97      3.1745936      33.122565      25.849231      468.89418    
-807685.08      2.4841578      33.822493      25.825681      433.2637     
-807668.47      3.2419103      34.094695      25.825514      405.46519    
-807654.74      3.5483405      34.188669      25.867958      383.11781    
-807661.87      2.4785595      27.001718      25.843735      364.7794     
-807630.39      3.0144448      30.247146      25.850957      349.42852    
-807585.86      2.9692444      39.548733      25.81387       336.40062    
-807569.56      2.941068       37.892175      25.890481      325.13871    
-807631.49      3.1274599      33.685172      25.872301      315.33566    
-807654.75      2.9338882      29.994023      25.851789      306.71896    
-807665.93      2.6834399      33.32936       25.830639      299.07948    
-807648.61      4.7252587      43.78017       25.900292      292.21794    
-807682.08      3.0010148      35.998236      25.828538      286.06517    
-807643.36      3.6038134      38.631062      25.825128      280.49019    
-807618.67      3.1799437      37.747169      25.865744      275.39542    
-807563.08      4.6853222      45.297616      25.916442      270.71223    
-807606.34      4.3185478      49.130574      25.840489      266.42625    
-807613.32      4.0211438      38.069188      25.820838      262.471      
-807642.19      3.0398935      34.856585      25.882754      258.78361    
-807645.85      4.3972317      44.296743      25.885112      255.34949    
-807683.85      2.6383723      37.208161      25.818208      252.15868    
-807664.52      3.5290522      34.289745      25.75201       249.1849     
-807639.76      2.7650393      31.290429      25.852938      246.36481    
-807610.98      3.7477166      32.974106      25.88055       243.70047    
-807606.46      3.581689       41.516361      25.859021      241.18796    
-807597.77      3.0369444      35.551453      25.805612      238.82002    
-807608.1       2.4530791      32.745731      25.879722      236.5564     
-807644.68      3.1363664      29.048922      25.879063      234.40334    
-807674.38      2.8613441      31.685564      25.83427       232.36013    
-807677.89      2.5465696      31.643686      25.795704      230.41639    
-807645.62      4.6205135      38.20367       25.899187      228.53738    
-807652.4       2.9501056      29.376402      25.89973       226.73684    
-807623.77      3.901471       33.013942      25.897036      225.00931    
-807602.91      3.8636802      42.273146      25.857578      223.35563    
-807570         2.9374676      40.247113      25.921111      221.75314    
-807627.06      2.7650998      34.629439      25.919614      220.20883    
-807650.12      2.8346635      33.629141      25.886521      218.72364    
-807673.57      2.4788487      34.18816       25.861217      217.29233    
-807644.03      4.0289719      45.555961      25.897327      215.90199    
-807670.32      2.7616549      34.640598      25.875527      214.55852    
-807645.16      3.5906838      35.894503      25.855739      213.25863    
-807626.29      2.9751317      37.006803      25.903118      211.99012    
-807565.82      3.8421251      42.74231       25.951922      210.75095    
-807603.48      3.5626936      43.190152      25.904542      209.55227    
-807624.07      3.6768435      34.51886       25.879184      208.38879    
-807655.5       2.8339422      31.63572       25.912353      207.25094    
-807643.87      5.0324446      41.042139      25.928264      206.13947    
-807676.55      2.7562847      33.40912       25.917554      205.05619    
-807667.22      3.3644303      32.040975      25.853246      204.00604    
-807645.11      2.8319716      28.906531      25.889661      202.97527    
-807602.36      3.7781688      33.981346      25.913229      201.96438    
-807600.75      3.8212536      37.101582      25.929213      200.97323    
-807606.81      3.505839       38.20898       25.852046      200.01121    
-807620.49      2.8222021      30.610379      25.884859      199.06477    
-807639.83      3.1474777      31.155532      25.934262      198.1314     
-807666.19      3.6932863      32.028882      25.904659      197.21881    
-807678.55      2.7002425      33.690075      25.812943      196.33244    
-807646.94      4.6016558      37.816306      25.877056      195.45514    
-807638.66      2.6547339      32.18776       25.874349      194.59321    
-807615.61      3.5928285      34.175902      25.903999      193.74277    
-807605.98      4.0417988      44.380838      25.836358      192.91273    
-807579.68      4.3387726      40.668108      25.855771      192.09387    
-807618.67      3.466934       36.418121      25.925654      191.28103    
-807645.81      4.8032823      37.051941      25.909558      190.48186    
-807674.63      3.1653196      36.090394      25.870454      189.69786    
-807647.86      5.7905434      43.826004      25.886539      188.92347    
-807657.02      3.6436016      34.729294      25.872717      188.16091    
-807642.92      4.4379828      34.880355      25.88034       187.40787    
-807626.49      3.7925687      37.764774      25.899444      186.66299    
-807577         3.8087464      39.461797      25.905986      185.927      
-807593.91      3.1783913      40.024574      25.896058      185.20092    
-807628.66      2.9472166      32.042118      25.8815        184.48473    
-807659.78      3.0044313      31.63611       25.881813      183.77687    
-807650.63      3.6767878      36.40964       25.913581      183.07456    
-807661.78      3.1874787      34.473749      25.810989      182.38799    
-807666.6       3.5814933      31.946076      25.870281      181.70419    
-807644.96      3.5032862      30.685712      25.89269       181.02587    
-807605.08      3.1572849      34.472772      25.938527      180.35113    
-807589.82      3.2559731      37.096312      25.906131      179.68555    
-807609.58      3.7686709      38.669777      25.863211      179.02956    
-807629.31      3.3974461      31.628153      25.865117      178.37962    
-807641.78      3.2570618      32.82202       25.873643      177.73506    
-807655.43      4.5749607      36.304476      25.857111      177.09745    
-807673.78      2.7688075      35.315496      25.824275      176.46766    
-807652.39      3.426955       35.406054      25.844188      175.84185    
-807632.6       2.675747       33.106671      25.903038      175.21734    
-807605.04      3.7358188      37.515002      25.9183        174.59696    
-807608.77      3.8675964      43.511984      25.876977      173.98423    
-807594.52      3.9492788      38.401654      25.833561      173.37904    
-807620.08      2.9022687      35.388409      25.901131      172.77414    
-807642.7       3.5949455      35.747686      25.942673      172.17118    
-807671.41      3.4506799      35.853485      25.895411      171.57555    
-807657         4.2746532      37.533149      25.862992      170.98611    
-807649.57      3.6144755      33.989111      25.939242      170.39617    
-807635.14      4.00721        32.598325      25.931758      169.81073    
-807626.14      3.5554135      35.767464      25.92518       169.22959    
-807591.26      3.8374081      37.099897      25.903792      168.65347    
-807596.52      3.6192134      36.710108      25.916935      168.08025    
-807627.41      3.4897686      31.964016      25.901885      167.51145    
-807660.43      3.9665271      32.144466      25.873736      166.94766    
-807658.93      4.1289502      34.330195      25.859675      166.38796    
-807653.02      5.2091598      35.748206      25.875541      165.83059    
-807659.03      3.0321417      31.699694      25.895439      165.2753     
-807641.85      4.0710212      31.540502      25.919586      164.72181    
-807611.48      3.5931188      34.549163      25.878487      164.17349    
-807583.41      3.7854708      37.960742      25.848378      163.62961    
-807612.75      3.7306826      36.872437      25.90375       163.08569    
-807634.15      3.3686355      32.823553      25.873479      162.54606    
-807652.39      2.8659566      32.105715      25.905273      162.00751    
-807648.16      4.8328588      37.926928      25.8783        161.47292    
-807669.25      2.9076965      33.955244      25.788991      160.94524    
-807651.43      3.1169065      34.630313      25.787481      160.42001    
-807633.35      2.660054       33.25978       25.857952      159.8937     
-807596.69      3.2360313      36.117196      25.893819      159.36803    
-807604.54      3.5927667      40.72828       25.879315      158.84534    
-807607.29      3.3514277      35.749404      25.83104       158.32711    
-807631.4       2.7565149      32.376352      25.897711      157.80797    
-807639.94      4.0941157      36.209916      25.889792      157.29133    
-807669.11      2.6179174      33.53565       25.849656      156.77858    
-807659.03      3.9485372      35.761082      25.807351      156.2697     
-807649.33      2.8191064      31.990844      25.798521      155.76313    
-807623.68      3.5220752      34.066922      25.905405      155.25377    
-807619.07      3.1529084      36.217808      25.879727      154.74742    
-807601.02      3.9867618      38.162853      25.876219      154.24306    
-807602.98      3.1825872      36.523597      25.862207      153.7411     
-807626.97      4.0659986      32.883105      25.927297      153.23818    
-807656.22      3.0081224      32.774217      25.744851      152.74456    
-807663.88      2.5942609      33.18106       25.840223      152.24859    
-807649.15      4.2344392      35.575926      25.836018      151.75441    
-807648.38      2.9886455      32.146485      25.832937      151.26193    
-807635.23      3.192263       32.261009      25.862917      150.7698     
-807615.44      3.0339078      35.662565      25.800246      150.28166    
-807587.02      3.8074125      38.298588      25.895055      149.79128    
-807610.82      3.2372449      35.39352       25.909483      149.30184    
-807637.26      3.6944891      32.799124      25.865043      148.81556    
-807656.28      3.0532587      33.138668      25.858312      148.33093    
-807648.22      4.1503818      37.573399      25.904575      147.84595    
-807658.77      3.3817171      34.39021       25.845354      147.36452    
-807648.65      3.0720597      33.801402      25.839431      146.88462    
-807633.5       2.8174961      32.87061       25.830835      146.4063     
-807594.05      3.7746729      37.449106      25.88091       145.92743    
-807601.25      3.6822271      39.071963      25.859806      145.45055    
-807614.21      3.6690927      35.237855      25.774585      144.9779     
-807639.11      3.6725259      32.926038      25.820084      144.50478    
-807642.11      5.0350726      36.403096      25.834894      144.03229    
-807661.23      3.1756736      34.428324      25.87585       143.55951    
-807660.21      4.287398       35.1312        25.871632      143.08801    
-807646         3.090271       33.087997      25.874021      142.61753    
-807617.42      4.381605       34.364067      25.886361      142.14773    
-807607.92      3.1992977      36.209508      25.913009      141.67811    
-807603.82      4.1988577      38.039842      25.830038      141.21228    
-807614.07      2.99264        34.351019      25.891155      140.74546    
-807630.52      3.6109074      32.588272      25.86131       140.28061    
-807652.39      3.7142678      33.416632      25.891445      139.81578    
-807664.3       2.7195315      33.77819       25.870038      139.3526     
-807652.36      3.6643028      35.326008      25.819246      138.89196    
-807639.96      2.8268161      33.872183      25.895336      138.42986    
-807625.34      3.5253459      34.329486      25.920341      137.96792    
-807614.88      3.4973698      37.724135      25.883357      137.50803    
-807594.14      3.7912555      38.23483       25.86564       137.04955    
-807611.19      2.891173       35.385072      25.902611      136.59083    
-807637.52      4.4116637      33.413498      25.868991      136.13397    
-807659.95      3.8731914      32.756953      25.841357      135.67876    
-807650.05      3.8014975      36.467814      25.878576      135.22326    
-807652.28      3.258665       32.952132      25.878674      134.76857    
-807644.73      3.0145887      32.292424      25.851159      134.31546    
-807631.34      3.2843842      33.083665      25.855678      133.86299    
-807600.42      3.2812232      35.526013      25.878001      133.41064    
-807600.06      3.5743482      37.016763      25.88602       132.95883    
-807621.39      3.2411803      33.786908      25.862015      132.50842    
-807644.83      2.7636885      33.095134      25.806993      132.06024    
-807649.04      4.0018769      34.074712      25.822356      131.61232    
-807655.03      3.3796792      33.862064      25.868832      131.16383    
-807656.7       3.1111783      32.563786      25.819427      130.71735    
-807645.31      2.7036798      31.450025      25.86508       130.27031    
-807618.1       2.4324488      32.794042      25.897036      129.82311    
-807601.61      2.9772982      35.315608      25.93057       129.3757     
-807610.8       3.3831564      35.860137      25.870332      128.93051    
-807624.39      3.1561792      33.840067      25.865519      128.48608    
-807636.87      3.5856579      33.13558       25.919149      128.04092    
-807649.28      4.4366631      35.273315      25.897172      127.59694    
-807661.2       3.720871       33.974932      25.816168      127.15558    
-807652.89      3.0403304      33.353447      25.757049      126.71626    
-807633.07      3.1250767      33.654413      25.893575      126.27414    
-807617.37      3.2295323      33.149078      25.904083      125.83235    
-807611.86      2.9289787      36.255267      25.871693      125.39192    
-807607.84      3.6434433      34.515059      25.839906      124.9528     
-807620.66      3.5095245      33.064401      25.909229      124.51259    
-807637.71      3.14247        32.375449      25.877         124.07368    
-807657.13      2.6388064      33.185143      25.833682      123.63632    
-807652.88      3.0310512      33.954586      25.81668       123.19985    
-807644.92      3.1859125      33.922883      25.879137      122.76246    
-807633.36      4.1803917      33.343485      25.909797      122.32489    
-807623.78      3.8601117      35.016427      25.918281      121.88764    
-807605.18      3.8282997      37.304234      25.877626      121.45181    
-807604.73      2.9817302      36.361619      25.870762      121.01662    
-807621.65      3.5529273      34.297421      25.907542      120.5811     
-807646.67      2.81115        32.631187      25.842219      120.14749    
-807650.58      3.4883012      33.780576      25.820126      119.71481    
-807647.39      2.6324928      34.666326      25.841282      119.28211    
-807647.72      4.5865826      32.993677      25.873577      118.84918    
-807638.65      2.7597906      31.94628       25.891838      118.4163     
-807617.36      3.1884105      33.924694      25.8572        117.9846     
-807599.27      3.5720511      36.722011      25.876387      117.55293    
-807610.53      2.9270784      36.289073      25.879918      117.12161    
-807629.94      3.061213       34.008325      25.894957      116.69041    
-807641.83      3.4773602      34.338039      25.878314      116.25997    
-807648.08      3.3917955      34.684281      25.883184      115.82984    
-807655.54      2.9196749      34.426835      25.902939      115.39973    
-807649.65      3.0739261      33.173604      25.902972      114.97003    
-807632.98      2.8628428      32.651292      25.869617      114.54138    
-807610.05      3.1679333      34.468484      25.913473      114.11227    
-807606.99      3.535494       36.605651      25.882225      113.68415    
-807614.22      3.4435538      35.419295      25.848307      113.25706    
-807629.19      3.0873221      33.000426      25.872693      112.82987    
-807639.26      3.5575661      34.30109       25.908311      112.40238    
-807655.18      2.4093743      33.90085       25.856084      111.97623    
-807655.66      2.8081805      33.691881      25.899978      111.54962    
-807645.2       2.3535974      33.095736      25.894783      111.12347    
-807623.57      3.8338508      34.650645      25.869019      110.69815    
-807617.26      3.1965613      35.077362      25.91769       110.27228    
-807608.41      3.6019376      36.40028       25.891819      109.84723    
-807613.42      3.4324139      34.673331      25.868028      109.42294    
-807626.94      3.2552207      33.494022      25.884358      108.99869    
-807649.83      2.6031383      32.419112      25.921551      108.57413    
-807654.69      2.9619784      33.673851      25.904561      108.15019    
-807649.56      2.9255409      33.991422      25.866851      107.72722    
-807640.5       3.0087045      33.159476      25.909628      107.30384    
-807632.7       3.868683       32.74362       25.901116      106.88091    
-807615.49      3.0956296      35.288609      25.895542      106.4584     
-807603.84      3.2244818      36.424835      25.80276       106.03773    
-807613.68      3.0304785      34.857172      25.862263      105.61635    
-807637.31      3.7523359      32.115621      25.87887       105.195      
-807648.62      2.7266365      32.972364      25.895238      104.77367    
-807649.29      4.106582       33.814686      25.870407      104.35304    
-807649.93      3.2511287      33.811106      25.880227      103.93253    
-807644.53      3.634502       32.899952      25.840787      103.51292    
-807630.33      2.7179688      32.878322      25.890138      103.09281    
-807607.54      3.452891       35.591795      25.914889      102.67258    
-807604.53      3.6360825      36.797897      25.862996      102.25344    
-807619.29      3.2873242      35.593567      25.865911      101.83452    
-807636.54      3.0155233      33.089136      25.886033      101.41555    
-807642.21      3.5378351      35.188841      25.910636      100.99647    
-807651.99      3.1697581      34.509879      25.901229      100.5778     
-807651.98      3.595105       34.240999      25.88259       100.15967    
-807642.66      3.5906268      33.234432      25.901149      99.741513    
-807620.8       4.4878408      34.427603      25.919585      99.323343    
-807608.52      3.4042289      36.399129      25.898825      98.905727    
-807609.26      3.3568671      36.135735      25.909839      98.488201    
-807618.31      3.8969005      34.968563      25.836801      98.071961    
-807630.64      3.3372928      34.143234      25.905526      97.654978    
-807645.04      3.4856134      34.413889      25.897406      97.238348    
-807653.74      2.8859656      33.867271      25.827023      96.822933    
-807648.57      3.7206454      33.918377      25.828575      96.407713    
-807634.47      2.6946953      33.790337      25.843721      95.9925      
-807623.68      3.6125726      33.649607      25.915349      95.576532    
-807613.47      3.4159774      36.319487      25.880877      95.161256    
-807606.81      3.4921314      36.833304      25.868196      94.746368    
-807616.97      3.5219821      35.246529      25.889315      94.331414    
-807634.88      3.2934709      33.943833      25.881607      93.916778    
-807648.94      3.3175024      34.516117      25.833384      93.502982    
-807648.31      2.8085489      34.902057      25.832535      93.089396    
-807645.02      4.6009914      34.56497       25.884948      92.675334    
-807635.58      3.0662221      33.749777      25.892821      92.261377    
-807625.22      2.9384159      34.390181      25.913581      91.847364    
-807609.45      3.1580049      35.70524       25.872609      91.43407     
-807607.04      2.9873167      35.843512      25.849003      91.021266    
-807623.45      2.7196874      33.841537      25.850995      90.608626    
-807641.42      2.8992179      32.889736      25.896807      90.195614    
-807646.31      3.5368047      34.516971      25.878552      89.783018    
-807647.6       4.2994574      34.820196      25.866846      89.370751    
-807647.96      2.6606808      33.095918      25.908578      88.958173    
-807638.59      3.392704       32.778018      25.926311      88.545576    
-807618.62      2.9930979      34.173642      25.925987      88.133174    
-807605.36      3.3660846      35.839861      25.919032      87.721043    
-807613.96      3.0379724      34.967347      25.926611      87.309012    
-807624.9       2.7485589      34.405291      25.88733       86.897615    
-807640.11      2.9642231      33.063039      25.89876       86.486266    
-807646.62      3.2942942      34.390615      25.926236      86.074784    
-807654.13      2.6729786      33.330479      25.921842      85.663532    
-807646.6       3.6494602      33.848677      25.917169      85.25251     
-807633.83      2.9151572      32.611328      25.926555      84.841559    
-807615.32      3.0673133      34.132123      25.934444      84.430697    
-807611.81      3.0316645      35.411762      25.882735      84.020568    
-807615.18      3.5042264      35.230399      25.89188       83.610503    
-807625.82      3.616795       32.975024      25.84597       83.201091    
-807640.6       2.893438       32.800326      25.893673      82.791329    
-807651.55      2.5545815      33.742714      25.8972        82.38169     
-807652.25      3.4638559      33.415669      25.883376      81.972354    
-807640.78      3.6043045      33.94084       25.877987      81.563229    
-807630.1       3.0476464      33.319827      25.902194      81.15401     
-807619.21      2.481276       34.74117       25.909797      80.744869    
-807611.32      3.0673696      34.7623        25.8459        80.336525    
-807615.28      2.8084146      33.391991      25.879193      79.927992    
-807628.69      2.9178672      33.027442      25.853908      79.519855    
-807645.8       2.7417965      32.77205       25.84848       79.111914    
-807650.55      2.8444338      33.049324      25.874573      78.703857    
-807647.93      2.8785207      33.393263      25.875592      78.295933    
-807642.31      3.2607461      32.931813      25.926278      77.887667    
-807630.62      3.0078495      33.492012      25.943025      77.47939     
-807619.34      3.0096769      34.304753      25.893912      77.071721    
-807607.62      3.9941516      35.169527      25.907574      76.664066    
-807616.19      3.2704544      34.075909      25.930955      76.256334    
-807632.28      3.1199951      32.928413      25.850258      75.849484    
-807645.16      2.9634178      32.787039      25.877248      75.442517    
-807646.8       4.1802226      33.849293      25.909515      75.035391    
-807648.78      3.169706       33.297013      25.921664      74.628293    
-807643.17      2.6159701      32.361727      25.918572      74.221358    
-807630.05      3.1358723      33.457168      25.882075      73.814876    
-807611.4       2.7783539      35.464742      25.869846      73.408628    
-807608.05      2.9367828      36.438085      25.851061      73.002666    
-807619.52      2.8281517      34.571574      25.798595      72.597275    
-807633.21      2.8676363      33.405592      25.889497      72.191223    
-807640.39      3.1745225      33.829638      25.872113      71.785441    
-807649.1       2.7766171      33.596381      25.817583      71.380234    
-807649.23      2.8547881      33.180936      25.883525      70.974593    
-807640.35      2.8709486      32.666417      25.884971      70.56906     
-807622.25      4.4133743      33.795767      25.907987      70.163458    
-807614.04      3.4626351      34.995297      25.916344      69.75791     
-807610.41      3.0746919      36.510495      25.894657      69.352655    
-807619.68      3.2123756      34.952628      25.887732      68.947572    
-807630.92      3.0348588      33.328063      25.891323      68.542575    
-807644.68      3.3800106      33.315178      25.918699      68.137481    
-807650.23      3.1492965      34.158312      25.898437      67.732658    
-807647.21      3.8173531      34.494196      25.887054      67.328036    
-807634.16      3.063539       33.992633      25.855906      66.923759    
-807623.6       3.5314204      34.504961      25.897561      66.519275    
-807615.96      3.2253143      35.244392      25.933542      66.114635    
-807609.95      3.252233       36.225353      25.886586      65.710454    
-807617.5       3.0849288      34.660196      25.889703      65.306356    
-807634.29      3.607744       34.005961      25.806895      64.902963    
-807647.64      2.595412       34.142824      25.807332      64.499661    
-807647.61      3.4321998      35.268183      25.840983      64.096213    
-807644.23      3.8024911      34.593647      25.843063      63.692847    
-807636.62      3.1996104      33.484081      25.881836      63.289307    
-807626.85      3.3237139      34.777802      25.907063      62.885694    
-807611.57      3.0473437      35.250861      25.924086      62.482068    
-807611.87      3.3921778      35.104221      25.858512      62.078989    
-807622.22      2.5554067      33.126195      25.866949      61.675948    
-807639.66      2.7188831      32.346846      25.778831      61.27359     
-807642.97      3.3151164      34.09187       25.86386       60.870753    
-807649.07      3.4698851      32.729162      25.880212      60.467903    
-807645.72      3.1287859      33.33018       25.862536      60.065261    
-807639.84      3.198228       32.436498      25.925812      59.662306    
-807621.65      3.2184731      34.073511      25.927957      59.259436    
-807611.48      3.201125       35.743729      25.934917      58.856621    
-807614.92      2.9836006      35.711801      25.897901      58.454131    
-807627.15      3.3154496      33.990687      25.865069      58.051937    
-807636.1       3.8619489      33.645963      25.861658      57.649851    
-807643.88      3.3592526      33.884091      25.901949      57.247609    
-807649.1       3.7114234      34.043663      25.872645      56.845632    
-807645.48      2.8118938      33.919126      25.907812      56.443534    
-807634.05      2.8768866      33.241353      25.933057      56.041378    
-807621.36      2.8136001      33.91079       25.925478      55.639357    
-807614.72      3.0982481      36.228088      25.902741      55.237557    
-807617.01      3.1906925      34.783223      25.85738       54.836103    
-807625.1       3.1693774      34.228033      25.869027      54.434663    
-807637.89      3.05228        32.654799      25.875824      54.033268    
-807647.6       2.7564983      33.081294      25.920349      53.631709    
-807647.4       3.8135354      33.361901      25.914892      53.230266    
-807642.04      3.0812071      32.42291       25.932409      52.828813    
-807632.23      2.8617598      32.827357      25.936251      52.427425    
-807622.59      3.239641       34.155528      25.906565      52.026281    
-807614.89      3.1622231      35.200341      25.870836      51.625405    
-807616.02      3.3813966      35.022957      25.853174      51.224699    
-807626.18      3.8028493      33.955104      25.878981      50.823934    
-807640.31      2.8514309      33.432075      25.893765      50.423172    
-807646.24      2.9783198      33.410614      25.894149      50.022485    
-807645.1       3.2393322      34.442859      25.925431      49.62172     
-807639.94      2.9589037      33.359688      25.92783       49.221024    
-807632.29      2.8769         33.91125       25.924863      48.820422    
-807619.72      2.6556642      34.081395      25.921193      48.419916    
-807613.51      2.9609675      35.200039      25.91078       48.019537    
-807617.09      3.2800783      34.110328      25.875918      47.619399    
-807632.02      3.6295381      32.742045      25.85372       47.219435    
-807638.53      3.2788147      33.317429      25.927243      46.819202    
-807644.73      5.106661       34.196851      25.915005      46.419101    
-807644.28      3.4097322      34.692007      25.854093      46.019348    
-807639.94      4.1406957      34.518248      25.837913      45.619735    
-807627.59      3.4577863      34.267562      25.855723      45.220108    
-807614.63      4.219422       34.715411      25.81606       44.820722    
-807613.29      3.25627        35.72646       25.854154      44.421233    
-807619.08      3.1188688      35.500974      25.842292      44.021859    
-807631.89      2.9178429      32.945363      25.877396      43.622401    
-807637.8       2.7980851      33.584935      25.909856      43.222875    
-807646.96      3.1516963      33.448908      25.923328      42.823363    
-807644.18      3.1271296      34.604644      25.924037      42.423918    
-807637.98      2.9181988      33.583339      25.927356      42.02453     
-807624.16      2.9197615      34.166148      25.923113      41.625227    
-807616.28      2.6187786      34.881994      25.877447      41.226172    
-807614.17      3.0753875      35.01692       25.909237      40.827057    
-807620.99      3.1315632      35.100904      25.921109      40.427963    
-807630.37      3.4681142      33.923483      25.924239      40.028924    
-807642.65      3.1723308      34.177938      25.892206      39.63007     
-807646.32      3.3293576      34.674426      25.828666      39.231515    
-807643.02      2.8548085      34.259174      25.856404      38.832914    
-807634.86      2.9031738      33.563194      25.865578      38.43434     
-807627.15      3.3513185      33.695963      25.876919      38.035784    
-807618.3       3.0161931      34.438251      25.837419      37.637427    
-807614.49      3.1668135      34.635739      25.919466      37.238842    
-807622.73      2.8758871      33.512131      25.928366      36.840289    
-807635.02      2.6629689      33.727062      25.920766      36.441825    
-807643.68      2.8994394      32.549273      25.90807       36.043465    
-807644.67      3.2498279      33.722268      25.869602      35.645292    
-807643.84      2.9972569      33.225204      25.877896      35.247148    
-807638.06      3.4231671      33.042378      25.90514       34.848974    
-807627.03      3.1661616      32.834578      25.92033       34.450812    
-807615.74      3.4115243      34.589425      25.856563      34.052906    
-807617.47      3.6312502      34.911243      25.948637      33.654774    
-807625.74      3.1704498      33.57733       25.839592      33.257031    
-807637.08      3.1483691      33.228492      25.808135      32.859434    
-807642.89      2.8700724      33.727925      25.856675      32.461742    
-807644.6       4.2742769      34.553538      25.897962      32.063984    
-807643.46      3.1674158      33.209912      25.889524      31.666304    
-807634.93      3.8228723      33.902634      25.874188      31.268722    
-807621.07      3.3197187      34.738923      25.910161      30.871094    
-807617.87      2.6906352      34.59537       25.860103      30.473656    
-807617.8       3.1423219      34.881355      25.903097      30.076154    
-807628.31      2.3827402      33.285908      25.889851      29.678741    
-807636.46      3.2917879      33.340804      25.902324      29.281348    
-807645.02      2.9930763      33.03433       25.917257      28.88397     
-807645.07      3.1210068      32.873177      25.852651      28.486808    
-807642.41      3.4071477      33.075153      25.805535      28.089812    
-807631.1       3.5746964      33.483243      25.811927      27.692844    
-807623.38      3.1629688      33.915929      25.773549      27.296012    
-807616.27      3.6253033      35.151503      25.777692      26.899212    
-807619.59      3.1086505      34.971955      25.780807      26.502445    
-807627.31      2.8495567      33.546997      25.771846      26.10574     
-807636.38      2.9080079      34.265507      25.850308      25.708898    
-807643.34      3.0478075      33.904758      25.832175      25.312143    
-807643.84      3.1356205      33.886774      25.814398      24.91547     
-807640.44      2.9634581      33.443217      25.83568       24.518794    
-807630.54      3.6141068      33.785998      25.921264      24.121984    
-807621.07      3.0964472      34.656415      25.894557      23.725279    
-807616.59      2.8081576      35.296686      25.856288      23.328698    
-807619.95      3.5300866      35.028561      25.8458        22.932182    
-807626.6       3.0454426      34.457664      25.852585      22.535696    
-807636.79      4.0103557      35.290917      25.862438      22.139236    
-807642.94      3.2017441      34.27385       25.850658      21.742841    
-807642.29      3.654717       34.688665      25.841928      21.346505    
-807638.63      2.859031       34.175327      25.793114      20.950297    
-807630.64      3.1849623      33.419494      25.787191      20.554138    
-807619.13      2.63968        34.095709      25.802001      20.157991    
-807616.03      2.9392202      35.12262       25.794559      19.761895    
-807618.96      3.4632393      34.951876      25.844895      19.365753    
-807628.19      2.958976       34.626427      25.859094      18.96963     
-807636.55      3.7719297      34.92934       25.889725      18.573502    
-807642.9       2.8662389      34.691893      25.855816      18.177467    
-807641.21      3.3972202      35.480598      25.830171      17.781512    
-807637.96      3.5390333      33.767541      25.802898      17.385635    
-807627.5       3.5737313      34.769928      25.846542      16.989733    
-807616.94      3.232081       35.351385      25.885999      16.593815    
-807616.94      2.8008277      34.627507      25.868344      16.197964    
-807618.47      3.8925318      35.175287      25.900815      15.80211     
-807628.54      3.5655752      34.903058      25.870363      15.406338    
-807638.48      3.8301147      34.47168       25.904451      15.010563    
-807645.18      3.1595222      33.940356      25.877933      14.614862    
-807640.18      3.6844807      35.277913      25.844298      14.21924     
-807637.92      3.0905655      33.288399      25.869503      13.823627    
-807626.45      3.6065559      34.216106      25.901953      13.428018    
-807618.9       3.1333454      34.240038      25.846948      13.032507    
-807618.6       3.6197927      34.376429      25.800304      12.637082    
-807622.19      3.593345       34.364911      25.886074      12.241604    
-807633.21      3.4205576      33.471715      25.886547      11.846166    
-807641.01      3.8395152      33.227494      25.863078      11.450787    
-807642.79      3.394135       32.939496      25.813681      11.05549     
-807642.11      3.3506758      33.055679      25.806693      10.660232    
-807637.23      3.2526793      33.121125      25.786234      10.265023    
-807626.84      3.0037212      33.190669      25.827194      9.8698137    
-807620.02      3.2594364      34.335073      25.811894      9.4746493    
-807618.95      3.1225044      35.140399      25.874674      9.0794721    
-807627.77      3.6641006      33.879467      25.89806       8.6843153    
-807632.49      3.3844373      34.505336      25.915831      8.2891845    
-807641.17      3.0715782      33.986989      25.862345      7.8941255    
-807642.48      3.5192165      34.597574      25.873524      7.4990949    
-807640.69      3.011207       33.48024       25.812774      7.1041337    
-807634.54      3.5415018      33.401548      25.840259      6.7091893    
-807626.97      3.6934507      34.274801      25.839522      6.314278     
-807620.3       3.1055467      35.083123      25.870513      5.9193851    
-807622.69      2.6851079      33.973008      25.911277      5.524509     
-807625.5       3.2761608      33.395662      25.924511      5.1296644    
-807635.69      2.3019593      32.669107      25.871032      4.7348767    
-807641.08      2.4781682      32.901229      25.819947      4.34014      
-807641.78      4.1316944      33.867863      25.892927      3.9454113    
-807640.01      3.8949092      33.351643      25.840058      3.5507319    
-807633.88      3.5572566      33.737667      25.851087      3.156081     
-807627.77      3.126041       33.392655      25.869312      2.761458     
-807620.83      3.6352719      34.314403      25.929239      2.3668567    
-807621.97      3.1189625      34.649271      25.922662      1.9722926    
-807626.2       3.5617511      34.088626      25.881666      1.5777689    
-807636.78      3.3840623      32.782909      25.865386      1.1832794    
-807639.08      4.7842404      34.327338      25.83376       0.78882349   
-807643.3       3.6649315      33.282332      25.81619       0.3943976    
-807639.16      3.6688785      33.661364      25.76719       0            
Loop time of 197.192 on 32 procs for 5000 steps with 1080 atoms

Performance: 4.382 ns/day, 5.478 hours/ns, 25.356 timesteps/s, 27.384 katom-step/s
67.4% CPU use with 32 MPI tasks x 1 OpenMP threads

MPI task timing breakdown:
Section |  min time  |  avg time  |  max time  |%varavg| %total
---------------------------------------------------------------
Pair    | 101.78     | 145.65     | 193.31     | 311.0 | 73.86
Neigh   | 0          | 0          | 0          |   0.0 |  0.00
Comm    | 1.6003     | 49.256     | 93.125     | 534.9 | 24.98
Output  | 0.02602    | 0.026641   | 0.028462   |   0.3 |  0.01
Modify  | 1.9277     | 1.9397     | 1.9511     |   0.5 |  0.98
Other   |            | 0.3157     |            |       |  0.16

Nlocal:          33.75 ave          48 max          21 min
Histogram: 8 8 0 0 0 0 0 8 0 8
Nghost:        1106.25 ave        1119 max        1092 min
Histogram: 8 0 8 0 0 0 0 0 8 8
Neighs:              0 ave           0 max           0 min
Histogram: 32 0 0 0 0 0 0 0 0 0
FullNghs:       5494.5 ave        7896 max        3378 min
Histogram: 8 8 0 0 0 0 0 8 0 8

Total # of neighbors = 175824
Ave neighs/atom = 162.8
Neighbor list builds = 0
Dangerous builds = 0

reset_timestep 0


variable interval equal 1000
thermo 10

variable nintervals equal $(v_PERIOD/v_interval)
variable nintervals equal 100
variable efield equal 1e-2*36.36*cos((step/${PERIOD})*2*3.14)
variable efield equal 1e-2*36.36*cos((step/100000)*2*3.14)
fix born all addbornforce 0.0 0.0 v_efield

variable Px equal f_born[1]+c_polarization[1]
variable Py equal f_born[2]+c_polarization[2]
variable Pz equal (f_born[3]+c_polarization[3])/vol
variable pe equal pe

fix aveP all ave/time 1 $(v_interval/2) ${interval} v_efield v_Pz v_pe f_born file Pz.${MODEL}.${STRUCTURE}.${TEMP}.$L.${ITER}
fix aveP all ave/time 1 500 ${interval} v_efield v_Pz v_pe f_born file Pz.${MODEL}.${STRUCTURE}.${TEMP}.$L.${ITER}
fix aveP all ave/time 1 500 1000 v_efield v_Pz v_pe f_born file Pz.${MODEL}.${STRUCTURE}.${TEMP}.$L.${ITER}
fix aveP all ave/time 1 500 1000 v_efield v_Pz v_pe f_born file Pz.BaTiO3-E0.${STRUCTURE}.${TEMP}.$L.${ITER}
fix aveP all ave/time 1 500 1000 v_efield v_Pz v_pe f_born file Pz.BaTiO3-E0.BaTiO3-sc333.${TEMP}.$L.${ITER}
fix aveP all ave/time 1 500 1000 v_efield v_Pz v_pe f_born file Pz.BaTiO3-E0.BaTiO3-sc333.300.$L.${ITER}
fix aveP all ave/time 1 500 1000 v_efield v_Pz v_pe f_born file Pz.BaTiO3-E0.BaTiO3-sc333.300.2.${ITER}
fix aveP all ave/time 1 500 1000 v_efield v_Pz v_pe f_born file Pz.BaTiO3-E0.BaTiO3-sc333.300.2.5

thermo_style custom step time temp press pe f_born v_efield v_Pz spcpu cpuremain

# dump 4a all custom 1000 dump.hyst.${MODEL}.${STRUCTURE}.${TEMP}.$L.${ITER}.bin id type xu yu zu fx fy fz
# dump_modify 4a sort id

fix nvt all nvt temp ${TEMP} ${TEMP} $(100*dt)
fix nvt all nvt temp 300 ${TEMP} $(100*dt)
fix nvt all nvt temp 300 300 $(100*dt)
fix nvt all nvt temp 300 300 0.2000000000000000111

run $(v_PERIOD)
run 100000
WARNING: non-constant efield is experimental, strongly distrust scalar/vector output (src/fix_addbornforce.cpp:193)
Per MPI rank memory allocation (min/avg/max) = 3.516 | 3.516 | 3.516 Mbytes
   Step          Time           Temp          Press          PotEng         f_born        v_efield         v_Pz          S/CPU         CPULeft    
         0   0              305.87374      128596.33     -807639.17     -296.55466      0.3636         0.055773564    0              0            
        10   0.02           302.65001      130436.36     -807633.42     -302.10154      0.36359993     0.056816786    28.635531      3491.8346    
        20   0.04           307.25242      140480.72     -807624.25     -311.77758      0.36359971     0.058636613    28.687287      3488.3268    
        30   0.06           299.22898      140951.51     -807620.97     -314.06458      0.36359935     0.05906679     28.687793      3486.9058    
        40   0.08           294.73403      143352.24     -807619.97     -314.37838      0.36359885     0.05912589     28.659547      3486.8773    
        50   0.1            306.74968      134987.88     -807629.51     -306.63551      0.36359821     0.057669772    28.658245      3486.7542    
        60   0.12           301.32466      131598.14     -807634.13     -301.15559      0.36359742     0.056639271    28.691524      3485.8801    
        70   0.14           294.66009      125013.73     -807641.23     -293.1844       0.36359649     0.055140246    28.62719       3486.275     
        80   0.16           286.44645      125967.28     -807639.98     -293.22162      0.36359541     0.05514741     28.621176      3486.5756    
        90   0.18           305.86839      126360.65     -807640.23     -295.79241      0.36359419     0.055631094    28.67052       3486.0642    
       100   0.2            296.64891      134405.64     -807630.37     -304.3184       0.36359283     0.057234833    28.742202      3484.7162    
       110   0.22           312.76205      138307.4      -807626.27     -310.70141      0.36359132     0.058435563    28.712323      3483.8789    
       120   0.24           294.46475      142565.65     -807619.22     -315.21345      0.36358968     0.05928444     28.726286      3482.9823    
       130   0.26           305.14119      140368.3      -807623.18     -312.70852      0.36358788     0.05881361     28.665474      3482.7372    
       140   0.28           296.83175      136131.78     -807627.58     -307.11727      0.36358595     0.057762324    28.67895       3482.3605    
       150   0.3            298.85948      130520.39     -807635.55     -299.44754      0.36358387     0.056320132    28.694876      3481.8587    
       160   0.32           290.65176      126414.41     -807640.49     -293.36356      0.36358165     0.055176194    28.705502      3481.2955    
       170   0.34           276.16541      126352.64     -807638.99     -292.8685       0.36357928     0.05508344     28.701623      3480.7856    
       180   0.36           293.90537      128361.02     -807637.35     -297.04731      0.36357677     0.055869787    28.731486      3480.0923    
       190   0.38           305.09792      133635.6      -807631.03     -304.91837      0.36357412     0.057350624    28.691363      3479.6911    
       200   0.4            306.94727      139137.53     -807624.97     -311.26745      0.36357132     0.058545242    28.666622      3479.4455    
       210   0.42           295.60317      142775.23     -807619.86     -314.79286      0.36356838     0.059208803    28.678169      3479.1231    
       220   0.44           297.56661      140011.89     -807623.89     -311.10338      0.3635653      0.058515351    28.625994      3479.0867    
       230   0.46           313.38129      134977.48     -807631.27     -305.87111      0.36356207     0.057531726    28.598258      3479.17      
       240   0.48           295.93072      129735.49     -807636.39     -298.28923      0.3635587      0.056106159    28.589875      3479.2597    
       250   0.5            288.24102      126441.43     -807640.12     -293.44888      0.36355519     0.055196256    28.65528       3478.9962    
       260   0.52           286.53216      125654.13     -807641.28     -291.98085      0.36355153     0.054920681    28.662324      3478.6928    
       270   0.54           308.55864      128884.63     -807638.57     -297.74903      0.36354773     0.056006243    28.659955      3478.3967    
       280   0.56           300.10414      134479.41     -807629.17     -306.05203      0.36354379     0.05756865     28.675199      3478.0309    
       290   0.58           311.46422      140087.46     -807624.47     -312.26872      0.3635397      0.058738675    28.698281      3477.5699    
       300   0.6            296.47489      141598.09     -807621.16     -313.48561      0.36353547     0.058968262    28.727727      3476.9974    
       310   0.62           294.94234      140304.1      -807622.81     -311.63467      0.3635311      0.058620796    28.716371      3476.484     
       320   0.64           300.6343       134724.06     -807629.56     -305.6278       0.36352658     0.057491574    28.735291      3475.9093    
       330   0.66           296.80752      128477.3      -807636.29     -298.28976      0.36352192     0.056111936    28.678071      3475.558     
       340   0.68           284.26549      126296.24     -807639.28     -293.45258      0.36351712     0.055202733    28.661618      3475.2657    
       350   0.7            286.94642      126455.78     -807640.13     -292.99186      0.36351217     0.055116815    28.649243      3475.013     
       360   0.72           305.29855      130399.94     -807635.51     -300.10837      0.36350708     0.056456344    28.659037      3474.7218    
       370   0.74           297.78978      135449.52     -807628.44     -306.15718      0.36350185     0.057595074    28.687678      3474.3338    
       380   0.76           300.18878      141678.23     -807622.88     -311.97574      0.36349647     0.058690546    28.66676       3474.0145    
       390   0.78           297.61395      141194.96     -807621.61     -312.86722      0.36349095     0.058859148    28.596881      3473.9115    
       400   0.8            316.73848      139372.2      -807626.14     -310.93745      0.36348529     0.058497016    28.618647      3473.7299    
       410   0.82           308.86957      132689.76     -807632.47     -303.51113      0.36347948     0.057100805    28.675504      3473.3718    
       420   0.84           296.05763      130122.53     -807636.93     -297.09353      0.36347353     0.055894352    28.605994      3473.2152    
       430   0.86           294.92149      125145.46     -807641.55     -292.31197      0.36346744     0.054995685    28.63859       3472.9572    
       440   0.88           295.88878      127943.13     -807638.65     -295.25942      0.3634612      0.055551172    28.682368      3472.5746    
       450   0.9            303.23428      130375.06     -807634.77     -300.20888      0.36345482     0.056483373    28.648125      3472.2858    
       460   0.92           296.76097      137051.68     -807625.77     -308.23823      0.3634483      0.057995112    28.65867       3471.9665    
       470   0.94           307.19962      139972.97     -807623.47     -311.9253       0.36344163     0.058689911    28.691915      3471.5604    
       480   0.96           299.82059      142000.83     -807620.95     -313.3124       0.36343482     0.058952003    28.722195      3471.0804    
       490   0.98           319.06841      136996.92     -807627.75     -309.20439      0.36342786     0.058180165    28.732887      3470.5795    
       500   1              315.35232      133254.7      -807633.21     -303.10259      0.36342077     0.057033159    28.751603      3470.0396    
       510   1.02           287.09215      127785.05     -807636.54     -9467.1047      0.36341353     0.055669027    28.595379      3469.8781    
       520   1.04           294.72701      125784.57     -807640.62     -9367.4939      0.36340614     0.055084409    28.515803      3469.8958    
       530   1.06           297.88645      126907.78     -807638.42     -9452.7068      0.36339862     0.055586644    28.6006        3469.7046    
       540   1.08           308.52388      131973.22     -807633.41     -9660.4623      0.36339095     0.056809549    28.599549      3469.5098    
       550   1.1            302.97762      137846.59     -807625.97     -9872.1991      0.36338313     0.058055943    28.597293      3469.3145    
       560   1.12           300.92124      140841.41     -807622.1      -9986.8235      0.36337518     0.058731306    28.607937      3469.0906    
       570   1.14           306.31212      142343.9      -807622.14     -10009.313      0.36336707     0.058864876    28.627676      3468.8201    
       580   1.16           307.4277       137492.54     -807626.23     -9885.8039      0.36335883     0.058139837    28.648366      3468.5037    
       590   1.18           297.93527      133186.17     -807632.27     -9646.942       0.36335044     0.056736366    28.603417      3468.2786    
       600   1.2            297.36808      127021.14     -807639.29     -9420.154       0.36334191     0.055403862    28.595088      3468.0664    
       610   1.22           300.34029      126177.05     -807640.35     -9397.9746      0.36333324     0.055274735    28.601428      3467.8368    
       620   1.24           301.82261      127483.56     -807637.76     -9490.4342      0.36332442     0.055819896    28.566819      3467.6713    
       630   1.26           301.11277      133485.67     -807631.16     -9699.7953      0.36331546     0.057052703    28.55227       3467.5281    
       640   1.28           310.16267      137350.2      -807627.27     -9867.3422      0.36330636     0.058039642    28.530634      3467.4197    
       650   1.3            314.58411      140868.29     -807623.63     -10006.738      0.36329711     0.058861068    28.657436      3467.0668    
       660   1.32           293.76521      141127.83     -807620.8      -10007.828      0.36328772     0.058869       28.516616      3466.9734    
       670   1.34           305.00256      137142.93     -807627.87     -9833.0587      0.36327819     0.057842472    28.581788      3466.7537    
       680   1.36           293.6753       130621.62     -807634.86     -9562.9783      0.36326851     0.056255236    28.59932       3466.4988    
       690   1.38           305.55852      127150.97     -807640.77     -9428.2682      0.36325869     0.055464289    28.54037       3466.3452    
       700   1.4            285.7262       126511.96     -807638.89     -9403.3397      0.36324873     0.055319157    28.538043      3466.1901    
       710   1.42           302.78962      128693.07     -807638.19     -9506.6207      0.36323863     0.055928308    28.498164      3466.098     
       720   1.44           300.32902      133103.84     -807632.38     -9686.4167      0.36322838     0.056987672    28.586171      3465.8496    
       730   1.46           311.95145      138708.09     -807626.72     -9924.8629      0.36321798     0.058392183    28.538254      3465.6784    
       740   1.48           304.64898      141087.66     -807622.42     -10036.63       0.36320745     0.059051469    28.525387      3465.5237    
       750   1.5            297.59577      140018.07     -807623.66     -9967.147       0.36319677     0.058644384    28.499326      3465.406     
       760   1.52           300.03883      135008.26     -807631.06     -9747.3201      0.36318595     0.057352683    28.52973       3465.2335    
       770   1.54           290.26708      131138.29     -807634.65     -9594.3382      0.36317498     0.05645425     28.52911       3465.0572    
       780   1.56           294.21593      125967.92     -807639.86     -9451.4045      0.36316387     0.055614912    28.543527      3464.854     
       790   1.58           287.04531      126635.96     -807640.08     -9415.0356      0.36315262     0.055402623    28.625604      3464.5209    
       800   1.6            292.01687      128712.63     -807638.06     -9507.1557      0.36314122     0.055946457    28.599909      3464.2264    
       810   1.62           293.41864      135695.98     -807629.56     -9788.485       0.36312968     0.057603817    28.618601      3463.9025    
       820   1.64           303.03898      137460.19     -807626.51     -9936.1229      0.363118       0.058474526    28.629731      3463.5615    
       830   1.66           295.00719      141130.98     -807622.87     -10016.12       0.36310618     0.058947231    28.650005      3463.1909    
       840   1.68           293.51846      137486.52     -807626.96     -9883.294       0.36309421     0.058167437    28.649168      3462.8218    
       850   1.7            301.56764      135128.91     -807632.14     -9752.5664      0.3630821      0.057399964    28.635652      3462.4726    
       860   1.72           292.4716       127784.43     -807637.53     -9541.5009      0.36306984     0.056159607    28.608343      3462.1618    
       870   1.74           290.94811      126863.97     -807640.87     -9424.2118      0.36305745     0.055471158    28.577065      3461.8936    
       880   1.76           285.65728      125215.61     -807641.76     -9375.0177      0.3630449      0.055183506    28.595499      3461.5981    
       890   1.78           297.59757      130840.09     -807636.43     -9595.9422      0.36303222     0.056485892    28.535518      3461.3834    
       900   1.8            298.7818       134933.98     -807630.19     -9801.7491      0.36301939     0.0576994      28.588591      3461.094     
       910   1.82           298.30414      140718.84     -807624.75     -9968.3096      0.36300642     0.058681979    28.597789      3460.7909    
       920   1.84           293.85586      140241.07     -807624.33     -9960.1405      0.36299331     0.058636006    28.594209      3460.4916    
       930   1.86           298.78046      138151.37     -807627.34     -9880.8143      0.36298005     0.058171132    28.515803      3460.2937    
       940   1.88           295.96348      133175.45     -807631.39     -9733.9595      0.36296665     0.057308673    28.521705      3460.0848    
       950   1.9            293.28805      127269.43     -807638.18     -9496.2078      0.36295311     0.055910996    28.50865       3459.8898    
       960   1.92           294.8694       126074.68     -807641.59     -9383.304       0.36293942     0.055248334    28.515849      3459.6823    
       970   1.94           291.68788      126498.71     -807639.7      -9421.5424      0.36292559     0.055475593    28.532339      3459.4511    
       980   1.96           299.52839      132524.95     -807632.85     -9663.6144      0.36291162     0.056903143    28.514838      3459.2393    
       990   1.98           297.62375      135840.88     -807628.3      -9791.0444      0.3628975      0.057655743    28.60148       3458.9184    
      1000   2              310.34452      140108.5      -807624.62     -9950.236       0.36288325     0.058595465    28.539659      3458.672     
      1010   2.02           299.33819      139293.45     -807623.15     -310.66549      0.36286884     0.05854514     28.681644      3458.2534    
      1020   2.04           308.97206      138696.33     -807624.75     -310.01843      0.3628543      0.058425544    28.685172      3457.8321    
      1030   2.06           306.68441      131577.82     -807632.57     -301.64682      0.36283961     0.056850145    28.720081      3457.3715    
      1040   2.08           302.55461      129355.91     -807637.38     -296.00125      0.36282478     0.055788429    28.695181      3456.9418    
      1050   2.1            288.64875      126821.96     -807637.79     -293.55218      0.3628098      0.055329126    28.698005      3456.5104    
      1060   2.12           314.29718      128202.66     -807638.01     -296.77963      0.36279469     0.055939772    28.69042       3456.0892    
      1070   2.14           311.56718      131895.42     -807633.83     -300.461        0.36277943     0.056636052    28.663145      3455.6999    
      1080   2.16           306.23519      137157.61     -807627.5      -306.00736      0.36276402     0.057683975    28.693174      3455.278     
      1090   2.18           304.25667      140512.25     -807622.13     -311.06691      0.36274848     0.058640239    28.659633      3454.8945    
      1100   2.2            307.69757      140494.6      -807622.16     -311.47499      0.36273279     0.058719708    28.627436      3454.5468    
      1110   2.22           313.56831      136243.2      -807628.06     -306.33147      0.36271695     0.057752564    28.675825      3454.1466    
      1120   2.24           310.41742      131306.1      -807633.65     -300.28836      0.36270098     0.056615752    28.684218      3453.7384    
      1130   2.26           301.49859      127741.52     -807636.88     -295.83272      0.36268486     0.055778175    28.691978      3453.323     
      1140   2.28           300.00839      126750.75     -807638.55     -293.92874      0.3626686      0.055421671    28.672805      3452.9288    
      1150   2.3            299.33026      128767.88     -807636.76     -295.67802      0.36265219     0.055754028    28.663581      3452.5452    
      1160   2.32           317.8505       132287.25     -807633.66     -301.46329      0.36263564     0.056847512    28.674573      3452.1507    
      1170   2.34           303.48426      138159.72     -807624.42     -308.75465      0.36261895     0.058225137    28.668872      3451.7631    
      1180   2.36           316.09007      139766.74     -807624        -311.0425       0.36260212     0.058659305    28.694893      3451.3493    
      1190   2.38           302.05249      140434.91     -807622.77     -310.36297      0.36258514     0.058533893    28.691806      3450.9399    
      1200   2.4            305.89997      135629.17     -807628.55     -305.2994       0.36256802     0.057581633    28.690541      3450.5328    
      1210   2.42           308.53239      131508.48     -807633.55     -300.71378      0.36255076     0.056719452    28.746985      3450.0707    
      1220   2.44           299.67042      126981.16     -807638.58     -294.62219      0.36253335     0.055573148    28.697125      3449.6595    
      1230   2.46           290.47812      127740.09     -807638.47     -293.51526      0.3625158      0.055367035    28.661509      3449.2841    
      1240   2.48           295.69842      128574.93     -807637.08     -295.81557      0.36249811     0.055803674    28.685632      3448.8856    
      1250   2.5            308.85626      133707.99     -807632.19     -302.65235      0.36248028     0.057096198    28.529195      3448.639     
      1260   2.52           311.21637      137016.34     -807626.63     -308.70703      0.3624623      0.058241318    28.582775      3448.3394    
      1270   2.54           307.19307      140041.24     -807623.75     -311.20779      0.36244418     0.058716051    28.67319       3447.9531    
      1280   2.56           289.76347      139383.25     -807623.56     -309.17472      0.36242592     0.05833541     28.721705      3447.522     
      1290   2.58           310.30929      135955.02     -807629.94     -305.74234      0.36240751     0.057690715    28.676084      3447.1345    
      1300   2.6            294.64907      130519.18     -807633.92     -299.76971      0.36238896     0.05656663     28.741642      3446.6873    
      1310   2.62           291.51963      127584.01     -807638.97     -294.35141      0.36237027     0.05554706     28.689983      3446.2887    
      1320   2.64           293.31077      125911.03     -807641.02     -292.67793      0.36235143     0.055234129    28.68627       3445.8943    
      1330   2.66           295.68929      129703.05     -807636.11     -298.01352      0.36233245     0.056244006    28.742109      3445.4504    
      1340   2.68           295.19307      133631.4      -807631.3      -302.93602      0.36231333     0.057176045    28.710659      3445.0359    
      1350   2.7            304.64889      138006.29     -807627.11     -308.44569      0.36229407     0.058219035    28.749646      3444.5879    
      1360   2.72           303.62584      139139.01     -807625.4      -310.18387      0.36227466     0.058550252    28.735043      3444.1542    
      1370   2.74           281.62156      139902.19     -807622.3      -310.20103      0.36225511     0.05855665     28.719988      3443.7349    
      1380   2.76           302.3606       133999.39     -807631.53     -303.95146      0.36223542     0.057380038    28.707999      3443.327     
      1390   2.78           303.92558      129516.39     -807636.66     -298.98027      0.36221558     0.056444666    28.728851      3442.902     
      1400   2.8            296.11206      126428.96     -807640.49     -294.08997      0.3621956      0.055524488    28.694824      3442.5072    
      1410   2.82           288.4243       127219.81     -807638.98     -294.54819      0.36217548     0.05561409     28.631775      3442.1667    
      1420   2.84           292.1063       129810.92     -807636.1      -297.98376      0.36215522     0.056265913    28.641449      3441.8179    
      1430   2.86           295.07945      134462.28     -807630.79     -303.71391      0.36213481     0.057351123    28.621422      3441.4859    
      1440   2.88           300.80624      138580.31     -807626.63     -308.64689      0.36211426     0.058285939    28.674683      3441.1093    
      1450   2.9            295.11704      139557.9      -807624.65     -309.78078      0.36209357     0.05850341     28.687828      3440.7222    
      1460   2.92           283.30278      138393.36     -807624.3      -308.36512      0.36207273     0.058239407    28.712887      3440.3151    
      1470   2.94           304.13844      132601.58     -807632.34     -303.14484      0.36205176     0.057256795    28.702239      3439.9174    
      1480   2.96           297.99936      129913.93     -807635.86     -298.51016      0.36203064     0.056384705    28.676446      3439.5413    
      1490   2.98           296.51622      126228.48     -807640.08     -293.8498       0.36200937     0.055507683    28.674217      3439.1673    
      1500   3              289.82025      127860.24     -807636.91     -295.72769      0.36198796     0.055865717    28.715144      3438.7611    
      1510   3.02           308.57744      129245.49     -807637.04     -9533.6068      0.36196642     0.0562842      28.597527      3438.449     
      1520   3.04           298.99213      136166.17     -807628.12     -9759.1935      0.36194472     0.057619465    28.597595      3438.1364    
      1530   3.06           308.67043      137648.35     -807625.97     -9856.2508      0.36192289     0.058196013    28.581788      3437.8357    
      1540   3.08           296.70972      140405.04     -807621.45     -9931.8548      0.36190091     0.058645977    28.525382      3437.5786    
      1550   3.1            311.37632      137877.62     -807626.58     -9819.0503      0.36187879     0.057983429    28.644445      3437.2278    
      1560   3.12           296.11663      134264.97     -807628.62     -9674.2287      0.36185653     0.057131743    28.64032       3436.8802    
      1570   3.14           312.38083      129173.63     -807635.99     -9500.3383      0.36183412     0.056108298    28.620272      3436.5479    
      1580   3.16           294.09745      127582.98     -807636.27     -9401.9346      0.36181157     0.055530593    28.639724      3436.2005    
      1590   3.18           303.24161      127509.39     -807636.98     -9415.0294      0.36178888     0.055611422    28.632909      3435.8583    
      1600   3.2            299.86595      132038.27     -807631.7      -9564.4911      0.36176605     0.056497808    28.66874       3435.4892    
      1610   3.22           315.66619      135998.36     -807628.3      -9741.7875      0.36174307     0.05754876     28.656593      3435.1293    
      1620   3.24           321.51452      139382.89     -807624.88     -9874.6851      0.36171995     0.058337569    28.622154      3434.7951    
      1630   3.26           302.7476       141034.9      -807621.12     -9909.3822      0.36169669     0.058546318    28.569926      3434.4993    
      1640   3.28           309.60857      137422.62     -807625.99     -9784.9378      0.36167329     0.05781482     28.558432      3434.2112    
      1650   3.3            310.4387       132995.42     -807631.11     -9623.9624      0.36164974     0.05686739     28.59486       3433.8958    
      1660   3.32           307.79091      128282.35     -807635.43     -9475.8106      0.36162605     0.055995639    28.605171      3433.5725    
      1670   3.34           299.23003      128198.9      -807636.47     -9406.0126      0.36160222     0.055586843    28.58516       3433.2633    
      1680   3.36           303.00016      128123.15     -807636.7      -9420.6377      0.36157824     0.055676965    28.605228      3432.9393    
      1690   3.38           307.68233      132505.37     -807632.26     -9586.8426      0.36155413     0.056663033    28.602611      3432.6168    
      1700   3.4            308.89429      136492.72     -807627.3      -9757.6076      0.36152987     0.057676209    28.588722      3432.3038    
      1710   3.42           311.32538      140437.75     -807623.48     -9893.9683      0.36150546     0.058486171    28.504909      3432.0495    
      1720   3.44           298.62965      138851.39     -807622.65     -9871.2414      0.36148092     0.058355787    28.514168      3431.7876    
      1730   3.46           301.43714      137224.7      -807626.4      -9767.9894      0.36145623     0.057749337    28.546174      3431.5023    
      1740   3.48           311.76735      131616.79     -807633.44     -9596.7077      0.3614314      0.0567406      28.588043      3431.1873    
      1750   3.5            307.75571      129604.07     -807636.77     -9476.7795      0.36140643     0.056035396    28.614621      3430.8537    
      1760   3.52           299.06321      126249.66     -807639.93     -9344.4731      0.36138131     0.055256919    28.661326      3430.4881    
      1770   3.54           302.78093      129586.45     -807637.05     -9458.342       0.36135605     0.055934173    28.612825      3430.1555    
      1780   3.56           306.55892      131951.16     -807633.55     -9598.0267      0.36133065     0.056764222    28.57496       3429.8482    
      1790   3.58           301.93757      137447.98     -807626.63     -9804.8353      0.36130511     0.05799142     28.521194      3429.5767    
      1800   3.6            291.65295      138825.33     -807624.03     -9848.3435      0.36127942     0.058252893    28.537059      3429.2937    
      1810   3.62           296.04343      139360.39     -807625.09     -9837.1376      0.3612536      0.05819077     28.582307      3428.9798    
      1820   3.64           297.85188      135280.14     -807628.36     -9746.3091      0.36122763     0.057657627    28.533766      3428.6976    
      1830   3.66           307.8221       131168.88     -807633.88     -9614.441       0.36120151     0.056881628    28.582661      3428.3826    
      1840   3.68           286.26767      128035.2      -807637.02     -9421.0399      0.36117526     0.055741466    28.601571      3428.0548    
      1850   3.7            296.86484      127471.83     -807639.91     -9377.3969      0.36114886     0.055487299    28.604634      3427.7248    
      1860   3.72           294.0735       129714.97     -807636.01     -9491.8156      0.36112232     0.056168458    28.593655      3427.4017    
      1870   3.74           305.74019      132661.96     -807631.96     -9677.3493      0.36109564     0.057270598    28.624185      3427.0587    
      1880   3.76           302.17827      137762.95     -807627.67     -9798.8415      0.36106881     0.057993898    28.651272      3426.6984    
      1890   3.78           297.54587      137829.32     -807626.42     -9820.181       0.36104184     0.058124535    28.614655      3426.3614    
      1900   3.8            297.1639       138704.57     -807625.68     -9841.6012      0.36101474     0.058255693    28.53694       3426.0734    
      1910   3.82           295.60611      134089.5      -807629.73     -9707.5808      0.36098748     0.05746672     28.501448      3425.8071    
      1920   3.84           300.39747      131035.19     -807635.83     -9531.2543      0.36096009     0.056427189    28.530042      3425.5221    
      1930   3.86           284.01658      126758.39     -807638.8      -9364.1259      0.36093255     0.05544198     28.495645      3425.2578    
      1940   3.88           292.56524      128787.54     -807637.76     -9431.0084      0.36090487     0.055842252    28.550016      3424.9589    
      1950   3.9            298.55554      128298.31     -807636.64     -9496.3641      0.36087705     0.056233567    28.576346      3424.6432    
      1960   3.92           302.40554      134814.85     -807631.98     -9656.9065      0.36084909     0.057188664    28.518564      3424.3626    
      1970   3.94           305.93031      134870.62     -807629.94     -9738.9905      0.36082098     0.057679262    28.513594      3424.0844    
      1980   3.96           291.5631       141241.36     -807622.75     -9900.0339      0.36079273     0.058637634    28.590218      3423.7589    
      1990   3.98           300.31753      136486.24     -807627.38     -9792.141       0.36076434     0.058003152    28.58959       3423.4336    
      2000   4              307.80234      135560.24     -807630.64     -9713.8509      0.36073581     0.057543957    28.610127      3423.0956    
      2010   4.02           306.00359      128323.45     -807638.61     -295.24143      0.36070713     0.055971906    28.702918      3422.7025    
      2020   4.04           288.73089      130755.61     -807636.04     -295.1339       0.36067831     0.05595599     28.724333      3422.2973    
      2030   4.06           283.64495      126216.74     -807637.33     -293.19378      0.36064935     0.055592615    28.729906      3421.8893    
      2040   4.08           306.38008      132168.2      -807635.93     -297.40985      0.36062025     0.056396577    28.671869      3421.5157    
      2050   4.1            298.99769      132753.98     -807632.27     -299.98884      0.36059101     0.056890235    28.669119      3421.144     
      2060   4.12           297.21382      140047.3      -807624.05     -307.65067      0.36056162     0.058347987    28.670904      3420.7715    
      2070   4.14           298.42609      137406.64     -807625.48     -306.22908      0.36053209     0.058083131    28.622503      3420.4271    
      2080   4.16           311.75792      138273.56     -807627.1      -306.00802      0.36050242     0.058045979    28.657172      3420.0628    
      2090   4.18           309.13029      131999.82     -807632.75     -299.78138      0.36047261     0.056869564    28.622852      3419.7182    
      2100   4.2            307.20802      131010.02     -807634.2      -297.58805      0.36044265     0.056458175    28.72046       3419.3182    
      2110   4.22           304.24606      127042.14     -807637.99     -293.15761      0.36041256     0.05562228     28.687057      3418.9375    
      2120   4.24           299.86765      129262.07     -807636.7      -293.45257      0.36038232     0.055682915    28.72307       3418.537     
      2130   4.26           310.35906      131226.21     -807634.33     -296.96731      0.36035193     0.056354591    28.653657      3418.1757    
      2140   4.28           311.07293      134829.04     -807628.99     -302.14232      0.36032141     0.057341495    28.692467      3417.7929    
      2150   4.3            304.67014      138692.17     -807623.91     -306.07275      0.36029075     0.058092368    28.66249       3417.427     
      2160   4.32           322.60471      137845.82     -807627.19     -305.10589      0.36025994     0.05791381     28.617045      3417.0864    
      2170   4.34           308.74253      138638.99     -807624.11     -305.94565      0.36022899     0.058078199    28.676956      3416.7128    
      2180   4.36           310.60491      132498.88     -807629.89     -300.43272      0.36019789     0.057036594    28.651306      3416.3534    
      2190   4.38           311.69618      131755.63     -807633.19     -297.02904      0.36016666     0.056395302    28.647058      3415.9964    
      2200   4.4            308.75072      127273.06     -807637.77     -292.05875      0.36013528     0.05545645     28.663253      3415.6307    
      2210   4.42           301.78708      131152.4      -807634.41     -294.3371       0.36010377     0.055893958    28.601902      3415.2983    
      2220   4.44           308.02597      130024.04     -807633.48     -296.27068      0.36007211     0.056266087    28.619345      3414.9564    
      2230   4.46           299.23542      137284.73     -807626.62     -301.81615      0.3600403      0.057324316    28.678438      3414.5828    
      2240   4.48           314.09436      135761.56     -807628.32     -302.34874      0.36000836     0.057430566    28.668625      3414.2147    
      2250   4.5            314.84404      139730.9      -807624.03     -306.67879      0.35997627     0.058258243    28.709605      3413.8251    
      2260   4.52           307.99852      135076.1      -807626.74     -303.24632      0.35994404     0.057611352    28.718248      3413.4313    
      2270   4.54           316.72616      135570.06     -807630.38     -300.80087      0.35991167     0.0571519      28.709709      3413.0424    
      2280   4.56           305.4312       129232.46     -807635.35     -294.44783      0.35987916     0.055949882    28.670651      3412.6742    
      2290   4.58           319.5289       129788.18     -807637.08     -294.73463      0.35984651     0.056009461    28.70099       3412.2904    
      2300   4.6            306.68367      127806.05     -807636.52     -293.74144      0.35981371     0.055825809    28.745104      3411.8842    
      2310   4.62           301.45789      132641.31     -807632.33     -297.2398       0.35978077     0.056495847    28.689845      3411.5068    
      2320   4.64           303.36233      133486.6      -807629.71     -300.28728      0.35974769     0.057080325    28.726355      3411.1111    
      2330   4.66           307.59079      137786.66     -807626.04     -304.58448      0.35971447     0.057902509    28.730684      3410.7135    
      2340   4.68           315.99827      137406.5      -807626.86     -305.0764       0.35968111     0.058001403    28.718767      3410.3224    
      2350   4.7            313.83741      136265.51     -807628.47     -303.17011      0.3596476      0.057644348    28.705144      3409.9386    
      2360   4.72           310.22188      132773.68     -807632.24     -299.04483      0.35961396     0.056865292    28.681839      3409.5667    
      2370   4.74           306.83172      130137.41     -807635.34     -295.56381      0.35958017     0.056208636    28.659123      3409.2065    
      2380   4.76           289.37898      129173.1      -807635.21     -293.39586      0.35954624     0.055801613    28.692392      3408.8297    
      2390   4.78           305.22352      128264.72     -807637.34     -293.50964      0.35951216     0.055828543    28.613917      3408.4922    
      2400   4.8            294.51543      132937.84     -807632.2      -297.29337      0.35947795     0.05655363     28.659077      3408.1322    
      2410   4.82           303.52063      134722.7      -807629.42     -301.40133      0.35944359     0.05734056     28.702964      3407.7507    
      2420   4.84           304.47892      137417.37     -807626.28     -304.74378      0.35940909     0.057982016    28.687718      3407.377     
      2430   4.86           306.04801      135965.03     -807627.95     -303.40579      0.35937446     0.057733007    28.662702      3407.0156    
      2440   4.88           305.72491      136548.8      -807628.65     -302.74645      0.35933967     0.057613122    28.550249      3406.7093    
      2450   4.9            303.63526      131246.14     -807633.16     -298.07716      0.35930475     0.056730063    28.602913      3406.377     
      2460   4.92           296.17776      131229.79     -807634.03     -296.11259      0.35926969     0.056361665    28.664539      3406.0147    
      2470   4.94           293.45873      127573.17     -807638.25     -291.70509      0.35923448     0.055528189    28.614454      3405.6767    
      2480   4.96           299.36923      130454.56     -807634.99     -295.75392      0.35919913     0.056304454    28.710952      3405.2924    
      2490   4.98           296.53199      130577.1      -807632.73     -297.76702      0.35916364     0.056693301    28.745006      3404.8922    
      2500   5              304.84735      136474.16     -807629        -302.64164      0.35912801     0.05762712     28.709818      3404.509     
[...]
     98740   197.48         297.58265      133180.9      -807630.94     -9656.9104      0.36236891     0.05694883     30.809797      44.827492    
     98750   197.5          307.16819      133131.56     -807632.43     -9655.5887      0.36238762     0.056938097    30.811236      44.471324    
     98760   197.52         305.27283      133729.02     -807631.15     -9691.8483      0.36240618     0.05714899     30.803182      44.115162    
     98770   197.54         302.5163       133896.41     -807630.54     -9703.5522      0.36242459     0.057215096    30.764174      43.759012    
     98780   197.56         296.55631      134269.65     -807629.54     -9711.7326      0.36244287     0.057260442    30.802573      43.402864    
     98790   197.58         292.79844      134150.51     -807629.83     -9690.2688      0.362461       0.057131034    30.775362      43.046725    
     98800   197.6          301.55023      134049.45     -807630.95     -9696.945       0.36247899     0.057167558    30.837753      42.690584    
     98810   197.62         304.92536      132286.02     -807632.64     -9662.2619      0.36249683     0.056960282    30.858023      42.334448    
     98820   197.64         296.27884      133508.12     -807631.23     -9670.2714      0.36251453     0.057004715    30.813451      41.978323    
     98830   197.66         299.65839      132265.14     -807632.88     -9638.4633      0.36253209     0.056814459    30.828843      41.622204    
     98840   197.68         307.45349      133528.18     -807633.05     -9672.0375      0.36254951     0.057009626    30.803427      41.266093    
     98850   197.7          300.01405      133559.08     -807631.78     -9683.9674      0.36256678     0.057077225    30.80193       40.909989    
     98860   197.72         294.8168       134565.98     -807630.13     -9717.8682      0.36258391     0.057274329    30.797941      40.553892    
     98870   197.74         294.29036      133829.5      -807631.39     -9679.8904      0.3626009      0.057047826    30.824635      40.197798    
     98880   197.76         288.80691      134543.71     -807629.97     -9702.4521      0.36261774     0.057178136    30.804647      39.841713    
     98890   197.78         301.96214      133594.93     -807631.51     -9716.3875      0.36263445     0.057257622    30.836797      39.485631    
     98900   197.8          306.31424      133406.71     -807633.37     -9679.4369      0.362651       0.057037272    30.830549      39.129556    
     98910   197.82         295.67562      133373.74     -807631.79     -9683.4686      0.36266742     0.057058447    30.844403      38.773485    
     98920   197.84         290.08508      132169.67     -807632.08     -9653.8786      0.36268369     0.05688154     30.840975      38.417421    
     98930   197.86         292.23617      133235.1      -807631.3      -9691.1981      0.36269982     0.057098891    30.783672      38.061371    
     98940   197.88         294.73225      132270.23     -807632.52     -9666.1909      0.36271581     0.056949042    30.815984      37.705322    
     98950   197.9          290.78096      134775.77     -807630.51     -9714.2264      0.36273165     0.057229547    30.854845      37.349276    
     98960   197.92         295.32507      133484.27     -807632        -9689.9346      0.36274735     0.057083966    30.761451      36.993247    
     98970   197.94         298.45583      134530.98     -807630.91     -9739.7171      0.36276291     0.057374777    30.759719      36.637224    
     98980   197.96         295.60751      133081.71     -807632.06     -9694.3865      0.36277832     0.057105317    30.753099      36.281209    
     98990   197.98         292.8873       133764.1      -807631.24     -9707.6221      0.36279359     0.057180875    30.792232      35.925195    
     99000   198            288.79049      131323.74     -807632.53     -9652.861       0.36280872     0.056855944    30.710772      35.569196    
     99010   198.02         285.5656       133832.37     -807630.75     -302.99779      0.3628237      0.05710726     30.806834      35.213193    
     99020   198.04         287.96212      132485.24     -807631.71     -302.45068      0.36283855     0.057001813    30.811097      34.857196    
     99030   198.06         306.03608      133281.32     -807634.17     -302.50752      0.36285324     0.057010215    30.849726      34.501202    
     99040   198.08         294.95874      132479.1      -807632.49     -302.71775      0.3628678      0.057047547    30.858356      34.145213    
     99050   198.1          292.12542      133997.44     -807630.54     -304.22985      0.36288221     0.057330227    30.837833      33.789232    
     99060   198.12         299.73808      133097.62     -807632.45     -303.3941       0.36289648     0.057170488    30.898304      33.433252    
     99070   198.14         294.09143      134420.99     -807631.45     -303.54137      0.36291061     0.057196011    30.927403      33.077276    
     99080   198.16         294.84868      133316.53     -807632.33     -302.78647      0.36292459     0.057051569    30.851015      32.721313    
     99090   198.18         288.33282      133915.92     -807631.17     -302.94358      0.36293843     0.057078996    30.844615      32.365358    
     99100   198.2          299.01131      132277.79     -807633.44     -302.06692      0.36295213     0.056911671    30.835515      32.00941     
     99110   198.22         293.18118      132621.85     -807632.21     -302.28737      0.36296568     0.056951079    30.815287      31.65347     
     99120   198.24         305.10285      132459.68     -807633.93     -302.14138      0.36297909     0.056921472    30.818159      31.297536    
     99130   198.26         288.67971      134257.8      -807629.51     -304.08833      0.36299236     0.05728617     30.822671      30.941608    
     99140   198.28         300.09165      134153.36     -807630.62     -304.38942      0.36300548     0.057340818    30.911872      30.585679    
     99150   198.3          297.15798      133934.7      -807630.31     -304.04112      0.36301846     0.057273158    30.884694      30.229758    
     99160   198.32         296.44897      133467.38     -807630.56     -303.53852      0.3630313      0.05717646     30.888819      29.873844    
     99170   198.34         300.4237       133151.04     -807631.19     -303.26305      0.36304399     0.057122573    30.849041      29.517939    
     99180   198.36         292.91466      133281.67     -807629.95     -303.21214      0.36305655     0.057111009    30.869114      29.16204     
     99190   198.38         311.3583       132299.97     -807633.75     -301.77284      0.36306895     0.05683797     30.861562      28.806147    
     99200   198.4          303.38208      132679.91     -807631.89     -302.2951       0.36308122     0.056934411    30.841652      28.450262    
     99210   198.42         303.27823      132794.12     -807631.19     -302.8296       0.36309334     0.057033176    30.819579      28.094386    
     99220   198.44         312.11112      133650.28     -807631.92     -303.17703      0.36310532     0.057096726    30.824097      27.738515    
     99230   198.46         305.93686      133935.5      -807630.7      -303.395        0.36311715     0.057135913    30.88251       27.382646    
     99240   198.48         299.55819      134344.2      -807629.85     -303.23048      0.36312885     0.057103092    30.934265      27.02678     
     99250   198.5          302.91376      134046.41     -807629.97     -303.51359      0.3631404      0.057154588    30.943283      26.670919    
     99260   198.52         299.11495      134637.96     -807628.93     -303.93669      0.3631518      0.057232465    30.861056      26.315072    
     99270   198.54         297.91531      133739.31     -807629.25     -303.36183      0.36316306     0.057122445    30.8326        25.959232    
     99280   198.56         304.54333      134577.46     -807629.83     -303.542        0.36317418     0.05715462     30.809512      25.603402    
     99290   198.58         303.09621      132981.56     -807630.9      -302.25213      0.36318516     0.056910028    30.799796      25.247578    
     99300   198.6          308.10062      134836.22     -807630.05     -303.73596      0.36319599     0.057187707    30.81932       24.891758    
     99310   198.62         310.04435      132712.78     -807631.13     -302.98763      0.36320668     0.057045132    30.825716      24.535945    
     99320   198.64         309.96189      134650.11     -807630.64     -303.39215      0.36321723     0.057119635    30.843904      24.180137    
     99330   198.66         308.63203      132361.48     -807631.99     -302.00159      0.36322763     0.056856205    30.875271      23.824333    
     99340   198.68         304.47085      134538.35     -807629.1      -304.30404      0.36323789     0.057288056    30.886627      23.468534    
     99350   198.7          309.39466      132306.14     -807631.44     -302.84484      0.36324801     0.057011761    30.911392      23.112741    
     99360   198.72         295.36258      135374.35     -807628.56     -303.78795      0.36325798     0.057187736    30.908436      22.756954    
     99370   198.74         298.15685      133218.35     -807630.71     -302.20387      0.36326781     0.056887995    30.854798      22.401177    
     99380   198.76         304.67544      134945.23     -807629.47     -304.42839      0.3632775      0.057305218    30.793345      22.04541     
     99390   198.78         307.79704      132876.61     -807631.41     -303.18731      0.36328704     0.0570701      30.82484       21.689648    
     99400   198.8          313.36657      133289.92     -807632.39     -303.09155      0.36329644     0.057050598    30.901091      21.333887    
     99410   198.82         300.08187      133095.36     -807631.3      -302.52732      0.3633057      0.056942942    30.89533       20.978133    
     99420   198.84         308.82197      134307.56     -807631.03     -304.27108      0.36331481     0.057269724    30.916631      20.622384    
     99430   198.86         300.58832      133550.04     -807630.82     -303.65834      0.36332378     0.057152983    30.884901      20.266643    
     99440   198.88         296.97903      133563.75     -807631.38     -302.87698      0.36333261     0.057004536    30.82431       19.910913    
     99450   198.9          285.33782      134137.11     -807629.26     -303.61809      0.36334129     0.057142654    30.827581      19.555188    
     99460   198.92         296.13582      132992.46     -807631.56     -303.17169      0.36334983     0.057057297    30.852451      19.199469    
     99470   198.94         306.93204      133379.83     -807632.6      -303.84973      0.36335823     0.057183583    30.840835      18.843756    
     99480   198.96         299.06901      131842.9      -807633.73     -301.94596      0.36336648     0.056824009    30.808312      18.488052    
     99490   198.98         299.25949      133153.47     -807632.15     -303.66009      0.3633746      0.057145321    30.911245      18.132348    
     99500   199            297.87645      131931.38     -807632.62     -303.25745      0.36338256     0.057068297    30.920183      17.776651    
     99510   199.02         297.84967      134443.1      -807631.4      -9747.5805      0.36339039     0.057321947    30.825809      17.420964    
     99520   199.04         286.56661      132795.68     -807632.02     -9681.0444      0.36339807     0.056929469    30.750814      17.065288    
     99530   199.06         286.25504      134415.71     -807629.84     -9751.1017      0.3634056      0.057340253    30.748014      16.709618    
     99540   199.08         296.57094      132643.63     -807632.19     -9725.5037      0.363413       0.057188563    30.757083      16.353954    
     99550   199.1          286.82877      134840.86     -807629.66     -9761.7435      0.36342025     0.057400518    30.80806       15.998294    
     99560   199.12         305.46813      131357.79     -807635.22     -9669.2763      0.36342736     0.056855685    30.814273      15.642639    
     99570   199.14         293.56746      133649.67     -807631.93     -9719.7759      0.36343432     0.057151529    30.814996      15.286991    
     99580   199.16         287.14183      132810.82     -807631.14     -9718.7333      0.36344114     0.057144326    30.759647      14.931351    
     99590   199.18         291.19856      133675.32     -807631.58     -9720.843       0.36344782     0.057155681    30.798988      14.575716    
     99600   199.2          300.94909      132552.18     -807633.97     -9686.5015      0.36345435     0.056952739    30.84415       14.220085    
     99610   199.22         294.88733      133848.13     -807631.99     -9720.6349      0.36346074     0.057152425    30.865673      13.864459    
     99620   199.24         301.52425      133362.4      -807631.82     -9754.5891      0.36346699     0.057351072    30.880844      13.508839    
     99630   199.26         300.12059      133301.43     -807632.58     -9721.1263      0.3634731      0.057153372    30.88726       13.153226    
     99640   199.28         305.207        132591.99     -807634.16     -9690.3017      0.36347906     0.05697121     30.878007      12.797619    
     99650   199.3          294.57862      133130.85     -807632.06     -9708.9665      0.36348487     0.057080031    30.811879      12.442021    
     99660   199.32         290.23027      133670.43     -807630.51     -9736.4675      0.36349055     0.057240818    30.821755      12.086429    
     99670   199.34         291.03437      132924.87     -807631.02     -9721.2657      0.36349608     0.057150578    30.88163       11.730841    
     99680   199.36         302.07568      133294.89     -807633.72     -9679.778       0.36350147     0.056905831    30.893917      11.375258    
     99690   199.38         302.04493      132956.17     -807632.3      -9722.6156      0.36350671     0.057156842    30.892371      11.019683    
     99700   199.4          300.50237      133967.2      -807630.64     -9764.0656      0.36351181     0.057399711    30.844496      10.664115    
     99710   199.42         301.32443      133028.81     -807631.97     -9722.161       0.36351677     0.057152588    30.829168      10.308554    
     99720   199.44         300.38581      133423.23     -807632.02     -9711.6458      0.36352158     0.057090017    30.820461      9.9529997    
     99730   199.46         296.4642       133514.43     -807631.75     -9701.808       0.36352625     0.057031453    30.771222      9.5974529    
     99740   199.48         295.51382      133801.66     -807629.87     -9753.9575      0.36353078     0.057337297    30.789259      9.2419117    
     99750   199.5          299.17678      133154.29     -807631.95     -9700.185       0.36353516     0.057020515    30.77343       8.8863771    
     99760   199.52         297.39415      133753.04     -807631.35     -9706.8947      0.3635394      0.057059291    30.800148      8.530848     
     99770   199.54         306.61147      133272.17     -807632.46     -9710.8073      0.3635435      0.057081646    30.802215      8.175325     
     99780   199.56         298.58195      134586.28     -807628.79     -9786.5735      0.36354745     0.057526387    30.8656        7.8198067    
     99790   199.58         297.52055      134121.56     -807630.37     -9730.1577      0.36355126     0.05719417     30.841114      7.4642953    
     99800   199.6          307.0611       133366.02     -807632.72     -9694.0511      0.36355493     0.05698136     30.797816      7.108791     
     99810   199.62         307.34704      132601.73     -807631.97     -9717.1792      0.36355845     0.057116752    30.827874      6.7532924    
     99820   199.64         296.67575      133567.74     -807630.37     -9718.6606      0.36356183     0.057124929    30.842064      6.3977996    
     99830   199.66         304.87119      132587.25     -807633.22     -9661.7492      0.36356507     0.056789906    30.795305      6.042314     
     99840   199.68         304.66677      133274.55     -807632.54     -9679.2282      0.36356816     0.05689216     30.783838      5.6868348    
     99850   199.7          307.98157      133086.42     -807631.76     -9719.6717      0.36357111     0.057129414    30.787796      5.3313616    
     99860   199.72         301.40395      135274.47     -807628.83     -9781.5909      0.36357392     0.057492913    30.843652      4.9758937    
     99870   199.74         296.85278      133601.85     -807630.44     -9709.3258      0.36357658     0.057067745    30.897571      4.6204314    
     99880   199.76         307.93667      135045.24     -807630.69     -9746.5118      0.3635791      0.057285913    30.90486       4.2649753    
     99890   199.78         304.22459      132461.12     -807631.02     -9720.5156      0.36358148     0.057132745    30.875431      3.909526     
     99900   199.8          312.46491      134631.09     -807630.64     -9765.9865      0.36358371     0.057399649    30.803149      3.5540838    
     99910   199.82         307.05125      130927.87     -807633.66     -9647.3391      0.3635858      0.056701973    30.724163      3.1986484    
     99920   199.84         303.23601      134606.57     -807630.95     -9713.5584      0.36358775     0.057090869    30.756534      2.8432188    
     99930   199.86         303.99313      131985.91     -807631.62     -9699.5293      0.36358955     0.057008131    30.785314      2.487795     
     99940   199.88         299.87789      134896.42     -807629.25     -9754.5849      0.36359121     0.057331454    30.8142        2.1323772    
     99950   199.9          307.43293      132410.61     -807632.5      -9687.7969      0.36359273     0.056938678    30.835163      1.7769655    
     99960   199.92         302.53062      135093.61     -807629.4      -9764.5987      0.3635941      0.057389853    30.846828      1.4215599    
     99970   199.94         299.02004      133792.85     -807629.56     -9748.2863      0.36359533     0.057293786    30.872428      1.0661605    
     99980   199.96         304.49627      135692.18     -807629.73     -9767.7189      0.36359641     0.057407826    30.838118      0.71076742   
     99990   199.98         303.66385      132978.74     -807631.96     -9696.4953      0.36359736     0.056989076    30.825219      0.35538061   
    100000   200            299.52177      132658.47     -807631        -9713.304       0.36359816     0.05708774     30.818339      0            
Loop time of 3553.78 on 32 procs for 100000 steps with 1080 atoms

Performance: 4.862 ns/day, 4.936 hours/ns, 28.139 timesteps/s, 30.390 katom-step/s
62.9% CPU use with 32 MPI tasks x 1 OpenMP threads

MPI task timing breakdown:
Section |  min time  |  avg time  |  max time  |%varavg| %total
---------------------------------------------------------------
Pair    | 2538.1     | 2811.4     | 3167.5     | 287.8 | 79.11
Neigh   | 0.001236   | 0.0013331  | 0.0015339  |   0.2 |  0.00
Comm    | 313.75     | 669.79     | 943.19     | 589.6 | 18.85
Output  | 2.3322     | 2.339      | 2.3446     |   0.2 |  0.07
Modify  | 63.993     | 64.241     | 64.538     |   1.9 |  1.81
Other   |            | 6.035      |            |       |  0.17

Nlocal:          33.75 ave          40 max          27 min
Histogram: 1 2 2 6 2 5 10 1 2 1
Nghost:        1028.31 ave        1060 max        1010 min
Histogram: 2 5 5 7 5 4 3 0 0 1
Neighs:              0 ave           0 max           0 min
Histogram: 32 0 0 0 0 0 0 0 0 0
FullNghs:         5409 ave        6386 max        4319 min
Histogram: 1 2 2 3 5 5 6 5 2 1

Total # of neighbors = 173088
Ave neighs/atom = 160.26667
Neighbor list builds = 3
Dangerous builds = 0

Total wall time: 1:02:45
