
units		metal
atom_style	atomic

read_data ${STRUCTURE}.data
read_data BaTiO3-sc333.data
Reading data file ...
  orthogonal box = (0 0 0) to (11.898253 11.898253 12.912076)
  2 by 4 by 4 MPI processor grid
  reading atoms ...
  135 atoms
  read_data CPU = 0.008 seconds
replicate $L $L $L
replicate 2 $L $L
replicate 2 2 $L
replicate 2 2 2
Replication is creating a 2x2x2 = 8 times larger system...
  orthogonal box = (0 0 0) to (23.796507 23.796507 25.824152)
  2 by 4 by 4 MPI processor grid
  1080 atoms
  replicate CPU = 0.003 seconds

pair_style allegro
pair_coeff	* * ${MODEL}.pth Ba Ti O
pair_coeff	* * BaTiO3-E0.pth Ba Ti O
mass 1 137.3
mass 2 47.9
mass 3 15.9994

timestep 0.002
compute polarization all allegro polarization 3
compute allegro will evaluate the quantity polarization of length 3 (src/compute_allegro.cpp:53)
compute polarizability all allegro polarizability 9
compute allegro will evaluate the quantity polarizability of length 9 (src/compute_allegro.cpp:53)

thermo_style custom pe fmax fnorm spcpu cpuremain

variable efield equal 1e-2*36.36
fix born all addbornforce 0.0 0.0 ${efield}
fix born all addbornforce 0.0 0.0 0.3636

thermo 10
min_style fire
#minimize 0.0 1e-6 100 100
velocity all create ${TEMP} ${SEED} dist gaussian rot yes mom yes
velocity all create 280 ${SEED} dist gaussian rot yes mom yes
velocity all create 280 6354 dist gaussian rot yes mom yes
fix nvt all nvt temp ${TEMP} ${TEMP} $(100*dt)
fix nvt all nvt temp 280 ${TEMP} $(100*dt)
fix nvt all nvt temp 280 280 $(100*dt)
fix nvt all nvt temp 280 280 0.2000000000000000111
run 5000
Neighbor list info ...
  update: every = 1 steps, delay = 0 steps, check = yes
  max neighbors/atom: 2000, page size: 100000
  master list distance cutoff = 8
  ghost atom cutoff = 8
  binsize = 8, bins = 3 3 4
  1 neighbor lists, perpetual/occasional/extra = 1 0 0
  (1) pair allegro/kk, perpetual
      attributes: full, newton on, kokkos_device
      pair build: full/bin/kk/device
      stencil: full/bin/3d
      bin: kk/device
Per MPI rank memory allocation (min/avg/max) = 3.516 | 3.516 | 3.516 Mbytes
    PotEng          Fmax          Fnorm          S/CPU         CPULeft    
-807708.29      1.5959573      37.042542      0              0            
-807648.02      3.3489697      44.793356      2.3235893      2147.5405    
-807638.08      2.3146547      34.639852      26.007241      1167.361     
-807607.69      3.1781174      37.514357      25.980852      840.44283    
-807605.06      4.2405576      50.236837      25.954639      676.8395     
-807568.91      3.5584853      40.996922      25.934842      578.55251    
-807606.63      2.9520935      38.155899      25.999789      512.81999    
-807649.19      3.3007406      33.854688      26.007298      465.75056    
-807686.71      2.2393871      33.463717      25.952037      430.40264    
-807668.69      3.0070345      33.572885      25.97007       402.80961    
-807655.99      3.2603971      32.925948      26.004946      380.6329     
-807662.09      2.2969786      25.159405      25.999133      362.42217    
-807631.4       2.9869603      29.12927       25.9927        347.18636    
-807587.73      3.4567137      38.060623      25.982842      334.24079    
-807574.26      2.9971347      36.03737       26.005305      323.07807    
-807636.7       3.1710534      31.329589      25.984629      313.36233    
-807658.2       3.0147194      28.660241      25.981927      304.81417    
-807667.47      2.956816       32.734112      25.96424       297.23384    
-807651.35      4.4146698      42.65512       25.992917      290.4416     
-807682.67      3.0221279      34.721027      25.971931      284.33171    
-807643.45      3.6071128      37.54321       25.933315      278.80806    
-807618         2.8206142      37.784872      25.992105      273.75385    
-807565.63      4.0018891      43.576876      26.04108       269.10842    
-807610.12      3.9074992      47.383848      25.982601      264.85145    
-807618.04      3.9307106      36.878072      25.945185      260.92821    
-807647.03      2.7480784      33.550207      25.989963      257.27535    
-807647.13      4.4178526      43.391287      26.009826      253.86852    
-807686.62      2.3529502      36.271794      25.977166      250.69406    
-807664.19      3.346774       34.363916      25.917575      247.73375    
-807640.74      2.6448885      30.499242      25.993403      244.93273    
-807608.29      3.0560419      32.726852      26.023095      242.2859     
-807607.87      3.8329379      42.054088      25.979556      239.79479    
-807600.64      2.8655029      34.11076       25.906063      237.45128    
-807616.25      2.543953       30.876362      25.986421      235.20953    
-807648.62      2.959385       28.554867      25.992639      233.07574    
-807678.18      2.3840373      30.060709      25.984219      231.04355    
-807679.78      2.5996211      30.360977      25.952573      229.10893    
-807648.97      4.2376653      35.810268      25.993474      227.25047    
-807651.58      2.5919564      28.229419      25.98652       225.47083    
-807622.45      3.6307135      32.573798      25.979193      223.764      
-807604.69      3.7277157      41.380707      25.960512      222.12645    
-807575.7       3.9184922      39.535261      26.017435      220.54056    
-807632.56      2.7541907      32.939495      25.987959      219.01664    
-807655.78      3.8883535      33.482519      25.986006      217.546      
-807677.32      2.8400092      33.397509      25.997622      216.12294    
-807645.92      4.3555519      44.810237      25.982639      214.74828    
-807672.22      2.6454097      32.949238      25.98263       213.41665    
-807644.89      3.1949         35.379548      25.978255      212.12593    
-807623.98      3.0226247      36.904974      25.965         210.8748     
-807567.93      3.4711885      41.778362      25.991841      209.65536    
-807609.44      3.8259202      41.406767      26.011039      208.46676    
-807630.09      3.2556921      33.587214      25.943271      207.31852    
-807659.97      2.6361874      31.254888      25.952911      206.19839    
-807647.97      4.3388649      40.280662      25.999406      205.10018    
-807678         2.9264518      32.694137      26.003387      204.02792    
-807668.27      3.1855299      31.077552      25.92191       202.99044    
-807642.85      3.7089121      28.570832      25.97685       201.96976    
-807603.11      2.847147       32.830493      26.017486      200.96672    
-807601.61      3.4885959      36.683705      25.998863      199.98711    
-807612.32      3.3458248      35.409328      25.950061      199.03308    
-807626.26      3.1940903      29.995313      25.996904      198.09291    
-807646.19      3.057162       30.426646      26.013109      197.16923    
-807669.12      3.2966181      32.045735      25.992879      196.26506    
-807678.45      2.5873553      33.686         25.95167       195.38161    
-807647.74      4.1705055      36.729759      25.986986      194.51017    
-807636.25      3.4513955      31.886885      26.016493      193.65078    
-807614.64      3.2582361      34.044643      26.023473      192.8051     
-807605.61      3.8703261      43.397242      25.935978      191.98158    
-807586.65      3.3262756      37.791739      25.988439      191.16599    
-807625.95      2.7073994      33.186662      25.994559      190.36232    
-807653.26      3.8531963      34.529765      25.999505      189.57018    
-807677.62      2.8365011      34.794872      25.954859      188.79351    
-807651.16      4.4777992      41.297966      25.946426      188.02846    
-807657.82      3.6571882      33.533803      25.984124      187.27054    
-807641.97      3.347962       33.336309      25.995455      186.52173    
-807623.49      3.5429197      37.665167      25.972076      185.7846     
-807575.5       3.5807555      39.140869      25.978249      185.05622    
-807601.48      2.9968435      37.874064      26.008223      184.33433    
-807634.32      3.4572412      31.479345      26.044414      183.61819    
-807665.2       2.5345389      31.300817      25.990501      182.91471    
-807653.7       4.1242662      36.630154      25.968463      182.22092    
-807664.78      3.0740093      33.549604      25.936218      181.53722    
-807666.84      2.5075769      30.449762      26.036945      180.85319    
-807643.41      3.0347627      30.013921      26.012821      180.17818    
-807601.21      2.9991304      34.454684      26.021288      179.50947    
-807589.99      3.0617234      36.570797      26.094904      178.84215    
-807614.89      3.3678592      36.399297      26.049745      178.18464    
-807636.78      2.9474716      29.598043      26.018782      177.53559    
-807647.9       3.471278       31.142584      26.059265      176.88976    
-807660.92      2.7803214      33.619489      26.05724       176.24996    
-807676.91      2.5931989      33.078541      26.00299       175.6195     
-807652.85      3.5063574      33.442712      26.001172      174.99456    
-807630.92      2.4637835      31.336424      26.042884      174.37211    
-807603.93      3.0487727      34.441334      26.050551      173.7543     
-807608.8       3.9991472      42.227285      26.014064      173.14379    
-807600.28      3.5821975      36.03974       26.000558      172.53889    
-807628.53      2.7621638      32.439614      26.039772      171.93614    
-807648.38      3.8635673      35.407806      26.048328      171.33738    
-807676.96      2.9342082      34.174113      25.948758      170.74905    
-807658.68      3.9683475      35.933361      25.979937      170.16294    
-807650.18      3.2111331      32.002577      26.08896       169.57442    
-807634.01      4.3703079      32.026872      26.085348      168.99018    
-807622.07      3.2761298      36.482122      26.068379      168.41085    
-807590.08      3.5408168      36.115845      26.095042      167.83381    
-807602.93      2.8926613      35.058351      26.082278      167.26121    
-807635.87      3.1099727      30.217624      26.070857      166.69285    
-807666.05      2.3060779      29.980646      26.011186      166.13124    
-807663.28      3.0135947      32.759213      25.978438      165.57472    
-807657.08      3.503986       33.498317      25.988642      165.02084    
-807661.2       2.3911715      28.619546      25.988312      164.47007    
-807641.33      2.564063       28.220265      26.0216        163.92058    
-807607.64      3.0334377      33.482734      26.0342        163.37341    
-807585.22      3.248862       36.587693      26.025616      162.82959    
-807618.31      3.8094406      33.697713      25.960271      162.29191    
-807641.66      3.2553376      30.809034      25.945965      161.75762    
-807655.32      3.5597129      32.036664      26.003084      161.22309    
-807654.43      4.2799549      36.761798      26.036505      160.68951    
-807672.19      2.6789776      32.492865      26.051513      160.15776    
-807652.98      3.4144782      32.756483      25.983911      159.63175    
-807631.43      2.7384567      30.993509      26.001833      159.10726    
-807596.03      3.5446888      34.983228      25.997334      158.58532    
-807605.82      3.4817526      39.652849      25.980371      158.06643    
-807614.56      3.1875935      32.700141      26.011328      157.54832    
-807636.45      2.447745       30.805549      26.05972       157.03019    
-807647.63      5.0167744      35.02622       26.063093      156.51408    
-807672.21      2.2678007      33.161773      25.99277       156.0032     
-807662.89      3.1690755      33.309118      25.972924      155.4952     
-807647         2.7310999      31.612523      26.012603      154.98741    
-807623.69      3.066095       32.448467      26.046641      154.48009    
-807615.49      3.2789015      36.105056      26.024779      153.97561    
-807598.84      3.0133412      37.16463       26.025481      153.47295    
-807609.27      2.4654492      33.381118      26.063561      152.97052    
-807635.72      2.990814       30.888653      26.031301      152.4712     
-807663.82      2.2446235      31.00462       26.033776      151.97353    
-807666.49      2.6994573      32.602728      25.945154      151.48113    
-807653.09      3.1317879      33.93773       25.972729      150.9892     
-807650.34      2.5615205      30.465378      25.986239      150.49832    
-807634.27      3.2054483      31.123093      25.910462      150.01197    
-807609.83      3.783967       35.734467      25.996916      149.5237     
-807587.2       3.1422719      37.14879       26.010158      149.03641    
-807617.87      2.8939696      33.208106      25.990994      148.55133    
-807644.9       2.6584241      30.35406       26.009932      148.06695    
-807662.24      2.6237249      30.939082      25.972527      147.58538    
-807652.94      4.0684003      35.688582      25.99315       147.10439    
-807664.7       2.7759271      31.508794      25.960895      146.62592    
-807651.01      3.3212133      31.479765      25.949532      146.14916    
-807631.08      2.5434255      32.20798       26.058632      145.66973    
-807592.43      3.0159862      36.172064      26.117359      145.18953    
-807601.97      3.2754327      38.458497      26.068742      144.71235    
-807619.27      3.0577695      33.681729      26.065667      144.23653    
-807645.93      2.5285182      30.760388      25.988777      143.76458    
-807648.41      4.033001       35.325865      26.080253      143.29067    
-807666.51      2.5663305      32.344102      26.042655      142.81922    
-807662.24      3.2025791      32.937269      26.038918      142.34904    
-807648.38      2.7351416      29.919794      25.977866      141.882      
-807617.23      3.2512911      31.936953      25.968085      141.41635    
-807605.82      3.7448102      35.546263      25.982976      140.95124    
-807605.2       3.460724       35.519927      26.005401      140.48643    
-807619.38      2.6373652      31.756758      26.016279      140.02229    
-807637         3.1860184      31.074916      25.969521      139.56063    
-807659.67      3.5398602      31.889101      26.045364      139.09755    
-807667.82      2.8495372      32.640663      25.99736       138.63695    
-807654.93      3.0015429      32.903198      26.016023      138.1767     
-807641.91      3.1148836      31.117067      25.961187      137.71907    
-807624.89      3.1205992      31.486515      26.078899      137.25876    
-807609.61      3.6248289      37.391269      25.9719        136.80259    
-807596.96      3.3806608      35.996157      26.005727      136.34626    
-807618.66      3.3498858      32.588472      26.048155      135.88955    
-807645.69      2.9222394      30.873732      26.041437      135.4339     
-807666.58      2.9852217      31.560473      26.037057      134.97922    
-807655.62      3.2673541      34.286679      26.056062      134.52483    
-807655.07      3.2237999      32.156071      26.040912      134.0717     
-807645.04      3.1751949      30.769886      26.012204      133.62018    
-807631.22      2.7625473      32.160867      26.01973       133.16922    
-807595.82      2.9005264      35.362719      26.022908      132.71894    
-807601.76      3.1683294      36.035255      26.029559      132.26924    
-807626.13      3.1473578      31.720319      26.056261      131.81955    
-807653.83      2.8055779      30.651781      26.04274       131.37097    
-807651.66      3.2521291      33.839068      26.062949      130.92258    
-807659.95      3.1317397      33.130541      26.038118      130.47557    
-807659.63      3.0287465      32.156823      25.95577       130.03142    
-807647.15      3.0432055      30.400322      25.958466      129.58786    
-807615.39      4.0020054      32.817943      26.013759      129.1435     
-807601.31      3.6619658      34.891294      26.057356      128.69869    
-807611.61      3.1004989      34.108686      25.993688      128.25615    
-807630.53      2.7793871      30.776862      26.007631      127.81389    
-807642.92      2.8242888      30.179602      26.048634      127.37122    
-807656.49      3.5341544      31.591125      26.066407      126.92875    
-807665.57      2.4056672      31.951464      26.07169       126.48678    
-807655.22      3.4895251      31.002702      26.038994      126.04621    
-807636.8       3.6867179      30.945132      26.017952      125.60675    
-807617.04      2.9400114      32.471161      26.026172      125.16766    
-807609.28      3.4393998      37.044745      26.018567      124.72933    
-807608.7       2.949803       35.091106      25.97714       124.29253    
-807624.85      2.743333       32.748361      26.0467        123.85465    
-807644.68      3.0478304      32.414022      26.076168      123.41664    
-807662.79      3.0866876      33.169414      25.982848      122.98132    
-807657.07      2.8349033      34.120227      25.946856      122.54734    
-807649.99      2.8816649      32.214708      26.0362        122.11183    
-807635.48      3.0901294      31.530488      26.022969      121.67713    
-807624.59      3.148391       33.463611      25.995297      121.24355    
-807601.16      3.1628803      35.86537       26.020737      120.8099     
-807607.21      3.2307215      35.455277      26.06348       120.3758     
-807628.4       2.9013207      31.966851      26.054744      119.9424     
-807654.18      2.861878       31.801671      26.033587      119.50993    
-807653.99      3.3217779      33.912736      26.038582      119.07782    
-807654.82      3.2133528      33.501442      26.059571      118.64574    
-807650.36      3.5449587      32.895754      26.017602      118.215      
-807640.83      2.9840783      31.140407      26.03531       117.78435    
-807613.72      3.0872872      34.087913      26.01427       117.35457    
-807599.46      3.2532789      36.407386      26.043976      116.92461    
-807612.33      3.7875682      35.786353      26.06683       116.49464    
-807636.4       2.9230128      31.973429      26.037791      116.06568    
-807648.85      2.895273       32.213737      26.061265      115.63667    
-807652.41      3.5107403      33.818067      26.06524       115.20802    
-807660.38      3.1462836      32.117146      25.990805      114.78123    
-807651.47      2.9515803      32.215965      25.990536      114.35484    
-807633.64      2.9916579      31.685654      26.076857      113.92718    
-807608.4       3.2891915      34.537993      26.107163      113.49934    
-807607.48      2.7210293      36.817041      26.07472       113.07252    
-807613.73      3.4835147      35.383512      26.060088      112.64638    
-807634.04      2.6745695      32.104461      26.072222      112.22039    
-807642.62      3.3838989      34.380657      26.10822       111.79412    
-807662.54      2.9718205      32.778132      25.992461      111.37035    
-807655.45      2.9946175      34.191373      25.937621      110.94794    
-807649.07      3.5571643      31.5341        25.991027      110.52489    
-807626.28      3.7553979      32.627782      26.050833      110.1011     
-807618.2       3.0999123      34.153105      26.026806      109.6781     
-807606.95      3.5634649      35.036183      26.018558      109.25557    
-807614.56      3.086173       33.965934      25.962411      108.83437    
-807631.12      2.5101072      30.798571      26.022724      108.41243    
-807654.28      3.601717       31.724954      26.029474      107.9907     
-807659.17      2.8063197      32.969592      25.969493      107.57032    
-807652.92      3.4001818      33.297831      25.981811      107.15004    
-807644.18      3.6025584      31.897804      26.027993      106.72928    
-807634.34      2.6467453      31.448973      26.000773      106.30928    
-807616.62      2.8494161      34.108376      26.056072      105.88867    
-807601.77      2.8322873      36.20326       26.027321      105.46884    
-807616.68      2.7800492      33.754246      26.024403      105.04936    
-807640.61      2.569814       30.752174      26.037318      104.62997    
-807654.52      3.1675432      31.675889      26.018175      104.21118    
-807652.53      2.9478327      33.770514      26.065259      103.79192    
-807655.55      2.9068145      32.570233      26.097627      103.37246    
-807646.51      2.8635557      32.046773      26.019186      102.95451    
-807632.15      2.8151528      32.082455      26.05941       102.53622    
-807605.59      2.7287691      35.094071      26.065221      102.11812    
-807608.95      3.5755517      35.855254      26.020236      101.70098    
-807621.55      3.1467379      33.22666       25.943932      101.28527    
-807640.02      2.4364744      32.114817      25.979412      100.86927    
-807648.96      3.1760188      32.600336      26.055228      100.45239    
-807658.31      2.7380195      32.088964      26.061701      100.03567    
-807656.14      2.8912492      31.515312      26.061141      99.619231    
-807646.45      2.5393059      30.365127      26.060966      99.203052    
-807622.84      2.4682277      31.083587      26.033014      98.787532    
-807613.58      2.8063402      33.851931      26.019867      98.372447    
-807610.66      2.9024885      34.853608      25.979124      97.958182    
-807623.48      2.8450451      32.608451      25.96817       97.544302    
-807637.3       2.7497095      30.816853      26.058926      97.129376    
-807653.7       4.012406       31.68603       26.021934      96.715205    
-807659.26      2.3139209      31.793629      26.011746      96.301405    
-807652.25      3.1216934      32.379218      26.016189      95.887769    
-807639.72      2.4054509      31.126245      26.056242      95.473817    
-807625.48      2.7025002      31.691732      26.027009      95.060487    
-807615.68      3.0993501      34.377394      26.003975      94.647684    
-807608.59      3.38352        34.345146      26.019413      94.234893    
-807622.25      2.9588977      32.687677      26.062816      93.821747    
-807641         2.8395994      31.794169      26.054298      93.408934    
-807655.4       2.3611564      31.653915      26.039984      92.996522    
-807653.39      3.3290281      32.948749      26.011822      92.584682    
-807649.25      2.4431188      32.503813      26.030336      92.172811    
-807639.13      3.3018817      32.168694      26.020629      91.761267    
-807628.13      2.6892972      32.594833      25.989673      91.350311    
-807607.98      3.4310882      34.695396      26.034046      90.938998    
-807610.44      2.9443922      34.841372      26.061175      90.527551    
-807624.15      4.7578737      33.26642       26.028892      90.1167      
-807646.47      3.2124258      31.671672      26.037635      89.705937    
-807648.49      4.5797652      33.698969      26.015825      89.295628    
-807651.8       3.212559       33.376246      26.01868       88.885473    
-807650.4       4.2676632      32.582236      26.013159      88.475569    
-807640.99      3.475133       31.896385      26.051658      88.065398    
-807618.78      3.3024635      33.894155      25.934308      87.656779    
-807607.55      3.314968       35.496595      26.048459      87.247007    
-807613.06      3.6539448      34.844698      26.073965      86.837129    
-807629.29      3.2047634      32.823818      26.058836      86.427607    
-807641.3       2.7204632      32.311126      26.047435      86.018394    
-807650.47      3.9449561      32.820959      26.023168      85.60963     
-807655.8       3.1267146      32.965438      26.035353      85.200902    
-807649.96      3.807795       32.440293      25.917165      84.793645    
-807636.24      2.9192013      31.275289      25.930589      84.38639     
-807616.33      3.0213835      33.243595      25.987352      83.97867     
-807613.85      3.3792395      34.898896      26.065611      83.570271    
-807613.85      3.2322775      34.837161      26.07255       83.161969    
-807628.28      2.6407441      33.01263       26.057195      82.753998    
-807640.52      3.6926155      32.883653      26.0528        82.346237    
-807656.63      2.7476736      32.616044      26.040183      81.93877     
-807654.26      3.5322748      33.348267      25.999744      81.531876    
-807648.23      2.833178       32.074517      26.002454      81.125105    
-807630.51      3.7665425      33.053665      26.064225      80.717861    
-807622.5       3.2252296      33.518022      26.073276      80.310685    
-807611.46      3.8348635      34.307578      26.079312      79.903607    
-807616.59      3.6300752      33.294937      26.095815      79.496526    
-807630.53      2.9517542      31.186706      26.061692      79.089934    
-807649.99      3.1171209      31.370628      26.025334      78.683846    
-807654.28      3.2511971      31.920877      26.019243      78.27796     
-807653.06      3.7856957      33.040454      25.957718      77.872804    
-807645.44      2.9323706      31.992568      26.032787      77.467067    
-807634.55      2.9225421      32.448433      26.060866      77.061209    
-807616.23      3.0097243      34.352709      26.021068      76.655865    
-807610.58      3.3598916      34.219209      26.068486      76.250222    
-807617.34      2.8879037      33.250916      26.063945      75.844762    
-807637.8       2.8251328      30.8441        26.051416      75.439556    
-807647.59      3.0408339      31.645976      25.99173       75.035024    
-807652.83      3.2364874      32.064857      25.992735      74.630609    
-807654.41      3.2352947      31.616071      25.990763      74.226337    
-807646.64      3.4428264      30.97377       26.096529      73.821266    
-807632.48      2.9627767      31.409857      26.076809      73.416504    
-807614.1       3.047419       33.368182      26.060843      73.012013    
-807613.06      2.8840354      33.924585      26.110825      72.60723     
-807622.05      3.1173415      32.887663      26.026877      72.203291    
-807636.57      2.597539       31.710484      26.0322        71.799431    
-807645.64      2.8085881      32.158796      26.058855      71.395473    
-807654.04      3.9339756      32.365429      26.058115      70.991647    
-807652.93      3.1245025      32.278541      26.030487      70.588171    
-807644.63      2.8106215      31.578613      26.063025      70.184551    
-807624.87      2.9631372      32.470372      26.096257      69.780789    
-807617.61      3.4717921      33.484044      26.060383      69.377438    
-807611.17      2.9172063      34.458131      26.019404      68.97453     
-807624.97      2.80441        32.059803      26.06116       68.57141     
-807633.41      3.2562916      32.344221      26.044952      68.168532    
-807651.51      2.6018702      30.929115      26.08289       67.765481    
-807653.15      2.513632       32.944645      26.085156      67.362531    
-807651.32      2.5662099      32.01607       26.064201      66.959856    
-807637.47      3.4248473      32.172567      26.032153      66.557536    
-807627.43      2.6047499      32.161702      26.027279      66.15536     
-807614.95      3.523393       33.814686      26.008987      65.753426    
-807612.44      2.933788       34.891876      26.031325      65.351434    
-807622.45      2.7866587      32.587926      26.039401      64.949491    
-807639.07      2.5038221      32.014251      26.083113      64.547341    
-807652.6       2.9250914      31.350934      26.06571       64.145426    
-807652.3       2.6938778      32.814819      26.070437      63.743586    
-807648.48      2.9586253      32.292919      26.050895      63.341988    
-807638.26      2.9851639      33.083445      26.055555      62.940462    
-807626.74      2.4697291      33.403854      26.037119      62.539166    
-807611.38      3.1922918      35.231184      26.032778      62.137999    
-807612.69      3.3542008      34.997004      26.078505      61.736626    
-807626.49      3.7819009      33.58522       26.024767      61.335713    
-807641.97      3.7489334      32.553023      26.066982      60.934619    
-807648.07      3.5875909      32.793759      26.057584      60.533686    
-807652.3       2.4803952      32.58014       26.056086      60.132862    
-807648.17      2.6940532      32.539213      26.028225      59.732313    
-807638.79      3.756939       32.822197      26.04239       59.331768    
-807622.61      2.6100395      32.585683      26.088179      58.931032    
-807612.37      2.954556       34.97186       26.061706      58.530558    
-807615.92      3.1780605      33.476602      26.031169      58.130366    
-807629.38      3.0130185      32.638628      26.061583      57.73008     
-807639.78      3.3239628      32.702734      26.046483      57.329979    
-807650.61      3.0685808      32.58367       26.013585      56.930165    
-807652.79      3.3932897      33.057311      25.969908      56.530695    
-807649.08      2.8765592      31.510937      25.949692      56.131426    
-807633.94      3.1865781      32.209523      26.039273      55.731713    
-807623.93      2.75962        32.905314      26.070978      55.331906    
-807614.49      2.8876273      34.109717      26.047246      54.932323    
-807618.61      2.3397374      32.982806      26.037682      54.53288     
-807629.78      3.3803597      31.812364      26.036186      54.133531    
-807643.64      3.5466454      31.340491      26.075959      53.734047    
-807652.4       3.0164207      31.556106      26.026186      53.334921    
-807652.54      3.6260976      32.510544      26.023348      52.935892    
-807645.95      3.2295256      32.087577      26.024005      52.536941    
-807634.36      3.0738449      32.00233       25.967962      52.138366    
-807623.91      2.9322346      32.895715      26.057243      51.739396    
-807614.3       3.0279493      34.246457      26.093062      51.340323    
-807620.73      2.9692738      32.593038      26.078775      50.941409    
-807631         2.5331293      31.871336      26.006407      50.542945    
-807647.29      3.4258158      31.525644      26.044071      50.144366    
-807650.26      3.8399978      33.056894      26.073442      49.74572     
-807651.92      2.8282474      32.199506      26.112715      49.346962    
-807644.69      3.0966216      31.887017      26.117526      48.948264    
-807635.12      2.9359262      31.756783      26.063234      48.549911    
-807620.12      2.9473062      33.507067      26.066284      48.151621    
-807614.25      2.979723       33.848577      26.027676      47.75359     
-807620.92      3.1889308      32.619779      26.0897        47.355344    
-807634.75      2.6911445      31.706104      26.05336       46.957343    
-807645.5       3.197977       31.138742      25.998573      46.559665    
-807650.85      2.7096317      32.103799      25.99298       46.162082    
-807651.57      3.6741096      31.421241      26.007404      45.764501    
-807644.96      3.4578304      31.615228      25.998947      45.367025    
-807631.2       3.0395147      31.258722      26.00647       44.969583    
-807617.23      2.8773483      33.474135      26.089045      44.571852    
-807614.69      3.2032981      33.955797      26.064107      44.174301    
-807622.97      2.7257704      33.396785      26.021561      43.777001    
-807634.59      2.7021877      32.481015      25.962529      43.380014    
-807643.97      3.8378013      33.335239      25.96026       42.983097    
-807652.62      3.345185       33.101547      25.988075      42.586126    
-807649.25      2.9370105      33.109439      26.025406      42.189067    
-807640.24      3.4468748      32.628511      26.002894      41.792162    
-807627.93      2.7057885      32.558052      26.057495      41.395105    
-807618.31      3.4408617      34.067477      26.056983      40.998118    
-807615.36      3.1181542      34.005081      26.051554      40.601218    
-807622.74      4.0603485      33.54664       26.026447      40.204478    
-807634.69      2.6651551      31.99723       26.06946       39.80764     
-807647.83      3.2835162      32.234334      26.041429      39.410973    
-807650.18      2.6774604      32.929101      26.005298      39.014499    
-807646.72      3.9306925      33.007972      26.028751      38.618001    
-807637.11      3.3037833      32.58831       26.002332      38.221658    
-807631.43      2.9244328      32.14501       25.99485       37.8254      
-807617.07      3.5029926      33.438669      25.985433      37.429231    
-807616.72      3.7411951      33.729371      25.940572      37.033272    
-807624.51      2.7584665      32.471426      26.013949      36.637116    
-807639.01      4.2558308      31.727621      26.087757      36.240773    
-807646.72      2.8576586      31.310659      25.99992       35.844781    
-807648.16      3.3396882      32.486959      26.016785      35.44879     
-807645.37      3.094061       31.805413      26.044555      35.052767    
-807641.65      3.9477133      31.168447      26.043295      34.656806    
-807627.79      3.3604503      32.308113      26.007825      34.261014    
-807617.47      3.4827959      33.427198      26.038436      33.865182    
-807618.31      2.6991891      33.541932      25.965246      33.469629    
-807627.71      3.182055       32.788659      26.036608      33.073913    
-807638.65      3.3613363      32.714662      26.049843      32.678214    
-807644.82      3.1807894      32.32214       26.035898      32.282612    
-807647.73      2.9730359      33.130613      26.029253      31.887084    
-807647.52      3.7146784      31.995441      25.984731      31.491735    
-807638.61      3.0446523      32.243584      25.998078      31.096399    
-807625.28      2.9500142      33.02597       25.984151      30.701151    
-807620.15      3.0611639      33.120028      25.965891      30.306002    
-807622.58      3.5234432      32.913085      26.027095      29.910739    
-807629.67      2.6552303      31.988547      26.05961       29.515442    
-807637.91      2.6421558      32.048773      26.061432      29.120195    
-807648.58      2.8541973      31.621381      26.068611      28.724984    
-807650.87      3.35948        31.917157      26.08041       28.329798    
-807643.61      2.3896425      32.062798      25.989612      27.934889    
-807637.42      3.0460071      31.316507      26.005185      27.53999     
-807628.93      2.607789       32.234102      25.969715      27.145222    
-807621.42      2.8871755      33.346352      25.93905       26.750571    
-807620.7       2.8548836      33.023124      26.028978      26.355756    
-807630.19      2.7011451      32.209405      26.019632      25.961011    
-807641.87      3.0803493      31.72385       25.963556      25.566438    
-807647.69      2.7683829      31.954175      26.009521      25.171809    
-807647.51      3.5600759      32.2106        26.011823      24.777221    
-807643.17      3.5762486      31.982716      25.965533      24.382776    
-807636.8       2.6814635      31.561183      25.986141      23.988331    
-807626.21      2.6707641      32.379235      25.967351      23.593968    
-807618.26      3.4421135      33.576455      26.026868      23.199529    
-807623.01      3.2169379      32.751044      26.024952      22.80514     
-807633.49      4.1313378      31.530769      26.060872      22.410729    
-807642         3.3448941      31.781261      26.085751      22.01632     
-807646.18      4.5734749      32.816788      26.059212      21.622009    
-807647.02      3.4283964      32.433071      26.023226      21.227809    
-807643.13      5.0376415      32.391401      26.027582      20.833646    
-807633.39      3.8436103      32.750829      25.95635       20.43965     
-807622.38      5.1262727      33.724044      25.929584      20.045738    
-807618.05      3.6427304      34.204686      25.921614      19.651876    
-807625.22      3.2622342      33.299743      25.96365       19.257982    
-807633.51      3.0723375      32.935639      25.95954       18.864133    
-807641.35      3.0152585      32.283942      25.988664      18.470278    
-807646.31      3.103449       32.801703      25.974422      18.076484    
-807647.94      2.6768179      32.158369      25.966475      17.68274     
-807641.08      3.4856528      32.25212       25.965415      17.289035    
-807630.61      2.8559473      32.390164      26.036764      16.895269    
-807622.94      3.0220465      32.771312      26.058481      16.501515    
-807620.34      2.7314215      33.520077      26.030772      16.107842    
-807624         2.8165063      33.505788      26.032916      15.714208    
-807633.73      2.6675847      32.532784      26.061322      15.320579    
-807640.88      3.6859403      33.062378      26.065569      14.926988    
-807648.78      2.8880821      31.969782      26.050289      14.533458    
-807645.66      4.2834525      33.198715      26.049786      14.13997     
-807639.67      3.5058473      32.349733      26.057647      13.746514    
-807630.42      3.348178       32.231981      26.005974      13.353156    
-807623.29      3.2690322      34.151847      26.052066      12.959788    
-807618.3       3.1307482      34.112269      26.013155      12.5665      
-807622.86      3.1924198      33.616029      25.976528      12.173285    
-807634.93      2.7869777      32.422766      26.03053       11.780054    
-807643.53      3.2043215      32.797196      26.045219      11.386849    
-807647.05      3.0316122      32.687813      25.97184       10.993747    
-807643.25      3.1058298      32.79925       26.018998      10.60064     
-807639.09      3.1674198      31.946465      26.034658      10.207556    
-807630.06      2.5836493      32.761675      26.00989       9.8145301    
-807620.54      3.0754248      33.149764      26.035661      9.4215207    
-807619.1       3.0815404      33.356661      26.062689      9.0285295    
-807626.21      3.0114964      32.660544      26.026674      8.6356016    
-807636.1       2.4916249      31.956332      26.03372       8.2427056    
-807642.31      2.7652837      32.158591      25.99015       7.8498729    
-807646.07      2.8089066      32.605281      26.037972      7.4570459    
-807643.16      3.4651163      32.922266      25.966729      7.0642947    
-807638.08      2.91906        32.637249      25.979653      6.6715683    
-807626.83      2.8927065      32.874523      25.935286      6.278896     
-807619.86      2.6078765      33.526457      25.966701      5.8862386    
-807621.4       3.0813498      32.745811      25.994501      5.4936003    
-807628.24      2.7193124      32.515067      26.017277      5.1009857    
-807636.17      2.6790237      32.055389      25.928495      4.7084372    
-807643.1       2.8970188      32.195243      25.962228      4.3159056    
-807646.96      2.8692916      32.081255      25.959912      3.9234047    
-807645.27      2.6945713      31.604015      25.925199      3.530943     
-807636.05      3.294713       31.752869      26.014885      3.138487     
-807627.4       3.1458469      31.800168      25.965561      2.7460741    
-807621.07      3.1815161      33.569203      26.103894      2.3536659    
-807623.78      3.3598924      31.959476      26.026589      1.9613069    
-807628.72      2.6111299      31.294041      26.02298       1.5689811    
-807638.12      3.1738504      31.476072      26.005681      1.1766893    
-807647.84      3.0786336      30.866407      25.997385      0.78442909   
-807646.58      3.0376383      32.00019       25.986306      0.39219972   
-807642.79      3.3391634      31.239559      25.986273      0            
Loop time of 196.093 on 32 procs for 5000 steps with 1080 atoms

Performance: 4.406 ns/day, 5.447 hours/ns, 25.498 timesteps/s, 27.538 katom-step/s
66.6% CPU use with 32 MPI tasks x 1 OpenMP threads

MPI task timing breakdown:
Section |  min time  |  avg time  |  max time  |%varavg| %total
---------------------------------------------------------------
Pair    | 104.38     | 146.38     | 191.87     | 308.6 | 74.65
Neigh   | 0          | 0          | 0          |   0.0 |  0.00
Comm    | 1.9563     | 47.442     | 89.443     | 542.0 | 24.19
Output  | 0.025486   | 0.026604   | 0.02788    |   0.2 |  0.01
Modify  | 1.9176     | 1.9321     | 1.947      |   0.6 |  0.99
Other   |            | 0.3151     |            |       |  0.16

Nlocal:          33.75 ave          48 max          21 min
Histogram: 8 8 0 0 0 0 0 8 0 8
Nghost:        1106.25 ave        1119 max        1092 min
Histogram: 8 0 8 0 0 0 0 0 8 8
Neighs:              0 ave           0 max           0 min
Histogram: 32 0 0 0 0 0 0 0 0 0
FullNghs:       5494.5 ave        7896 max        3378 min
Histogram: 8 8 0 0 0 0 0 8 0 8

Total # of neighbors = 175824
Ave neighs/atom = 162.8
Neighbor list builds = 0
Dangerous builds = 0

reset_timestep 0


variable interval equal 1000
thermo 10

variable nintervals equal $(v_PERIOD/v_interval)
variable nintervals equal 100
variable efield equal 1e-2*36.36*cos((step/${PERIOD})*2*3.14)
variable efield equal 1e-2*36.36*cos((step/100000)*2*3.14)
fix born all addbornforce 0.0 0.0 v_efield

variable Px equal f_born[1]+c_polarization[1]
variable Py equal f_born[2]+c_polarization[2]
variable Pz equal (f_born[3]+c_polarization[3])/vol
variable pe equal pe

fix aveP all ave/time 1 $(v_interval/2) ${interval} v_efield v_Pz v_pe f_born file Pz.${MODEL}.${STRUCTURE}.${TEMP}.$L.${ITER}
fix aveP all ave/time 1 500 ${interval} v_efield v_Pz v_pe f_born file Pz.${MODEL}.${STRUCTURE}.${TEMP}.$L.${ITER}
fix aveP all ave/time 1 500 1000 v_efield v_Pz v_pe f_born file Pz.${MODEL}.${STRUCTURE}.${TEMP}.$L.${ITER}
fix aveP all ave/time 1 500 1000 v_efield v_Pz v_pe f_born file Pz.BaTiO3-E0.${STRUCTURE}.${TEMP}.$L.${ITER}
fix aveP all ave/time 1 500 1000 v_efield v_Pz v_pe f_born file Pz.BaTiO3-E0.BaTiO3-sc333.${TEMP}.$L.${ITER}
fix aveP all ave/time 1 500 1000 v_efield v_Pz v_pe f_born file Pz.BaTiO3-E0.BaTiO3-sc333.280.$L.${ITER}
fix aveP all ave/time 1 500 1000 v_efield v_Pz v_pe f_born file Pz.BaTiO3-E0.BaTiO3-sc333.280.2.${ITER}
fix aveP all ave/time 1 500 1000 v_efield v_Pz v_pe f_born file Pz.BaTiO3-E0.BaTiO3-sc333.280.2.5

thermo_style custom step time temp press pe f_born v_efield v_Pz spcpu cpuremain

# dump 4a all custom 1000 dump.hyst.${MODEL}.${STRUCTURE}.${TEMP}.$L.${ITER}.bin id type xu yu zu fx fy fz
# dump_modify 4a sort id

fix nvt all nvt temp ${TEMP} ${TEMP} $(100*dt)
fix nvt all nvt temp 280 ${TEMP} $(100*dt)
fix nvt all nvt temp 280 280 $(100*dt)
fix nvt all nvt temp 280 280 0.2000000000000000111

run $(v_PERIOD)
run 100000
WARNING: non-constant efield is experimental, strongly distrust scalar/vector output (src/fix_addbornforce.cpp:193)
Per MPI rank memory allocation (min/avg/max) = 3.516 | 3.516 | 3.516 Mbytes
   Step          Time           Temp          Press          PotEng         f_born        v_efield         v_Pz          S/CPU         CPULeft    
         0   0              271.7219       124600.5      -807642.78     -295.62458      0.3636         0.055598641    0              0            
        10   0.02           282.20721      132644.87     -807635.54     -304.33943      0.36359993     0.05723767     29.168915      3427.9874    
        20   0.04           285.1606       138064.36     -807628.91     -311.44005      0.36359971     0.058573132    29.139702      3429.3491    
        30   0.06           266.96129      143093.6      -807621.85     -315.90928      0.36359935     0.059413727    29.102104      3431.053     
        40   0.08           271.89988      142070.12     -807622.57     -315.83686      0.36359885     0.059400189    29.123971      3431.0884    
        50   0.1            284.47363      134786.48     -807631.35     -308.81285      0.36359821     0.058079269    29.22235       3428.6617    
        60   0.12           282.16541      128690.15     -807641.1      -298.54364      0.36359742     0.056148033    29.186532      3427.6291    
        70   0.14           262.15534      123555.6      -807644.17     -292.60004      0.36359649     0.055030342    29.118623      3427.9345    
        80   0.16           262.773        123743.09     -807644.41     -292.32804      0.36359541     0.05497935     29.09249       3428.4629    
        90   0.18           279.30022      126246.09     -807642.18     -296.7534       0.36359419     0.055811833    29.09926       3428.7093    
       100   0.2            281.27697      133514.42     -807633.71     -305.33519      0.36359283     0.057426066    29.121122      3428.5794    
       110   0.22           283.78853      139074.54     -807626.79     -312.41572      0.36359132     0.058757984    29.141772      3428.1895    
       120   0.24           272.85215      143375.1      -807620.53     -316.94701      0.36358968     0.059610482    29.165736      3427.5729    
       130   0.26           276.00068      139513.01     -807625        -312.68452      0.36358788     0.058809096    29.147271      3427.1654    
       140   0.28           292.33618      135068.93     -807632.69     -306.95836      0.36358595     0.057732438    29.143231      3426.801     
       150   0.3            279.70677      127696.2      -807639.87     -297.80053      0.36358387     0.056010362    29.193953      3426.0429    
       160   0.32           278.28811      124655.83     -807644.2      -292.89794      0.36358165     0.055088618    29.152559      3425.6396    
       170   0.34           278.41522      122450.59     -807645.77     -291.19063      0.36357928     0.054767862    29.161304      3425.1836    
       180   0.36           289.21004      128730.38     -807640.13     -298.06851      0.36357677     0.056061858    29.168802      3424.6907    
       190   0.38           287.68075      134565.36     -807631.75     -306.14557      0.36357412     0.057581442    29.1577        3424.2825    
       200   0.4            282.79253      142153.51     -807622.5      -314.47681      0.36357132     0.05914888     29.194513      3423.665     
       210   0.42           278.27932      142435.9      -807621.05     -315.19905      0.36356838     0.059285203    29.12669       3423.4529    
       220   0.44           288.25751      140032.5      -807624.73     -312.71799      0.3635653      0.058819044    29.129452      3423.2136    
       230   0.46           291.39699      133629.14     -807633.02     -304.82661      0.36356207     0.057335265    29.126531      3422.9805    
       240   0.48           295.99589      127265.34     -807641.16     -297.19954      0.3635587      0.055901197    29.117427      3422.7828    
       250   0.5            266.35912      124326.3      -807643.16     -290.93895      0.36355519     0.054724151    29.092501      3422.6911    
       260   0.52           283.40539      124490.42     -807644.51     -291.99936      0.36355153     0.054924162    29.100596      3422.543     
       270   0.54           293.58717      128893.66     -807638.23     -299.75696      0.36354773     0.056383931    29.149829      3422.1662    
       280   0.56           286.75241      137079.47     -807628.86     -308.22617      0.36354379     0.057977608    29.103021      3421.9881    
       290   0.58           283.87951      141819.15     -807623.24     -313.50933      0.3635397      0.058972038    29.112992      3421.7583    
       300   0.6            282.22422      142413.24     -807621.88     -314.63445      0.36353547     0.059184366    29.108908      3421.5369    
       310   0.62           292.20872      138787.19     -807626.3      -311.70247      0.3635311      0.05863355     29.121827      3421.2586    
       320   0.64           291.5255       132251.75     -807633.79     -304.17562      0.36352658     0.057218405    29.078026      3421.1373    
       330   0.66           288.56264      126322.99     -807641.79     -295.69686      0.36352192     0.05562418     29.118119      3420.8596    
       340   0.68           275.79421      123096.35     -807645.09     -290.7313       0.36351712     0.05469082     29.118788      3420.5757    
       350   0.7            271.78252      126130.97     -807640.75     -294.59548      0.36351217     0.055418483    29.129084      3420.2539    
       360   0.72           280.38118      130688.11     -807635.97     -300.7378       0.36350708     0.056574752    29.128356      3419.9331    
       370   0.74           284.51159      136932.43     -807628.62     -308.7204       0.36350185     0.058077273    29.137988      3419.5806    
       380   0.76           285.56782      140090.48     -807624.49     -313.05855      0.36349647     0.058894249    29.104494      3419.3322    
       390   0.78           288.74713      141411.49     -807623.31     -314.73975      0.36349095     0.059211425    29.130673      3419         
       400   0.8            288.29308      136887.38     -807628.42     -309.75647      0.36348529     0.058274837    29.140348      3418.639     
       410   0.82           291.57294      132077.28     -807636.54     -302.1151       0.36347948     0.056838165    29.150879      3418.2485    
       420   0.84           275.42672      125450.16     -807642.15     -294.36492      0.36347353     0.055380999    29.170228      3417.8064    
       430   0.86           270.15742      125692.84     -807642.58     -293.20026      0.36346744     0.055162807    29.170305      3417.3688    
       440   0.88           266.66544      125668.11     -807640.83     -294.67545      0.3634612      0.055441302    29.144945      3417.003     
       450   0.9            279.31086      131915.94     -807635.26     -302.06217      0.36345482     0.056832063    29.17682       3416.5552    
       460   0.92           283.19883      136827.68     -807629.57     -308.4369       0.3634483      0.058032491    29.16099       3416.1523    
       470   0.94           282.01097      141949.4      -807622.78     -315.11419      0.36344163     0.059289913    29.151081      3415.7767    
       480   0.96           278.11322      140455.96     -807624        -313.53243      0.36343482     0.058993403    29.145978      3415.4147    
       490   0.98           291.56758      137185.34     -807630.3      -309.11078      0.36342786     0.058162551    29.133553      3415.0834    
       500   1              284.06979      129854.15     -807637.47     -301.02444      0.36342077     0.056642124    29.147218      3414.7194    
       510   1.02           270.0674       126020.1      -807641.72     -9433.9383      0.36341353     0.055474       29.007188      3414.6794    
       520   1.04           266.38187      123987.11     -807643.5      -9363.9866      0.36340614     0.055063785    29.041919      3414.5488    
       530   1.06           263.07301      127595.4      -807640.28     -9456.6173      0.36339862     0.05560964     29.002511      3414.4981    
       540   1.08           280.90383      131287.3      -807635.48     -9692.5673      0.36339095     0.056998347    29.025617      3414.3857    
       550   1.1            282.6479       137754.31     -807628        -9941.7502      0.36338313     0.058464955    29.012484      3414.2932    
       560   1.12           271.69533      140861.63     -807623.22     -10049.467      0.36337518     0.059099706    29.031632      3414.1513    
       570   1.14           272.69826      141206.18     -807624.43     -10015.041      0.36336707     0.058898562    29.064486      3413.9344    
       580   1.16           284.06849      135472.43     -807631.78     -9833.5174      0.36335883     0.057832332    29.06468       3413.7127    
       590   1.18           275.92551      129734.08     -807636.64     -9639.9205      0.36335044     0.05669507     29.049449      3413.5172    
       600   1.2            272.67663      124999.37     -807643.74     -9398.9374      0.36334191     0.055279079    29.091656      3413.2341    
       610   1.22           260.0456       124997.3      -807642.82     -9372.3394      0.36333324     0.055123961    29.082165      3412.9672    
       620   1.24           278.45782      127654.06     -807641.02     -9515.0238      0.36332442     0.055964525    29.062154      3412.7359    
       630   1.26           287.60327      133233.82     -807634.76     -9758.0473      0.36331546     0.057395332    29.050385      3412.5228    
       640   1.28           274.87768      138670.17     -807626.54     -9965.023       0.36330636     0.058614201    29.111328      3412.1939    
       650   1.3            268.18042      141289.82     -807623.72     -10026.358      0.36329711     0.058976473    29.050214      3411.9749    
       660   1.32           280.34432      139126.28     -807626.85     -9979.8176      0.36328772     0.058704233    29.034162      3411.7809    
       670   1.34           277.65944      134344.68     -807631.6      -9815.5538      0.36327819     0.057739501    29.075261      3411.5099    
       680   1.36           272.66579      129251        -807638.39     -9572.9198      0.36326851     0.056313718    29.129759      3411.1431    
       690   1.38           271.1841       124212.27     -807644.56     -9367.4214      0.36325869     0.055106341    29.039609      3410.9303    
       700   1.4            265.15646      125988.08     -807642.38     -9407.4148      0.36324873     0.055343131    29.051257      3410.6941    
       710   1.42           280.07637      127807.06     -807639.51     -9568.1145      0.36323863     0.056290082    29.06324       3410.435     
       720   1.44           279.71536      134260.53     -807632.05     -9802.1627      0.36322838     0.057668636    29.073968      3410.1561    
       730   1.46           274.84733      139115.76     -807626.96     -9941.8558      0.36321798     0.05849216     29.113411      3409.812     
       740   1.48           275.69863      141366.99     -807623.63     -10046.946      0.36320745     0.059112164    29.089758      3409.5054    
       750   1.5            280.62827      139015.45     -807626.8      -9964.7043      0.36319677     0.058630012    29.082053      3409.2098    
       760   1.52           280.23836      133989.02     -807632.66     -9770.0685      0.36318595     0.057486533    29.046837      3408.9675    
       770   1.54           279.14091      127628.7      -807640.6      -9503.6406      0.36317498     0.055920574    29.045234      3408.7249    
       780   1.56           266.22652      125503.76     -807642.83     -9368.6918      0.36316387     0.055128206    29.032425      3408.499     
       790   1.58           281.73874      125600.82     -807642.77     -9434.3788      0.36315262     0.055516448    28.978713      3408.3503    
       800   1.6            279.76879      129310.64     -807637.57     -9587.4483      0.36314122     0.056418953    29.043679      3408.101     
       810   1.62           283.95448      134728.76     -807632.25     -9770.4631      0.36312968     0.057497761    29.037512      3407.8583    
       820   1.64           278.44529      139507.16     -807625.63     -9952.624       0.363118       0.058571636    29.047691      3407.5985    
       830   1.66           290.17813      140945.09     -807623.45     -10069.014      0.36310618     0.059258527    29.059901      3407.3194    
       840   1.68           290.31951      136909.83     -807627.88     -9923.1695      0.36309421     0.058402122    29.063481      3407.0338    
       850   1.7            283.81483      132811.86     -807634.45     -9676.6435      0.3630821      0.05695311     29.08695       3406.7143    
       860   1.72           270.99024      127207.35     -807639.07     -9466.6072      0.36306984     0.055718796    29.033496      3406.4673    
       870   1.74           272.8395       126039.17     -807641.04     -9407.6543      0.36305745     0.0553737      29.025892      3406.2283    
       880   1.76           279.21095      125876.03     -807641.64     -9412.2332      0.3630449      0.055402565    29.037789      3405.9711    
       890   1.78           288.64256      130700.1      -807637.1      -9595.2501      0.36303222     0.056481818    29.066732      3405.6737    
       900   1.8            287.89306      135434.03     -807629.68     -9828.6982      0.36301939     0.057858039    29.092547      3405.3416    
       910   1.82           296.88056      141150.66     -807623.94     -10048.997      0.36300642     0.059156976    29.077157      3405.0291    
       920   1.84           296.17806      139944.15     -807625.13     -10008.058      0.36299331     0.058918101    29.089444      3404.7003    
       930   1.86           284.03683      138389.44     -807627.3      -9880.6985      0.36298005     0.058170451    29.075421      3404.3888    
       940   1.88           292.40901      131541.82     -807635.24     -9664.2263      0.36296665     0.056898118    29.015193      3404.1519    
       950   1.9            288.43155      127534.51     -807639.48     -9508.7943      0.36295311     0.055985102    29.059925      3403.8573    
       960   1.92           274.15419      124831.86     -807642.09     -9360.1081      0.36293942     0.055111757    29.054523      3403.5683    
       970   1.94           283.23175      126813.95     -807641.58     -9417.3668      0.36292559     0.055451006    29.027699      3403.3107    
       980   1.96           295.83789      130805.8      -807636.76     -9631.4294      0.36291162     0.056713626    29.029835      3403.0487    
       990   1.98           288.6692       136509.64     -807628.81     -9855.3113      0.3628975      0.058034187    29.110363      3402.6898    
      1000   2              286.9572       141017.9      -807624.54     -9985.8732      0.36288325     0.058805327    29.028334      3402.4273    
      1010   2.02           279.47689      139856.23     -807624.64     -311.04937      0.36286884     0.058617483    29.170726      3401.9983    
      1020   2.04           294.48263      136739.53     -807629.81     -308.04484      0.3628543      0.058053604    29.129516      3401.6181    
      1030   2.06           275.6049       131430.62     -807633.64     -301.76174      0.36283961     0.056871804    29.138514      3401.2284    
      1040   2.08           281.39912      127359        -807640.93     -295.36371      0.36282478     0.055668268    29.129409      3400.8499    
      1050   2.1            273.77488      124441.57     -807642.99     -292.42769      0.3628098      0.05511718     29.122933      3400.4792    
      1060   2.12           281.87495      127909.48     -807639.79     -297.00117      0.36279469     0.055981529    29.126144      3400.1054    
      1070   2.14           287.19832      131367.77     -807635.05     -302.76218      0.36277943     0.057069819    29.12785       3399.7304    
      1080   2.16           281.09796      137132.99     -807628.67     -308.49298      0.36276402     0.058152528    29.175671      3399.3044    
      1090   2.18           284.49259      138599.99     -807626.96     -310.9663       0.36274848     0.058621273    29.178335      3398.8772    
      1100   2.2            281.6682       139985.14     -807625.2      -312.52561      0.36273279     0.058917772    29.138123      3398.4939    
      1110   2.22           277.61702      135406.15     -807629.9      -307.50272      0.36271695     0.057973379    29.117242      3398.1334    
      1120   2.24           279.05068      130823.39     -807637.54     -300.14785      0.36270098     0.056589261    29.088983      3397.8026    
      1130   2.26           269.94016      125446.2      -807642.71     -293.87322      0.36268486     0.055408717    29.128911      3397.4303    
      1140   2.28           271.77345      125563.16     -807642.71     -294.21527      0.3626686      0.055475697    29.147774      3397.0393    
      1150   2.3            273.7714       126960.76     -807640.22     -297.13382      0.36265219     0.056028538    29.120546      3396.6766    
      1160   2.32           283.12261      132410.62     -807636.48     -302.17835      0.36263564     0.056982353    29.149661      3396.2851    
      1170   2.34           292.58079      135572.81     -807632.54     -307.5693       0.36261895     0.058001604    29.177169      3395.8671    
      1180   2.36           270.13062      141093.47     -807623.56     -313.44667      0.36260212     0.059112706    29.168509      3395.4589    
      1190   2.38           278.62153      138822.61     -807626.83     -311.40244      0.36258514     0.058729935    29.131483      3395.088     
      1200   2.4            278.55085      134611.28     -807632.61     -305.49466      0.36256802     0.05761846     29.137987      3394.7112    
      1210   2.42           267.60448      128821.83     -807638.53     -298.07318      0.36255076     0.056221392    29.136908      3394.336     
      1220   2.44           268.07845      127314.83     -807640.9      -295.71892      0.36253335     0.05578002     29.143852      3393.9547    
      1230   2.46           260.33366      125133.87     -807641.56     -293.9603       0.3625158      0.055450984    29.131323      3393.5859    
      1240   2.48           278.09614      128491.47     -807640.93     -296.93394      0.36249811     0.056014647    29.170702      3393.1806    
      1250   2.5            284.06565      132290.49     -807636.07     -302.64257      0.36248028     0.057094352    29.174696      3392.7726    
      1260   2.52           275.19384      139127.59     -807626.94     -310.45682      0.3624623      0.058571436    29.151364      3392.3871    
      1270   2.54           278.38783      139842.26     -807625.72     -312.09558      0.36244418     0.058883553    29.182218      3391.9741    
      1280   2.56           280.64359      137905.87     -807628.6      -309.37425      0.36242592     0.058373058    29.13804       3391.6023    
      1290   2.58           279.86748      133394.49     -807633.84     -303.91565      0.36240751     0.057346034    29.146101      3391.2236    
      1300   2.6            282.2772       128617.81     -807638.61     -299.39563      0.36238896     0.05649604     29.202698      3390.795     
      1310   2.62           272.60654      125383.09     -807641.71     -294.8298       0.36237027     0.055637337    29.179096      3390.3886    
      1320   2.64           272.67437      125110.77     -807643.23     -293.14269      0.36235143     0.055321838    29.16681       3389.9939    
      1330   2.66           274.38453      129079.78     -807639.02     -297.5197       0.36233245     0.056150807    29.157532      3389.6081    
      1340   2.68           285.08839      134012.67     -807632.7      -305.26036      0.36231333     0.05761474     29.144795      3389.234     
      1350   2.7            276.08935      138329.72     -807625.88     -310.72165      0.36229407     0.058648622    29.201775      3388.8115    
      1360   2.72           276.62825      139689.38     -807626.25     -310.31325      0.36227466     0.058574673    29.158631      3388.4268    
      1370   2.74           280.99496      138328.2      -807628.45     -308.57987      0.36225511     0.058250625    29.127453      3388.0692    
      1380   2.76           291.08834      132417.69     -807633.85     -304.52589      0.36223542     0.057488479    29.080493      3387.7514    
      1390   2.78           277.21567      130042.06     -807637.31     -298.91877      0.36221558     0.056433057    29.102677      3387.4147    
      1400   2.8            279.63229      125185.95     -807644.58     -291.92416      0.3621956      0.05511558     29.128917      3387.056     
      1410   2.82           284.43842      126475.82     -807643.43     -293.60625      0.36217548     0.05543624     29.111156      3386.7122    
      1420   2.84           277.6845       128407.14     -807637.1      -299.05027      0.36215522     0.056467294    29.150011      3386.3367    
      1430   2.86           289.22105      135068.13     -807631.8      -305.87615      0.36213481     0.057759424    29.167273      3385.9476    
      1440   2.88           273.01146      137155.75     -807627.64     -307.8102       0.36211426     0.058127936    29.195029      3385.5368    
      1450   2.9            279.70864      141123.98     -807624.62     -311.60766      0.36209357     0.058848424    29.150783      3385.1623    
      1460   2.92           280.73546      136934.97     -807627.68     -308.75315      0.36207273     0.058312693    29.14508       3384.7927    
      1470   2.94           280.45995      134473.38     -807631.66     -304.61862      0.36205176     0.057535157    29.144149      3384.4243    
      1480   2.96           288.31622      126830.45     -807642.06     -295.24397      0.36203064     0.055767765    29.177942      3384.0297    
      1490   2.98           280.25041      125816.02     -807643.16     -292.8956       0.36200937     0.055327437    29.222223      3383.6016    
      1500   3              278.67175      126264.14     -807640.99     -294.89611      0.36198796     0.055708623    29.20268       3383.1896    
      1510   3.02           290.88768      129757.72     -807638.13     -9581.3665      0.36196642     0.056566162    29.100193      3382.8571    
      1520   3.04           278.54549      134514.69     -807631.8      -9728.905       0.36194472     0.057440638    29.1282        3382.5031    
      1530   3.06           283.06209      137949.16     -807627.72     -9880.236       0.36192289     0.058337634    29.040675      3382.2159    
      1540   3.08           287.18186      140586.14     -807624.53     -9997.9081      0.36190091     0.059036011    29.054659      3381.9173    
      1550   3.1            276.64533      136095.67     -807628.17     -9835.93        0.36187879     0.058083107    29.065068      3381.6103    
      1560   3.12           282.61186      132917.93     -807635.21     -9633.3142      0.36185653     0.05689012     29.092181      3381.2826    
      1570   3.14           275.82298      126169.24     -807640.76     -9426.4536      0.36183412     0.05567194     29.079365      3380.9642    
      1580   3.16           283.44178      126674.03     -807641.36     -9438.1239      0.36181157     0.055744338    29.04732       3380.6691    
      1590   3.18           268.1571       125202.71     -807640.58     -9398.762       0.36178888     0.055515336    29.076909      3380.3517    
      1600   3.2            282.01148      131862.64     -807637.02     -9571.6044      0.36176605     0.056539826    29.044074      3380.0578    
      1610   3.22           284.15544      134544.15     -807631.93     -9746.3553      0.36174307     0.057575744    29.008027      3379.7895    
      1620   3.24           277.92223      141190.05     -807622.96     -10003.781      0.36171995     0.059100242    29.038866      3379.498     
      1630   3.26           281.76463      137937.31     -807627.08     -9891.3233      0.36169669     0.058439622    29.076619      3379.1789    
      1640   3.28           283.06054      137152.84     -807629.88     -9800.5043      0.36167329     0.057906795    29.123377      3378.8263    
      1650   3.3            282.68549      130305.7      -807637.01     -9575.3357      0.36164974     0.056580058    29.130701      3378.4688    
      1660   3.32           273.72074      129145.96     -807637.68     -9510.7115      0.36162605     0.056201879    29.118278      3378.12      
      1670   3.34           275.41531      124137.64     -807642.73     -9359.2719      0.36160222     0.055310619    29.064242      3377.809     
      1680   3.36           279.24965      127868.79     -807641.07     -9426.7067      0.36157824     0.055712833    29.047851      3377.5089    
      1690   3.38           284.66223      131140.9      -807635.65     -9627.1378      0.36155413     0.056901198    29.039067      3377.2143    
      1700   3.4            279.60472      137482.47     -807627.65     -9861.5272      0.36152987     0.058290467    29.06891       3376.8987    
      1710   3.42           280.89966      139576.83     -807625.64     -9931.1262      0.36150546     0.058705822    29.051493      3376.5946    
      1720   3.44           271.73864      138515.86     -807627.05     -9846.432       0.36148092     0.058209122    29.059913      3376.2844    
      1730   3.46           278.69339      135228.65     -807630.78     -9756.6646      0.36145623     0.057682384    29.068733      3375.9678    
      1740   3.48           279.27482      129737.55     -807635.72     -9602.2559      0.3614314      0.056773404    29.089409      3375.6372    
      1750   3.5            277.98757      126933.14     -807641.07     -9421.9035      0.36140643     0.055710919    29.079182      3375.3132    
      1760   3.52           267.4355       124978.47     -807643.21     -9307.9894      0.36138131     0.055041179    29.033426      3375.0191    
      1770   3.54           285.4402       128658.66     -807640.22     -9483.9488      0.36135605     0.056085604    29.036894      3374.7223    
      1780   3.56           288.10622      131987.87     -807634.85     -9672.6597      0.36133065     0.057205613    29.020244      3374.4357    
      1790   3.58           277.4248       138104.07     -807627.43     -9861.1011      0.36130511     0.058324208    29.030353      3374.142     
      1800   3.6            275.69549      138850.75     -807627.73     -9846.6613      0.36127942     0.058242943    29.019668      3373.8546    
      1810   3.62           273.34486      138849.13     -807626.39     -9882.3985      0.3612536      0.058458507    29.058031      3373.5419    
      1820   3.64           286.07218      133267.67     -807632.32     -9755.3058      0.36122763     0.05771085     29.112061      3373.1945    
      1830   3.66           275.01037      130059.07     -807637.39     -9544.0032      0.36120151     0.056464899    29.099282      3372.8551    
      1840   3.68           269.51728      125834.73     -807642.62     -9356.6858      0.36117526     0.055360703    29.054264      3372.5441    
      1850   3.7            269.89223      126643.85     -807641.62     -9393.0593      0.36114886     0.055579976    29.01925       3372.2548    
      1860   3.72           268.05496      128786.49     -807637.11     -9535.0924      0.36112232     0.056424551    29.022309      3371.9629    
      1870   3.74           279.5277       133143.87     -807634.35     -9677.3668      0.36109564     0.057270701    29.07561       3371.6374    
      1880   3.76           275.11602      136436.67     -807629.99     -9801.0425      0.36106881     0.058006924    29.099039      3371.2972    
      1890   3.78           282.44118      139202.57     -807628.23     -9894.1486      0.36104184     0.058562341    29.096816      3370.9583    
      1900   3.8            278.23332      136611.94     -807628.9      -9858.0289      0.36101474     0.058352934    29.111191      3370.6107    
      1910   3.82           279.59954      133074.88     -807634.1      -9698.6054      0.36098748     0.057413588    29.061293      3370.2933    
      1920   3.84           269.53523      128021.58     -807640.04     -9466.5798      0.36096009     0.056044301    29.072959      3369.9686    
      1930   3.86           268.18828      126631.56     -807641.69     -9408.2063      0.36093255     0.055702966    29.049088      3369.6581    
      1940   3.88           267.24832      125925.84     -807641.81     -9402.467       0.36090487     0.055673255    29.064526      3369.338     
      1950   3.9            275.33136      129568.89     -807639.67     -9507.0924      0.36087705     0.056297096    29.050343      3369.0261    
      1960   3.92           270.30175      132800.56     -807634.52     -9649.8717      0.36084909     0.057147004    29.106398      3368.6807    
      1970   3.94           280.10783      136603.69     -807629.93     -9838.7458      0.36082098     0.058270065    29.169781      3368.2982    
      1980   3.96           268.16926      137605.67     -807626.38     -9896.6249      0.36079273     0.058617443    29.150628      3367.9273    
      1990   3.98           276.05045      136817.41     -807630.57     -9794.8031      0.36076434     0.058018921    29.088339      3367.5927    
      2000   4              274.14465      132994.51     -807634.55     -9655.1145      0.36073581     0.057196007    29.04689       3367.2822    
      2010   4.02           279.65788      128946.45     -807638.91     -297.9708       0.36070713     0.056489339    29.1382        3366.9187    
      2020   4.04           268.66599      126530.14     -807641.24     -293.93102      0.36067831     0.05572793     29.118657      3366.5665    
      2030   4.06           270.81385      127009.28     -807641.69     -293.58649      0.36064935     0.055667079    29.096975      3366.2268    
      2040   4.08           274.9143       128649.28     -807639.25     -296.40558      0.36062025     0.056206143    29.150367      3365.8569    
      2050   4.1            279.81979      133368.24     -807632.88     -303.29827      0.36059101     0.057517839    29.16255       3365.4804    
      2060   4.12           275.283        137231.18     -807628.2      -307.11927      0.36056162     0.058247204    29.17491       3365.0973    
      2070   4.14           282.77193      137725.9      -807628.95     -307.11471      0.36053209     0.058251111    29.132165      3364.7383    
      2080   4.16           286.37121      135312.49     -807630.85     -305.4744       0.36050242     0.057944758    29.127904      3364.3819    
      2090   4.18           285.79028      132277.76     -807634.34     -301.602        0.36047261     0.057214943    29.121825      3364.0289    
      2100   4.2            272.80667      129237        -807637.61     -296.3198       0.36044265     0.056217563    29.11157       3363.6817    
      2110   4.22           274.04371      126711.57     -807641.51     -292.27896      0.36041256     0.055455568    29.150308      3363.3134    
      2120   4.24           276.65178      127355.89     -807641.14     -292.79603      0.36038232     0.055558335    29.152735      3362.9439    
      2130   4.26           283.22556      130315.14     -807636.27     -298.45188      0.36035193     0.056636313    29.150979      3362.5757    
      2140   4.28           291.83041      134745.09     -807631.81     -303.91473      0.36032141     0.057677867    29.166584      3362.1993    
      2150   4.3            274.33465      137733.29     -807627.32     -305.82029      0.36029075     0.05804445     29.188268      3361.8117    
      2160   4.32           285.36396      138112.22     -807627.58     -306.88504      0.36025994     0.058251521    29.193725      3361.4215    
      2170   4.34           292.19315      134824.34     -807630.3      -305.11108      0.36022899     0.057919772    29.187721      3361.035     
      2180   4.36           288.18159      132598.56     -807633.63     -301.05295      0.36019789     0.057154343    29.165675      3360.6605    
      2190   4.38           272.61902      127927.13     -807638.1      -294.31844      0.36016666     0.055880654    29.144819      3360.2972    
      2200   4.4            280.72987      127560.69     -807641.02     -292.38588      0.36013528     0.055518566    29.162182      3359.925     
      2210   4.42           281.54784      127701.85     -807639.22     -294.30333      0.36010377     0.055887546    29.127459      3359.5712    
      2220   4.44           290.10812      131750.71     -807634.61     -300.02087      0.36007211     0.056978303    29.127667      3359.2174    
      2230   4.46           288.4936       133993.89     -807632.12     -302.30216      0.3600403      0.057416623    29.120907      3358.8671    
      2240   4.48           280.60365      138130.31     -807627.29     -305.93229      0.36000836     0.058111255    29.083033      3358.5365    
      2250   4.5            286.61519      137008.72     -807626.87     -307.25422      0.35997627     0.058367554    29.086401      3358.204     
      2260   4.52           292.30104      136003.44     -807629.57     -305.34451      0.35994404     0.05800997     29.094782      3357.8671    
      2270   4.54           288.25509      131042.04     -807636.22     -298.10439      0.35991167     0.05663957     29.047031      3357.5544    
      2280   4.56           278.00927      128732.43     -807639.47     -293.39469      0.35987916     0.055749768    29.073555      3357.2281    
      2290   4.58           283.09643      126160.62     -807640.53     -293.09105      0.35984651     0.055697125    29.153459      3356.8613    
      2300   4.6            288.51926      127830.12     -807639.65     -294.74916      0.35981371     0.056017328    29.147952      3356.4976    
      2310   4.62           275.26035      130836.19     -807635.71     -296.96855      0.35978077     0.056444292    29.129119      3356.1433    
      2320   4.64           287.228        135423.41     -807632.19     -302.15404      0.35974769     0.057435168    29.165788      3355.771     
      2330   4.66           284.10568      136885.79     -807627.6      -306.49195      0.35971447     0.058265124    29.17135       3355.3962    
      2340   4.68           271.78131      138302.51     -807625.04     -307.35663      0.35968111     0.058434923    29.199917      3355.0077    
      2350   4.7            290.92556      133932.52     -807633.5      -301.65581      0.3596476      0.05735642     29.160115      3354.639     
      2360   4.72           277.38933      130966.16     -807635.89     -297.43415      0.35961396     0.056559011    29.125243      3354.2875    
      2370   4.74           273.65642      127821.82     -807638.34     -294.60591      0.35958017     0.056026468    29.134797      3353.9315    
      2380   4.76           270.04263      127084.97     -807639.42     -293.08734      0.35954624     0.055742935    29.143645      3353.5712    
      2390   4.78           286.37708      127228.89     -807641.92     -292.94961      0.35951216     0.055722021    29.133481      3353.2161    
      2400   4.8            280.23618      130956.27     -807636.33     -297.90027      0.35947795     0.05666908     29.117988      3352.8684    
      2410   4.82           280.57243      135831.05     -807630.02     -304.40726      0.35944359     0.057912429    29.131833      3352.5141    
      2420   4.84           284.72343      136341.18     -807629.33     -305.87775      0.35940909     0.05819777     29.129616      3352.1611    
      2430   4.86           275.8799       137322.75     -807629.16     -304.95154      0.35937446     0.058027138    29.089823      3351.8269    
      2440   4.88           277.58999      133295.7      -807634.04     -300.56991      0.35933967     0.057198922    29.086667      3351.4942    
      2450   4.9            273.04882      131741.25     -807635.43     -298.71839      0.35930475     0.0568521      29.115992      3351.1475    
      2460   4.92           263.86836      127257.55     -807639.5      -293.62964      0.35926969     0.055889064    29.165099      3350.778     
      2470   4.94           269.02664      127302.07     -807642.02     -291.97847      0.35923448     0.05558023     29.150433      3350.4155    
      2480   4.96           276.096        127128.69     -807642.31     -292.99532      0.35919913     0.055779283    29.093648      3350.0795    
      2490   4.98           270.44659      132959.46     -807634.36     -300.38226      0.35916364     0.05719123     29.124279      3349.7292    
      2500   5              272.82538      133562.03     -807631.92     -303.40907      0.35912801     0.05777325     29.122774      3349.3797    
[...]
     98740   197.48         281.68582      135035.26     -807630.85     -9749.4775      0.36236891     0.057494718    29.026779      44.093119    
     98750   197.5          278.40785      132196.18     -807633.41     -9647.4226      0.36238762     0.056889942    28.996893      43.743109    
     98760   197.52         295.75888      134130.73     -807633.41     -9711.9239      0.36240618     0.057267367    29.004405      43.393099    
     98770   197.54         289.61304      130894.28     -807633.67     -9669.1984      0.36242459     0.057012535    29.032146      43.043086    
     98780   197.56         290.64685      133939.04     -807632.35     -9701.1162      0.36244287     0.057197848    29.024584      42.693076    
     98790   197.58         293.66485      130769.02     -807636.35     -9580.3169      0.362461       0.056482789    29.010453      42.343068    
     98800   197.6          296.56901      133607.4      -807633.14     -9683.4178      0.36247899     0.057087809    29.022401      41.99306     
     98810   197.62         298.67346      132166.38     -807633.32     -9684.0635      0.36249683     0.057088805    29.040078      41.643051    
     98820   197.64         283.77937      136026.72     -807629.22     -9741.0834      0.36251453     0.057422141    29.029651      41.293044    
     98830   197.66         293.95171      132070.49     -807633.74     -9641.1812      0.36253209     0.05683048     29.03572       40.943037    
     98840   197.68         294.60522      135112.03     -807631.59     -9708.7531      0.36254951     0.057226038    29.025084      40.593033    
     98850   197.7          286.50777      132792.1      -807630.31     -9716.5995      0.36256678     0.057269558    29.033524      40.243029    
     98860   197.72         292.99031      134709.66     -807632.03     -9687.2578      0.36258391     0.057093921    29.040685      39.893025    
     98870   197.74         300.19528      130976.04     -807635.28     -9616.8892      0.3626009      0.056676533    29.069563      39.543019    
     98880   197.76         300.34022      133271.32     -807633.49     -9677.1667      0.36261774     0.057029125    29.097441      39.193009    
     98890   197.78         291.8546       132997.84     -807631.13     -9720.4629      0.36263445     0.057281639    29.035838      38.84301     
     98900   197.8          291.49986      134087.1      -807631.27     -9716.0953      0.362651       0.057253286    28.946735      38.493023    
     98910   197.82         299.61696      132401.4      -807634.5      -9656.1282      0.36266742     0.056897347    28.949334      38.143037    
     98920   197.84         289.51197      134048.05     -807631.34     -9719.4499      0.36268369     0.057267892    28.926338      37.793054    
     98930   197.86         288.99738      133796.39     -807630.84     -9742.2784      0.36269982     0.057399847    28.963804      37.443068    
     98940   197.88         288.29009      133562.85     -807632.7      -9683.4398      0.36271581     0.057050666    28.978805      37.093081    
     98950   197.9          292.0007       132052.13     -807635.35     -9620.3608      0.36273165     0.056676555    29.011434      36.743091    
     98960   197.92         288.49459      132067.41     -807633.35     -9675.8231      0.36274735     0.057000834    28.988204      36.393104    
     98970   197.94         293.49993      132941.4      -807632.27     -9740.9704      0.36276291     0.05738216     28.997486      36.043118    
     98980   197.96         285.34437      133783.74     -807632.8      -9691.4332      0.36277832     0.05708792     29.027679      35.693128    
     98990   197.98         280.79391      133488.19     -807633.29     -9659.9745      0.36279359     0.056900216    29.006856      35.343143    
     99000   198            293.71529      133438.97     -807633.36     -9722.5274      0.36280872     0.057266283    28.959955      34.993164    
     99010   198.02         285.9296       133519.36     -807630.85     -305.38081      0.3628237      0.057556397    29.131962      34.643166    
     99020   198.04         286.81675      132969.74     -807633.22     -303.27309      0.36283855     0.057156809    29.178773      34.293163    
     99030   198.06         279.75185      132828.24     -807634.52     -301.13775      0.36285324     0.056752071    29.180783      33.943162    
     99040   198.08         280.91214      133174.43     -807632.27     -303.74597      0.3628678      0.057241316    29.15683       33.593165    
     99050   198.1          287.7551       132743.72     -807633.37     -303.75466      0.36288221     0.05724068     29.181824      33.243167    
     99060   198.12         283.09279      133267.93     -807633.61     -302.94434      0.36289648     0.057085735    29.17976       32.89317     
     99070   198.14         281.19853      132534.84     -807635.26     -301.16619      0.36291061     0.056748459    29.158112      32.543178    
     99080   198.16         293.51633      132584.3      -807634.84     -303.40791      0.36292459     0.057168662    29.108739      32.193192    
     99090   198.18         279.46361      132641.92     -807631.91     -304.57624      0.36293843     0.057386612    29.028809      31.843216    
     99100   198.2          285.74309      131978.99     -807634.73     -302.77687      0.36295213     0.057045432    29.015438      31.493242    
     99110   198.22         279.01914      132643.13     -807634.34     -302.32325      0.36296568     0.056957839    29.081265      31.143263    
     99120   198.24         276.30328      133718.26     -807632.64     -303.81799      0.36297909     0.057237335    29.118022      30.793281    
     99130   198.26         285.68448      133499.5      -807632.64     -305.21543      0.36299236     0.057498502    29.094124      30.443303    
     99140   198.28         275.24286      132951        -807633.13     -303.42659      0.36300548     0.057159441    29.037763      30.093332    
     99150   198.3          281.94137      132834.59     -807634.96     -302.62105      0.36301846     0.057005655    29.030463      29.743362    
     99160   198.32         275.39663      132609.71     -807632.83     -304.02254      0.3630313      0.057267632    29.042446      29.393393    
     99170   198.34         278.48624      133026.88     -807632.83     -304.58725      0.36304399     0.057371998    29.095732      29.04342     
     99180   198.36         270.2418       132901.63     -807633.57     -302.80585      0.36305655     0.057034482    29.104296      28.693447    
     99190   198.38         276.96836      132948.19     -807634.83     -302.58407      0.36306895     0.056990762    29.113617      28.343474    
     99200   198.4          270.57635      133852.85     -807632.15     -304.48545      0.36308122     0.057346943    29.181384      27.993496    
     99210   198.42         275.94296      133651.25     -807632.05     -305.3765       0.36309334     0.057512845    29.183804      27.64352     
     99220   198.44         277.83882      132571.6      -807635.5      -302.34225      0.36310532     0.056939513    29.147108      27.293548    
     99230   198.46         275.75708      132320.63     -807634.83     -302.76988      0.36311715     0.057018188    29.147915      26.943578    
     99240   198.48         278.77836      132305.29     -807634.9      -303.26507      0.36312885     0.057109605    29.141069      26.593609    
     99250   198.5          268.13974      133564.9      -807631.4      -305.31213      0.3631404      0.05749327     29.106171      26.243645    
     99260   198.52         286.14462      131568.95     -807637.05     -302.20827      0.3631518      0.056906995    29.090891      25.893684    
     99270   198.54         272.13909      133406.21     -807633.93     -303.4057       0.36316306     0.057130705    29.120195      25.543722    
     99280   198.56         277.98883      132815.98     -807632.85     -305.41708      0.36317418     0.057507684    29.141935      25.193759    
     99290   198.58         270.5179       133391.95     -807632.25     -305.00893      0.36318516     0.057429096    29.120497      24.843799    
     99300   198.6          274.28132      132536.25     -807635.51     -302.26571      0.36319599     0.056910886    29.116008      24.49384     
     99310   198.62         283.76187      131917.32     -807636.27     -302.81073      0.36320668     0.057011826    29.111669      24.143884    
     99320   198.64         272.72873      132593.39     -807633.29     -304.31773      0.36321723     0.057293893    29.123855      23.793928    
     99330   198.66         282.32342      131946.29     -807635.17     -303.79932      0.36322763     0.057194655    29.084012      23.443976    
     99340   198.68         270.42647      132926.83     -807633.98     -303.19978      0.36323789     0.057080169    29.073778      23.094026    
     99350   198.7          277.21052      132308.42     -807634.97     -303.21168      0.36324801     0.057080819    29.082181      22.744077    
     99360   198.72         264.91747      134382.89     -807630.13     -306.27307      0.36325798     0.057655556    29.113392      22.394127    
     99370   198.74         272.15057      132558.7      -807632.66     -304.74317      0.36326781     0.057366002    29.14372       22.044176    
     99380   198.76         276.63912      133711.46     -807634.65     -303.17083      0.3632775      0.057068497    29.075035      21.694231    
     99390   198.78         274.22937      131455.58     -807635.19     -302.1735       0.36328704     0.056879266    29.068365      21.344288    
     99400   198.8          282.98251      133383.88     -807633.2      -305.20342      0.36329644     0.057448114    29.113362      20.994343    
     99410   198.82         280.68364      130931.98     -807635.29     -302.61348      0.3633057      0.056959161    29.151095      20.644396    
     99420   198.84         282.06626      132842.96     -807634.73     -302.99752      0.36331481     0.057030016    29.109071      20.294454    
     99430   198.86         277.41719      131566.09     -807633.95     -303.02968      0.36332378     0.057034661    29.120118      19.944512    
     99440   198.88         276.65042      135503.62     -807629.64     -306.86136      0.36333261     0.057754436    29.095064      19.594574    
     99450   198.9          280.22076      132949.08     -807632.19     -304.65526      0.36334129     0.057337855    29.130812      19.244634    
     99460   198.92         287.41596      134915.24     -807633.53     -303.93605      0.36334983     0.057201152    29.109905      18.894697    
     99470   198.94         287.25998      132078.85     -807634.25     -303.07692      0.36335823     0.057038143    29.052263      18.544765    
     99480   198.96         277.86973      134160.54     -807630.32     -305.41837      0.36336648     0.057477491    29.084946      18.194832    
     99490   198.98         296.2664       130010.59     -807636.43     -301.75616      0.3633746      0.056787022    29.132353      17.844897    
     99500   199            291.32459      132834.31     -807635.13     -302.06241      0.36338256     0.05684341     29.09857       17.494966    
     99510   199.02         283.20253      132153.5      -807632.86     -9704.2127      0.36339039     0.057066917    29.02439       17.14504     
     99520   199.04         289.83659      134875.3      -807630.83     -9793.4582      0.36339807     0.05759052     29.00336       16.795117    
     99530   199.06         287.47003      133559.77     -807632.82     -9719.2845      0.3634056      0.057153155    29.041433      16.445192    
     99540   199.08         283.30518      134649.8      -807631.56     -9738.5864      0.363413       0.057265493    28.985352      16.095272    
     99550   199.1          282.4339       132714.9      -807631.66     -9731.5757      0.36342025     0.057223126    28.970251      15.745353    
     99560   199.12         292.13087      132793.71     -807632.8      -9737.5595      0.36342736     0.057257192    28.957724      15.395436    
     99570   199.14         290.15345      131554.53     -807634.72     -9668.2809      0.36343432     0.056848742    28.977069      15.045519    
     99580   199.16         291.29776      132390.09     -807635.12     -9660.2864      0.36344114     0.056800669    28.992759      14.695603    
     99590   199.18         289.86665      132475.5      -807633.79     -9698.3653      0.36344782     0.057023519    29.062347      14.345683    
     99600   199.2          285.69133      132732.92     -807631.74     -9749.097       0.36345435     0.057320775    29.040155      13.995766    
     99610   199.22         289.02266      134265.2      -807632.97     -9726.0639      0.36346074     0.057184345    29.070944      13.645849    
     99620   199.24         288.93114      132865.17     -807632.92     -9732.7735      0.36346699     0.05722281     29.035414      13.295935    
     99630   199.26         278.73729      134044.19     -807629.86     -9790.2226      0.3634731      0.057559609    29.04406       12.946021    
     99640   199.28         285.48654      132573.4      -807632.74     -9735.522       0.36347906     0.057237069    29.04627       12.596108    
     99650   199.3          290.58725      132691.83     -807634.2      -9715.8102      0.36348487     0.057120266    29.036727      12.246197    
     99660   199.32         279.82918      131700.64     -807634.41     -9669.9243      0.36349055     0.05684961     29.045663      11.896286    
     99670   199.34         290.53391      132697.26     -807634.42     -9722.1869      0.36349608     0.057155993    29.09306       11.546375    
     99680   199.36         274.61157      131424.05     -807633.49     -9690.3655      0.36350147     0.056968073    29.089318      11.196465    
     99690   199.38         286.29335      133386.84     -807634.21     -9725.3029      0.36350671     0.05717264     29.099114      10.846557    
     99700   199.4          282.18451      132427.39     -807633.31     -9744.5867      0.36351181     0.0572852      29.085318      10.496649    
     99710   199.42         279.20213      134284.47     -807631.43     -9797.5788      0.36351677     0.057595938    29.111888      10.146742    
     99720   199.44         273.10574      134150.39     -807632.11     -9754.2762      0.36352158     0.057340621    29.057782      9.7968386    
     99730   199.46         283.4434       133043.26     -807635.1      -9707.799       0.36352625     0.057066671    29.009165      9.4469376    
     99740   199.48         282.32308      132531.02     -807635        -9711.5195      0.36353078     0.05708783     29.010782      9.0970375    
     99750   199.5          276.32292      132210.22     -807633.58     -9733.9769      0.36353516     0.057219154    29.057747      8.747137     
     99760   199.52         278.21717      132094.24     -807635.02     -9698.3171      0.3635394      0.05700887     29.038823      8.3972382    
     99770   199.54         276.01155      132262.29     -807634.97     -9693.4679      0.3635435      0.056979723    29.048079      8.0473403    
     99780   199.56         285.85058      132897.31     -807634.51     -9753.2635      0.36354745     0.057330588    29.058106      7.6974433    
     99790   199.58         277.27343      133288.9      -807633.13     -9760.5263      0.36355126     0.057372677    29.046558      7.3475477    
     99800   199.6          274.61464      133249.64     -807633.02     -9754.1487      0.36355493     0.057334611    29.027873      6.9976537    
     99810   199.62         275.33573      133333.85     -807633.88     -9728.8277      0.36355845     0.057185221    28.976712      6.6477619    
     99820   199.64         282.62795      132037.41     -807634.78     -9733.9128      0.36356183     0.057214579    29.055465      6.2978694    
     99830   199.66         281.51312      132644.77     -807634.29     -9743.7538      0.36356507     0.057271913    29.071824      5.9479777    
     99840   199.68         277.09688      132292.99     -807634.62     -9714.8326      0.36356816     0.057101434    29.030345      5.598088     
     99850   199.7          275.71475      133002.91     -807634.76     -9703.0188      0.36357111     0.057031532    29.012575      5.2481997    
     99860   199.72         271.92174      132328.65     -807633.28     -9733.2908      0.36357392     0.057209021    29.029698      4.8983121    
     99870   199.74         274.2703       132992.72     -807632.9      -9755.9694      0.36357658     0.057341898    29.095336      4.5484246    
     99880   199.76         281.92464      132536.77     -807634.61     -9733.9603      0.3635791      0.05721214     29.048868      4.1985391    
     99890   199.78         274.65653      134064.35     -807633.1      -9747.1861      0.36358148     0.057289502    29.041945      3.8486547    
     99900   199.8          281.66079      133116.74     -807634.06     -9748.0024      0.36358371     0.057293948    29.057982      3.4987713    
     99910   199.82         271.84142      133827.06     -807632        -9767.273       0.3635858      0.057406881    29.105858      3.1488884    
     99920   199.84         291.01872      131245.14     -807637.01     -9691.0315      0.36358775     0.056958469    29.088556      2.7990071    
     99930   199.86         279.91224      132789.82     -807634.8      -9708.7012      0.36358955     0.057062038    29.058466      2.4491272    
     99940   199.88         271.78135      131608.92     -807633.71     -9708.8596      0.36359121     0.057062709    29.067793      2.0992483    
     99950   199.9          284.63812      132953.41     -807633.92     -9755.3237      0.36359273     0.057335557    29.048762      1.7493708    
     99960   199.92         279.40855      132299.12     -807634.89     -9700.0479      0.3635941      0.057010466    28.997269      1.3994946    
     99970   199.94         277.98466      134403.39     -807632.76     -9758.1327      0.36359533     0.057351656    28.973428      1.0496196    
     99980   199.96         275.65677      132808.36     -807632.24     -9764.3687      0.36359641     0.057388136    28.971007      0.69974543   
     99990   199.98         279.65736      133908.03     -807632.22     -9777.6443      0.36359736     0.057466011    29.027314      0.34987218   
    100000   200            279.58733      131889.1      -807634.49     -9703.5984      0.36359816     0.057030697    29.002267      0            
Loop time of 3498.72 on 32 procs for 100000 steps with 1080 atoms

Performance: 4.939 ns/day, 4.859 hours/ns, 28.582 timesteps/s, 30.868 katom-step/s
62.4% CPU use with 32 MPI tasks x 1 OpenMP threads

MPI task timing breakdown:
Section |  min time  |  avg time  |  max time  |%varavg| %total
---------------------------------------------------------------
Pair    | 2492.8     | 2809.8     | 3313.7     | 333.7 | 80.31
Neigh   | 0.00082246 | 0.00089796 | 0.0011052  |   0.0 |  0.00
Comm    | 112.21     | 615.84     | 933.14     | 712.6 | 17.60
Output  | 2.3321     | 2.3389     | 2.3445     |   0.2 |  0.07
Modify  | 64.202     | 64.702     | 65.119     |   3.9 |  1.85
Other   |            | 6.058      |            |       |  0.17

Nlocal:          33.75 ave          42 max          28 min
Histogram: 2 3 9 2 4 7 0 4 0 1
Nghost:        1030.16 ave        1043 max        1014 min
Histogram: 1 1 2 4 6 5 4 4 2 3
Neighs:              0 ave           0 max           0 min
Histogram: 32 0 0 0 0 0 0 0 0 0
FullNghs:      5353.88 ave        6733 max        4385 min
Histogram: 2 3 7 4 5 6 1 3 0 1

Total # of neighbors = 171324
Ave neighs/atom = 158.63333
Neighbor list builds = 2
Dangerous builds = 0

Total wall time: 1:01:46
