
units		metal
atom_style	atomic

read_data ${STRUCTURE}.data
read_data BaTiO3-sc333.data
Reading data file ...
  orthogonal box = (0 0 0) to (11.898253 11.898253 12.912076)
  2 by 4 by 4 MPI processor grid
  reading atoms ...
  135 atoms
  read_data CPU = 0.006 seconds
replicate $L $L $L
replicate 2 $L $L
replicate 2 2 $L
replicate 2 2 2
Replication is creating a 2x2x2 = 8 times larger system...
  orthogonal box = (0 0 0) to (23.796507 23.796507 25.824152)
  2 by 4 by 4 MPI processor grid
  1080 atoms
  replicate CPU = 0.003 seconds

pair_style allegro
pair_coeff	* * ${MODEL}.pth Ba Ti O
pair_coeff	* * BaTiO3-E0.pth Ba Ti O
mass 1 137.3
mass 2 47.9
mass 3 15.9994

timestep 0.002
compute polarization all allegro polarization 3
compute allegro will evaluate the quantity polarization of length 3 (src/compute_allegro.cpp:53)
compute polarizability all allegro polarizability 9
compute allegro will evaluate the quantity polarizability of length 9 (src/compute_allegro.cpp:53)

thermo_style custom pe fmax fnorm spcpu cpuremain

variable efield equal 1e-2*36.36
fix born all addbornforce 0.0 0.0 ${efield}
fix born all addbornforce 0.0 0.0 0.3636

thermo 10
min_style fire
#minimize 0.0 1e-6 100 100
velocity all create ${TEMP} ${SEED} dist gaussian rot yes mom yes
velocity all create 350 ${SEED} dist gaussian rot yes mom yes
velocity all create 350 11159 dist gaussian rot yes mom yes
fix nvt all nvt temp ${TEMP} ${TEMP} $(100*dt)
fix nvt all nvt temp 350 ${TEMP} $(100*dt)
fix nvt all nvt temp 350 350 $(100*dt)
fix nvt all nvt temp 350 350 0.2000000000000000111
run 5000
Neighbor list info ...
  update: every = 1 steps, delay = 0 steps, check = yes
  max neighbors/atom: 2000, page size: 100000
  master list distance cutoff = 8
  ghost atom cutoff = 8
  binsize = 8, bins = 3 3 4
  1 neighbor lists, perpetual/occasional/extra = 1 0 0
  (1) pair allegro/kk, perpetual
      attributes: full, newton on, kokkos_device
      pair build: full/bin/kk/device
      stencil: full/bin/3d
      bin: kk/device
Per MPI rank memory allocation (min/avg/max) = 3.516 | 3.516 | 3.516 Mbytes
    PotEng          Fmax          Fnorm          S/CPU         CPULeft    
-807708.29      1.5953514      37.043432      0              0            
-807643.56      3.3597684      45.339642      2.145492       2325.808     
-807631.92      2.5153315      35.876783      25.862284      1256.8526    
-807604.28      3.2036105      37.64099       25.866264      900.26652    
-807599.41      4.4282542      50.925855      25.803595      721.89671    
-807566.31      4.2253748      42.10281       25.799685      614.72558    
-807601.51      3.0546139      40.033762      25.84204       543.09666    
-807645.72      4.0881322      35.75048       25.8273        491.83817    
-807680.58      2.9761132      36.080498      25.791139      453.33083    
-807665.59      3.4615075      35.722402      25.795195      423.29122    
-807648.96      4.3556761      36.835054      25.858832      399.13524    
-807656.87      2.8672978      30.218508      25.857795      379.30164    
-807621.85      3.281836       33.593744      25.827268      362.72777    
-807581.92      3.6067053      42.473348      25.830977      348.64208    
-807564.94      3.7465814      40.647363      25.853911      336.50141    
-807630.26      3.3537778      35.180671      25.834873      325.93713    
-807650.71      3.3995656      34.203545      25.816995      316.65312    
-807662.91      2.8998455      36.088341      25.837577      308.407      
-807641.43      4.5797943      47.171724      25.853397      301.02777    
-807676.36      2.8617377      37.446284      25.817786      294.3981     
-807637.67      3.5790217      40.994108      25.782538      288.40537    
-807613.05      2.9324946      40.285305      25.865559      282.91804    
-807557.2       4.3253978      46.718693      25.876352      277.89091    
-807601.75      4.5749676      49.794867      25.830007      273.2817     
-807611.79      4.4798722      40.086089      25.76157       269.04472    
-807639.39      3.1486984      36.66284       25.837983      265.09383    
-807640.59      5.4517022      45.840663      25.863998      261.40999    
-807677.56      3.0331728      38.773775      25.826816      257.98015    
-807662.15      3.2512338      35.643319      25.783703      254.77854    
-807633.12      3.1057554      34.235944      25.866124      251.75091    
-807604.1       3.3978413      36.207175      25.877601      248.89668    
-807599.5       3.9831171      43.193607      25.843467      246.20937    
-807595.15      3.6631291      39.212584      25.754853      243.68531    
-807605.42      4.30973        35.018698      25.836852      241.27325    
-807640.58      3.2441961      31.747622      25.847728      238.97807    
-807669.04      3.8736692      33.558283      25.823054      236.79686    
-807673.88      2.8893838      34.354096      25.776422      234.72433    
-807641.49      4.4287597      39.424267      25.870533      232.72521    
-807643.54      2.6665855      32.15075       25.864313      230.81209    
-807617.49      3.6360831      35.72563       25.858325      228.97831    
-807598.2       3.9880368      44.863858      25.797497      227.22736    
-807567.26      4.4527744      43.125753      25.855164      225.53324    
-807619.93      2.9672594      37.076985      25.873137      223.89845    
-807647.3       4.1117818      36.445111      25.806504      222.33232    
-807668.53      3.0135856      37.10257       25.772854      220.82501    
-807641.44      4.724151       46.158475      25.843656      219.3567     
-807661.44      3.7022012      36.399581      25.868472      217.93174    
-807642.54      3.7225252      36.458327      25.829888      216.55654    
-807620.8       3.3803119      38.847188      25.85599       215.21882    
-807563.29      4.238366       43.778258      25.880129      213.9166     
-807595.97      3.8056487      42.999234      25.866042      212.6529     
-807620.53      3.1281999      36.629777      25.796754      211.43274    
-807652.66      3.1968479      33.974417      25.832339      210.24       
-807639.9       4.4765541      41.596459      25.864888      209.07355    
-807665.6       3.1900327      36.148682      25.869842      207.93538    
-807662.38      3.661635       35.008587      25.778213      206.83565    
-807640.24      2.9077165      33.312761      25.836497      205.75441    
-807597.45      3.3888705      36.915223      25.887269      204.69162    
-807590.81      3.3195759      39.141429      25.889188      203.65194    
-807600.9       3.9887585      41.634865      25.799659      202.64443    
-807615.74      3.0774098      34.201454      25.843189      201.6528     
-807633.72      3.2621156      34.056893      25.876186      200.67744    
-807656.07      3.0475959      35.671088      25.846333      199.72423    
-807671.02      2.8151069      36.694511      25.738709      198.80023    
-807644.27      4.0377987      38.628847      25.777647      197.88895    
-807630.28      2.9744324      34.966081      25.796033      196.99193    
-807610.04      3.516544       36.382835      25.841067      196.10591    
-807600.3       4.0825746      45.950534      25.802537      195.23851    
-807578.97      3.8981428      42.066526      25.810584      194.38446    
-807609.15      4.1010639      38.613789      25.871884      193.5382     
-807638.82      4.3651347      38.027448      25.843003      192.70773    
-807668.15      2.9377866      37.765769      25.779754      191.89549    
-807647.47      4.8200798      41.809672      25.743776      191.09826    
-807647.13      3.3016116      36.87229       25.776195      190.30937    
-807638.93      4.1893516      35.994512      25.766268      189.53218    
-807621.26      3.7065086      39.000553      25.793919      188.763      
-807577.52      3.4758828      40.542795      25.833509      188.00055    
-807583.46      3.0356319      41.322925      25.878585      187.24415    
-807620.6       3.2103639      34.558704      25.856527      186.49901    
-807652.29      2.802151       32.973564      25.83756       185.76447    
-807647.68      3.6764029      36.411926      25.838647      185.03852    
-807651.63      3.406634       36.892223      25.708572      184.33107    
-807659.55      3.1011739      34.434049      25.780492      183.62586    
-807641.94      3.925799       33.224944      25.792785      182.92736    
-807604.7       3.1960121      36.609731      25.829688      182.23353    
-807580.63      4.0275457      41.2116        25.885416      181.54284    
-807598.76      4.002734       41.72045       25.858764      180.86114    
-807621.13      4.9849686      36.617707      25.790499      180.19108    
-807635.38      3.9723407      36.530258      25.875559      179.52148    
-807645.49      5.302163       39.711546      25.867668      178.85878    
-807665.56      3.2278929      37.978455      25.791052      178.20745    
-807651.81      4.2043815      36.706709      25.784178      177.56237    
-807629.04      3.2446577      35.408261      25.844994      176.91884    
-807602.16      4.1816698      37.584909      25.884601      176.27824    
-807600.8       3.9485418      43.314791      25.803169      175.64831    
-807590.77      3.5612563      39.566271      25.782832      175.0248     
-807611.79      3.3487384      36.153991      25.826152      174.40345    
-807633.03      4.7558009      37.017872      25.85747       173.78498    
-807663.94      3.196347       35.949146      25.792729      173.17522    
-807655.12      4.0008408      38.2034        25.737256      172.57333    
-807645.47      3.6459014      36.58987       25.845134      171.96923    
-807629.56      4.0520226      36.657115      25.881747      171.36726    
-807620.49      3.2596791      37.322388      25.88025       170.7696     
-807590.87      3.1614732      40.801154      25.850528      170.17776    
-807586.46      3.0676017      39.872188      25.85332       169.58971    
-807616.32      3.0542002      35.284342      25.78787       169.00918    
-807649.81      3.4814842      34.035684      25.776111      168.43294    
-807655.57      3.6836311      35.662568      25.763343      167.86093    
-807646.79      4.0530439      37.779018      25.787712      167.291      
-807652.07      3.4113423      34.183765      25.813697      166.723      
-807639.75      2.436247       33.211105      25.855934      166.15605    
-807613.99      2.9792302      36.32912       25.806671      165.59493    
-807580.86      2.7611316      39.499154      25.873226      165.03345    
-807601.41      3.2163291      38.152379      25.837239      164.47692    
-807625.09      3.0913415      35.388149      25.846725      163.92288    
-807646.13      3.097113       34.688843      25.797985      163.3742     
-807640.16      4.3142423      40.570234      25.823869      162.827      
-807659.65      3.0326985      36.095929      25.823995      162.28253    
-807650.14      3.9609597      37.550501      25.796085      161.74209    
-807632.71      2.9535838      35.464705      25.858904      161.20119    
-807598.15      4.063735       38.013016      25.843366      160.66361    
-807597.81      4.4342945      40.57186       25.851005      160.12815    
-807602.93      4.2200701      37.515884      25.811091      159.59699    
-807623.91      2.710999       34.558562      25.809239      159.06824    
-807633.42      5.3573935      36.425175      25.789631      158.54267    
-807656.8       2.9599219      35.175025      25.830485      158.01747    
-807655.9       3.5561869      36.510114      25.737737      157.49859    
-807644.87      4.0199843      35.677341      25.836721      156.9774     
-807622.1       4.4426211      36.118069      25.900236      156.45555    
-807610.99      3.8850228      36.956607      25.847243      155.93807    
-807597.24      3.8459308      41.077954      25.835057      155.42313    
-807597.81      3.3229849      39.06907       25.817951      154.91086    
-807615.23      3.9687503      36.891633      25.839719      154.39957    
-807643.83      3.2138481      35.555245      25.819785      153.89098    
-807656.09      3.3035054      37.360485      25.779262      153.38586    
-807646.02      4.1221432      38.81732       25.769987      152.88285    
-807639.22      3.4500845      35.843825      25.777796      152.38122    
-807630.95      4.5601541      35.48425       25.819627      151.87958    
-807613.51      3.352529       38.116954      25.836763      151.37893    
-807585.69      3.2928555      40.04369       25.810128      150.88095    
-807597.28      2.9342319      38.877748      25.82433       150.384      
-807624.28      3.5623428      35.100604      25.807978      149.88923    
-807647.98      4.1006986      35.603707      25.796308      149.39641    
-807641.95      3.6147527      39.183557      25.780376      148.90567    
-807648.02      3.5884036      37.614945      25.860016      148.4134     
-807644.02      4.2178952      36.466779      25.804853      147.9246     
-807632.49      3.4345697      35.928517      25.843142      147.43581    
-807597.84      3.8950935      38.56599       25.859619      146.94781    
-807592.81      3.9982107      39.711454      25.832419      146.46214    
-807604.72      3.8832595      38.03848       25.783649      145.97952    
-807630.28      2.795578       34.935963      25.781769      145.49823    
-807636.19      4.4556391      36.682426      25.783923      145.01811    
-807647.88      3.161753       36.304614      25.801379      144.5386     
-807651.88      3.1726153      37.203733      25.828737      144.05936    
-807644.62      2.8112639      35.788928      25.876995      143.57969    
-807619.63      3.513367       35.551273      25.890209      143.10078    
-807601.85      3.3831469      38.229076      25.89675       142.62285    
-807599.87      3.332789       39.306138      25.849819      142.14762    
-807608.74      4.1604423      37.946107      25.868439      141.67291    
-807621.67      3.9431393      35.256028      25.899884      141.1983     
-807640.26      4.1073005      36.211868      25.865626      140.72588    
-807655.05      4.2142231      36.680094      25.799631      140.25661    
-807649.04      3.6768164      37.335965      25.804304      139.7882     
-807636.26      3.9790113      36.581134      25.857022      139.31915    
-807621.45      4.5438623      36.239348      25.828257      138.85198    
-807612.27      3.8053814      38.064105      25.812487      138.38627    
-807594.93      4.1456776      39.108591      25.816661      137.92137    
-807607.17      3.2575328      36.510502      25.829758      137.45701    
-807624.39      4.2070907      35.324969      25.815884      136.99398    
-807649.46      3.0456773      35.200914      25.853992      136.53073    
-807647.16      5.5527029      37.688162      25.842098      136.06873    
-807644.93      3.7175572      37.267581      25.859698      135.60709    
-807638.37      4.8067325      36.607646      25.870739      135.14601    
-807627.5       3.1647234      36.276288      25.863739      134.68599    
-807601.92      4.548855       39.433706      25.896896      134.22589    
-807594.2       3.440728       40.463722      25.867593      133.76744    
-807607.82      4.2350746      37.603904      25.848349      133.31034    
-807633.65      4.0008953      35.668818      25.821136      132.85478    
-807642.3       3.9517015      35.988946      25.775257      132.40123    
-807645.68      4.2562883      37.768646      25.840685      131.94665    
-807646.74      2.9798255      36.026592      25.812021      131.49359    
-807640.74      3.160481       35.084925      25.738366      131.04321    
-807619.51      2.8742155      36.035486      25.818524      130.5914     
-807596.71      3.3687964      38.5383        25.808304      130.14056    
-807600.41      3.3182891      39.152601      25.849632      129.68934    
-807613.21      3.6938658      37.125038      25.824465      129.23947    
-807629.51      3.4629662      36.005484      25.840269      128.78986    
-807637.29      4.1115389      37.264511      25.853908      128.34059    
-807648.96      3.2281381      37.110211      25.823706      127.89273    
-807644.59      4.3111489      37.745671      25.824093      127.4455     
-807632.9       3.3648487      36.239623      25.814134      126.99915    
-807610.12      3.8249483      38.373988      25.823483      126.55318    
-807604.58      3.6814287      39.394559      25.811114      126.10813    
-807597.69      4.1602833      40.010424      25.783273      125.66434    
-807612.91      4.1525075      37.880009      25.842583      125.21972    
-807625.12      4.1720593      37.401335      25.866178      124.77514    
-807643.88      3.3141806      37.348911      25.867285      124.33113    
-807646.19      3.7750784      38.633594      25.847368      123.88816    
-807642.26      4.0988132      37.836266      25.877565      123.44507    
-807627.41      3.6225152      37.272498      25.870781      123.0027     
-807619.87      3.557539       37.191782      25.839123      122.56159    
-807602.87      3.5430594      39.198849      25.843045      122.12094    
-807599.98      3.4718304      39.145575      25.868005      121.68027    
-807610.85      3.1314186      37.136448      25.879357      121.23989    
-807634.84      4.127005       35.79296       25.871636      120.8002     
-807640.78      4.0873179      37.600799      25.84513       120.3616     
-807644.06      3.8165698      38.274577      25.837178      119.92367    
-807638.91      3.6465939      37.93454       25.863818      119.48567    
-807633.7       3.2280167      36.103548      25.854099      119.04837    
-807617.98      3.2926441      36.970472      25.830401      118.61204    
-807599.27      4.0856605      39.72228       25.839286      118.176      
-807602.24      3.6093276      38.949713      25.882308      117.73954    
-807616.85      3.4505766      37.827921      25.86836       117.30384    
-807636.07      4.4167192      35.842147      25.804658      116.86989    
-807638.55      4.4427792      37.939994      25.842219      116.43561    
-807645.82      3.4285218      36.943598      25.847061      116.00169    
-807643.16      3.2985938      36.343705      25.835346      115.56842    
-807633.64      3.1800574      35.431975      25.839412      115.13551    
-807611.03      2.7396959      36.409435      25.854729      114.70271    
-807605.2       3.3883         37.619563      25.856156      114.27031    
-807604.11      3.5378334      38.108464      25.819075      113.83904    
-807621.08      3.3784152      36.190768      25.86403       113.40731    
-807630.43      3.5546515      36.000164      25.873616      112.97581    
-807644.71      3.4434434      36.440406      25.852435      112.5451     
-807647.53      3.3280059      36.453252      25.829774      112.1152     
-807641.96      3.0036142      35.668468      25.821482      111.68584    
-807625.15      3.6817484      36.552654      25.824276      111.2568     
-807611.45      3.1186881      36.795047      25.83428       110.82795    
-807602.72      3.5683778      38.925947      25.860559      110.39899    
-807607.61      3.2341829      37.859901      25.838173      109.9708     
-807618.53      3.6394122      36.04815       25.893006      109.542      
-807635.53      3.1328708      35.200213      25.874247      109.1139     
-807648.12      3.2401834      35.28353       25.844059      108.68668    
-807644.31      3.6872287      36.563643      25.848738      108.25973    
-807637.7       3.4736863      35.997352      25.807055      107.83383    
-807624.73      3.6955075      36.756536      25.835269      107.40777    
-807613.18      3.7240929      37.724961      25.866366      106.98153    
-807601.12      2.763904       38.536183      25.861461      106.55571    
-807607.1       3.7243339      38.617659      25.8755        106.12998    
-807621.08      3.5157959      35.533911      25.865824      105.70474    
-807640.22      3.5371858      35.394859      25.882694      105.27954    
-807641.78      4.0200918      37.171064      25.797276      104.85605    
-807642.02      3.2642022      36.951319      25.768222      104.43331    
-807634.76      3.6793644      36.53433       25.72524       104.01155    
-807630.09      2.8509005      35.64284       25.759326      103.58952    
-807608.04      3.3631336      37.565257      25.80179       103.1671     
-807601.55      3.2256307      39.08309       25.80153       102.74497    
-807607.95      3.3912156      37.722681      25.795826      102.3232     
-807626.32      4.5841193      36.363521      25.831335      101.90117    
-807634.77      3.5631516      36.360986      25.805306      101.47981    
-807642.3       4.1484167      37.197005      25.83071       101.05835    
-807642.54      3.0577145      36.981439      25.816975      100.63735    
-807640.15      3.0306951      35.716838      25.841731      100.21627    
-807622.78      3.0468657      35.867441      25.822143      99.795735    
-807604.3       3.4364068      38.758746      25.877895      99.374657    
-807602.51      3.4628005      39.121674      25.861578      98.954085    
-807609.78      3.3984601      37.832611      25.87111       98.533642    
-807620.99      3.1211677      37.27469       25.866633      98.113526    
-807633.65      3.9383709      37.168337      25.883247      97.693437    
-807642.94      4.8298442      36.524081      25.783758      97.274996    
-807642.12      3.2753483      36.993514      25.766363      96.857032    
-807632.44      3.1529783      36.377153      25.762385      96.439351    
-807618.57      3.6157704      36.590675      25.830799      96.020963    
-807605.52      3.3171393      38.132977      25.789865      95.603365    
-807603.02      3.6034141      38.989901      25.744167      95.186609    
-807608.94      3.5438752      37.566848      25.800461      94.769315    
-807621.39      3.8921504      36.809571      25.854279      94.351535    
-807636.99      3.1146851      36.183948      25.839204      93.934183    
-807642.79      3.5527978      36.891649      25.796012      93.51762     
-807641.46      3.0454223      36.571491      25.752191      93.101837    
-807629.14      4.0189209      36.729051      25.833577      92.685216    
-807622.62      3.4640644      35.817822      25.833269      92.268817    
-807606.47      3.4714945      38.127981      25.8126        91.852892    
-807601.88      3.1998785      38.806023      25.794232      91.437407    
-807608.72      3.6412469      37.729177      25.837278      91.021592    
-807627.97      2.8571632      35.895896      25.897628      90.605246    
-807637.83      3.9050235      36.698309      25.849079      90.18971     
-807642.67      4.169145       35.984493      25.844507      89.774436    
-807638.6       2.988099       36.268975      25.853653      89.359256    
-807635.2       3.2300798      35.802723      25.864086      88.944155    
-807619.82      3.3351321      35.714691      25.902276      88.528811    
-807603.65      3.6785248      38.212277      25.865086      88.114107    
-807602.78      3.353996       36.953807      25.873555      87.699505    
-807615.19      3.0381723      36.708907      25.852351      87.285344    
-807629.41      3.3916781      35.498812      25.842426      86.87149     
-807638.95      2.7226475      35.190548      25.82887       86.457976    
-807642.64      3.9614662      36.293945      25.838444      86.04454     
-807641.91      3.058915       36.237936      25.827053      85.631415    
-807634.11      3.3653112      35.348252      25.8619        85.218086    
-807617.82      3.4095129      36.166992      25.86589       84.804897    
-807604.76      3.1833141      37.348836      25.863245      84.391921    
-807606.41      2.8474222      38.059994      25.827537      83.979509    
-807616.38      3.0960221      37.074848      25.818847      83.567363    
-807627.05      3.1898603      36.273446      25.847264      83.155086    
-807637         3.1641274      36.495296      25.831004      82.743152    
-807645.43      3.836043       35.339102      25.83987       82.331294    
-807641.41      2.792573       35.468334      25.802641      81.919989    
-807630.83      3.0660877      34.994943      25.830692      81.508556    
-807617.3       2.8416075      35.207686      25.836154      81.09723     
-807609.16      3.0606992      36.739096      25.789414      80.686539    
-807609.18      3.5468409      37.29152       25.786888      80.276026    
-807614.06      3.2125045      36.708959      25.842226      79.865114    
-807629.99      3.3717456      36.258474      25.851445      79.454271    
-807640.94      3.1702105      35.669607      25.829816      79.043797    
-807644.85      2.7618078      35.881332      25.786043      78.6339      
-807637.71      3.6662813      36.65296       25.785801      78.22415     
-807630.44      2.5570141      35.036481      25.840994      77.814019    
-807615.45      3.3514719      37.268205      25.829825      77.404143    
-807608.45      3.1145793      37.830215      25.789108      76.994796    
-807605.47      3.1544054      37.913476      25.76633       76.585801    
-807618.75      3.6578079      36.864307      25.822404      76.176424    
-807633.04      3.0345029      35.558642      25.830058      75.76712     
-807641.61      4.0983278      36.610453      25.817692      75.358069    
-807640.36      4.0351126      37.027283      25.831158      74.949037    
-807636.89      4.5004956      36.296625      25.843224      74.540036    
-807628.37      2.9119845      35.743144      25.834625      74.131252    
-807614.64      3.4861206      37.121389      25.801246      73.722896    
-807604.16      2.8561648      37.693092      25.857519      73.314185    
-807610.77      3.2931151      36.460364      25.869568      72.905509    
-807622.57      2.9962156      35.774824      25.863703      72.497021    
-807633.79      2.8689144      35.690521      25.798773      72.089217    
-807638.71      2.7267756      36.136414      25.791398      71.6816      
-807642.43      3.9112429      35.978123      25.786428      71.274149    
-807635.79      2.8060027      35.325268      25.791932      70.866774    
-807624.25      4.7224701      36.701092      25.810902      70.459365    
-807610.37      3.3749499      36.804546      25.852136      70.051747    
-807603.7       3.2366203      38.601848      25.833334      69.644406    
-807612.35      3.013196       37.297992      25.812628      69.237354    
-807620.61      3.0776473      36.410124      25.816352      68.830392    
-807632.83      3.4055662      36.022383      25.80299       68.423653    
-807638.72      3.4454146      36.94076       25.816649      68.016926    
-807640.86      2.7665647      36.336716      25.840425      67.610133    
-807633.06      3.4971023      36.719031      25.811758      67.203677    
-807622.41      2.9431176      36.096761      25.8161        66.797303    
-807608.94      3.7709088      38.115376      25.812526      66.391069    
-807608.23      3.8633531      37.87063       25.837656      65.984762    
-807607.84      4.1834495      37.743726      25.831726      65.578613    
-807623.5       3.2094333      35.683752      25.893722      65.172129    
-807632.08      4.0090459      36.58961       25.824379      64.766262    
-807642.08      2.7685715      35.491129      25.821333      64.360526    
-807637.63      3.4719663      36.267456      25.805715      63.95501     
-807633.85      2.656492       34.790499      25.786005      63.549737    
-807620.6       3.67405        36.450066      25.816659      63.144354    
-807613.04      3.1874927      37.007621      25.8224        62.739036    
-807607.05      3.2076568      36.887901      25.828134      62.333784    
-807612.56      4.2153404      36.711673      25.826517      61.928648    
-807625.3       2.7649819      35.440456      25.79789       61.523807    
-807636.66      3.4479839      36.049078      25.772499      61.119233    
-807638.89      3.7565318      36.411002      25.804859      60.714543    
-807638.34      3.1328333      35.8465        25.853387      60.309636    
-807631.87      3.4840938      36.626254      25.877862      59.904675    
-807621.61      3.323652       36.724821      25.832281      59.500109    
-807611.17      3.512726       37.341729      25.829117      59.095663    
-807606.24      3.3323351      38.502373      25.828138      58.691321    
-807616.05      3.065267       37.373335      25.81254       58.287172    
-807628.49      2.5744206      35.560795      25.82942       57.883014    
-807636.56      3.1765978      35.77798       25.817399      57.479024    
-807640.21      3.2148059      36.227232      25.829224      57.075057    
-807640.25      3.7761         35.454788      25.813675      56.671276    
-807632.14      3.8152836      35.677352      25.846013      56.267397    
-807621.43      3.369554       35.400444      25.801116      55.863873    
-807607.54      3.9071194      37.760567      25.811488      55.460377    
-807610.77      3.7059867      37.465443      25.832574      55.05685     
-807616.69      3.0979732      36.562365      25.865665      54.653227    
-807627.93      3.3451772      35.492168      25.834686      54.24987     
-807634.59      3.9855826      36.345843      25.870218      53.846405    
-807640.69      2.9708564      36.390735      25.862197      53.443077    
-807639.24      3.1479715      37.094489      25.818668      53.040076    
-807629.95      3.600626       36.819937      25.838614      52.637053    
-807616.92      2.7382343      36.872705      25.840018      52.23411     
-807612.83      3.1397697      36.995071      25.815265      51.831382    
-807612.57      3.2549794      36.889046      25.840694      51.428606    
-807616.8       3.1990539      36.539962      25.823688      51.026001    
-807627.43      4.1435573      35.661631      25.817379      50.623512    
-807635.57      3.6680157      35.803148      25.794096      50.221222    
-807642.8       3.337819       35.66492       25.786547      49.819046    
-807634         3.4831512      36.737495      25.788804      49.416936    
-807628.11      3.3138336      35.737227      25.806197      49.014817    
-807619.57      3.2715379      35.821252      25.846338      48.612581    
-807612.43      3.3571176      37.480308      25.810816      48.210596    
-807609.12      3.1111925      37.179741      25.809421      47.808694    
-807618.33      2.9846535      37.059069      25.827256      47.406785    
-807627.81      3.8289754      36.207285      25.832218      47.004929    
-807637.08      2.9210409      36.292132      25.840531      46.603113    
-807636.98      4.2325215      37.193511      25.833388      46.201406    
-807634.11      3.0518952      36.487623      25.802398      45.799913    
-807626.86      4.1366723      36.357532      25.794742      45.398528    
-807616.77      2.7831512      36.896311      25.812259      44.997136    
-807609.76      3.9013898      37.183031      25.793185      44.595898    
-807609.31      3.9930945      38.113786      25.838852      44.194535    
-807619.24      3.8868709      36.940807      25.816946      43.793338    
-807631.31      3.8202036      37.141083      25.837146      43.392128    
-807633.81      3.3562759      37.072245      25.827675      42.991029    
-807638.23      3.0420083      35.583747      25.799194      42.590117    
-807634.46      4.06283        35.918022      25.729218      42.189556    
-807625.79      3.3556685      36.386232      25.738385      41.789019    
-807612.84      3.7671744      37.084278      25.807783      41.388268    
-807609         2.9326649      37.217045      25.82034       40.987535    
-807609.59      3.2036064      37.512087      25.805988      40.586924    
-807620.7       3.225043       36.604382      25.801593      40.186396    
-807627.47      3.374095       36.734159      25.834763      39.785809    
-807634.95      5.164195       36.822469      25.818673      39.385348    
-807636.82      3.5202958      36.466432      25.789784      38.985059    
-807631.87      4.0236049      37.571514      25.755228      38.584957    
-807624.41      3.0607102      36.75066       25.764353      38.184881    
-807612.7       4.0912968      37.763495      25.770141      37.784843    
-807610.84      3.7248283      37.977249      25.741786      37.384963    
-807612.72      4.815414       37.928137      25.785075      36.984991    
-807618.93      3.3725557      36.636588      25.838097      36.584899    
-807627.8       4.5265891      36.902368      25.812129      36.184957    
-807634.8       3.7463612      37.109007      25.813096      35.785073    
-807637.62      3.1426257      36.247674      25.805616      35.385274    
-807631.22      3.5598257      36.600035      25.818352      34.985494    
-807622.97      3.057705       35.818928      25.839561      34.585707    
-807618.73      4.2260614      36.844073      25.826916      34.186022    
-807612.35      2.7674012      37.043989      25.826874      33.786396    
-807614.24      3.4733938      36.367504      25.824279      33.386839    
-807620.81      3.2146038      36.520871      25.84415       32.987281    
-807633.7       3.0715601      35.997678      25.805764      32.587896    
-807634.71      3.5570613      36.635416      25.784276      32.188631    
-807635.58      4.3185602      36.313422      25.761948      31.789484    
-807628.4       3.2708793      37.364888      25.75149       31.390419    
-807626.29      3.1657811      35.784674      25.811454      30.991238    
-807615.33      4.0802872      37.269952      25.811161      30.592113    
-807612.9       3.1363697      37.166134      25.837677      30.192972    
-807615.32      3.9636393      36.931124      25.840536      29.793881    
-807625.91      2.9118701      36.041567      25.850706      29.39482     
-807632.54      3.0018971      36.228027      25.843063      28.995836    
-807635.46      3.8212013      36.260611      25.808048      28.596996    
-807637.21      3.3187247      35.903232      25.856392      28.19809     
-807630.47      3.214822       36.091403      25.837052      27.799287    
-807623.62      3.4807605      35.977063      25.821238      27.400577    
-807614.54      3.2766642      36.423997      25.848475      27.001855    
-807614.45      3.2395441      37.59453       25.844323      26.603198    
-807617.61      3.4875208      36.54307       25.811193      26.20467     
-807624.58      3.420162       36.794169      25.802937      25.806212    
-807631.45      3.7912101      36.510417      25.807951      25.407793    
-807637.8       2.7348523      34.757515      25.747054      25.009556    
-807636.35      4.1490056      34.900689      25.744998      24.611368    
-807631.74      3.0832277      34.755648      25.799422      24.213111    
-807620.7       4.1067067      35.837177      25.808174      23.814885    
-807616.84      3.5185208      36.156987      25.761799      23.4168      
-807614.94      3.593023       37.358668      25.798929      23.018687    
-807617.61      3.3811268      37.382763      25.83048       22.620561    
-807623.53      3.267002       36.525165      25.804169      22.222534    
-807634.28      3.4781819      36.054624      25.809193      21.824544    
-807635.42      3.456048       36.583931      25.783176      21.42665     
-807635.09      3.4506735      36.251347      25.761201      21.028839    
-807626.09      3.567253       36.561657      25.785688      20.631029    
-807621.25      2.9062693      36.549651      25.794235      20.233248    
-807614.67      3.3698097      38.193694      25.816191      19.835476    
-807613.46      4.5692204      37.088922      25.861613      19.437676    
-807616.08      2.9189412      37.265967      25.806513      19.040013    
-807628         3.2336656      36.450936      25.838237      18.642346    
-807633.82      3.0512272      36.042567      25.813767      18.244762    
-807632.34      3.2881332      36.797235      25.840279      17.847184    
-807630.99      3.2698155      36.602275      25.855846      17.44963     
-807627.07      3.0464588      37.345095      25.830345      17.052159    
-807619.73      3.5662613      37.226542      25.799469      16.654776    
-807613.65      3.1974946      37.593178      25.81003       16.257421    
-807612.65      3.9038472      38.190504      25.79272       15.860132    
-807618.43      3.0481993      37.256067      25.782312      15.462898    
-807629.12      3.654776       36.866657      25.804262      15.065677    
-807630.64      3.3905107      37.816086      25.775921      14.668532    
-807633.53      4.1331224      37.476741      25.786686      14.271414    
-807631.8       3.4289984      37.606087      25.797154      13.874325    
-807626.57      3.212729       36.915366      25.801686      13.477271    
-807619.17      3.2131447      37.546628      25.858381      13.080197    
-807614.57      3.5191508      36.890357      25.845102      12.683181    
-807615.38      3.2983759      37.316724      25.849129      12.286205    
-807620.81      3.1789835      36.239485      25.806341      11.889312    
-807626.06      3.3240339      36.881421      25.793928      11.492471    
-807632.98      3.5295133      35.718233      25.817257      11.095647    
-807632.73      4.0880063      37.254789      25.800747      10.698878    
-807633.46      3.03391        35.136047      25.780483      10.302165    
-807624.26      4.0277902      37.02383       25.776005      9.905492     
-807621.91      4.0803524      37.414161      25.805411      9.5088335    
-807615.97      3.7150936      37.466085      25.817532      9.1122045    
-807617         5.5722182      38.211657      25.778125      8.7156417    
-807622.83      3.4805982      36.903926      25.788521      8.3191081    
-807630.14      4.8647962      36.816533      25.795518      7.9226066    
-807631.19      3.5084357      36.999632      25.818123      7.5261284    
-807637.06      3.5578812      36.521728      25.812817      7.1296912    
-807629.86      3.1538928      36.448494      25.811533      6.7332921    
-807625.65      3.4806467      36.706438      25.818342      6.3369267    
-807619.17      4.2346206      36.903299      25.839845      5.9405886    
-807616.27      3.2479431      37.563085      25.828542      5.5442938    
-807618.08      3.2477291      37.590941      25.81251       5.1480429    
-807623.94      3.8467928      37.229789      25.800003      4.7518329    
-807631.07      3.1379428      36.499206      25.803221      4.3556571    
-807633.64      3.7623017      36.82144       25.79075       3.9595202    
-807632.68      3.3535813      37.581805      25.790017      3.5634178    
-807629.7       4.7531978      37.025752      25.792618      3.1673487    
-807624.05      3.7327941      37.958246      25.803807      2.7713111    
-807618.89      4.7042854      37.281488      25.796996      2.3753092    
-807616.2       3.7881262      37.941014      25.773634      1.9793446    
-807620.16      3.2086308      36.838284      25.79777       1.5834093    
-807624.62      3.7893747      37.154108      25.840093      1.1875035    
-807628.51      3.0490745      37.581914      25.852858      0.79163273   
-807633         4.2635182      37.105302      25.843698      0.39579858   
-807632.66      3.1814725      36.806975      25.839449      0            
Loop time of 197.891 on 32 procs for 5000 steps with 1080 atoms

Performance: 4.366 ns/day, 5.497 hours/ns, 25.266 timesteps/s, 27.288 katom-step/s
67.7% CPU use with 32 MPI tasks x 1 OpenMP threads

MPI task timing breakdown:
Section |  min time  |  avg time  |  max time  |%varavg| %total
---------------------------------------------------------------
Pair    | 102.04     | 144.8      | 193.7      | 313.0 | 73.17
Neigh   | 0          | 0          | 0          |   0.0 |  0.00
Comm    | 1.8534     | 50.777     | 93.524     | 528.6 | 25.66
Output  | 0.029177   | 0.030509   | 0.032176   |   0.3 |  0.02
Modify  | 1.9348     | 1.964      | 1.9894     |   1.2 |  0.99
Other   |            | 0.3213     |            |       |  0.16

Nlocal:          33.75 ave          48 max          21 min
Histogram: 8 8 0 0 0 0 0 8 0 8
Nghost:        1106.25 ave        1119 max        1092 min
Histogram: 8 0 8 0 0 0 0 0 8 8
Neighs:              0 ave           0 max           0 min
Histogram: 32 0 0 0 0 0 0 0 0 0
FullNghs:       5494.5 ave        7896 max        3378 min
Histogram: 8 8 0 0 0 0 0 8 0 8

Total # of neighbors = 175824
Ave neighs/atom = 162.8
Neighbor list builds = 0
Dangerous builds = 0

reset_timestep 0


variable interval equal 1000
thermo 10

variable nintervals equal $(v_PERIOD/v_interval)
variable nintervals equal 100
variable efield equal 1e-2*36.36*cos((step/${PERIOD})*2*3.14)
variable efield equal 1e-2*36.36*cos((step/100000)*2*3.14)
fix born all addbornforce 0.0 0.0 v_efield

variable Px equal f_born[1]+c_polarization[1]
variable Py equal f_born[2]+c_polarization[2]
variable Pz equal (f_born[3]+c_polarization[3])/vol
variable pe equal pe

fix aveP all ave/time 1 $(v_interval/2) ${interval} v_efield v_Pz v_pe f_born file Pz.${MODEL}.${STRUCTURE}.${TEMP}.$L.${ITER}
fix aveP all ave/time 1 500 ${interval} v_efield v_Pz v_pe f_born file Pz.${MODEL}.${STRUCTURE}.${TEMP}.$L.${ITER}
fix aveP all ave/time 1 500 1000 v_efield v_Pz v_pe f_born file Pz.${MODEL}.${STRUCTURE}.${TEMP}.$L.${ITER}
fix aveP all ave/time 1 500 1000 v_efield v_Pz v_pe f_born file Pz.BaTiO3-E0.${STRUCTURE}.${TEMP}.$L.${ITER}
fix aveP all ave/time 1 500 1000 v_efield v_Pz v_pe f_born file Pz.BaTiO3-E0.BaTiO3-sc333.${TEMP}.$L.${ITER}
fix aveP all ave/time 1 500 1000 v_efield v_Pz v_pe f_born file Pz.BaTiO3-E0.BaTiO3-sc333.350.$L.${ITER}
fix aveP all ave/time 1 500 1000 v_efield v_Pz v_pe f_born file Pz.BaTiO3-E0.BaTiO3-sc333.350.2.${ITER}
fix aveP all ave/time 1 500 1000 v_efield v_Pz v_pe f_born file Pz.BaTiO3-E0.BaTiO3-sc333.350.2.6

thermo_style custom step time temp press pe f_born v_efield v_Pz spcpu cpuremain

# dump 4a all custom 1000 dump.hyst.${MODEL}.${STRUCTURE}.${TEMP}.$L.${ITER}.bin id type xu yu zu fx fy fz
# dump_modify 4a sort id

fix nvt all nvt temp ${TEMP} ${TEMP} $(100*dt)
fix nvt all nvt temp 350 ${TEMP} $(100*dt)
fix nvt all nvt temp 350 350 $(100*dt)
fix nvt all nvt temp 350 350 0.2000000000000000111

run $(v_PERIOD)
run 100000
WARNING: non-constant efield is experimental, strongly distrust scalar/vector output (src/fix_addbornforce.cpp:193)
Per MPI rank memory allocation (min/avg/max) = 3.516 | 3.516 | 3.516 Mbytes
   Step          Time           Temp          Press          PotEng         f_born        v_efield         v_Pz          S/CPU         CPULeft    
         0   0              346.84509      129837.15     -807632.66     -294.66198      0.3636         0.055417604    0              0            
        10   0.02           352.30717      132004.33     -807629.17     -299.00711      0.36359993     0.056234811    27.728434      3606.0653    
        20   0.04           346.99621      137097.2      -807622.46     -305.00577      0.36359971     0.057363024    27.771535      3602.8965    
        30   0.06           355.11613      139926.88     -807619.82     -308.81059      0.36359935     0.058078662    27.809767      3599.9508    
        40   0.08           355.66813      142600.28     -807617.3      -311.39014      0.36359885     0.058563884    27.818861      3598.0043    
        50   0.1            344.96138      140821.62     -807618.71     -308.5998       0.36359821     0.058039202    27.844255      3596.0375    
        60   0.12           349.79988      137342.99     -807623.05     -304.96409      0.36359742     0.057355548    27.833922      3594.8286    
        70   0.14           351.50616      131784.89     -807630.65     -297.62091      0.36359649     0.055974636    27.838613      3593.7761    
        80   0.16           332.76705      130055.14     -807630.47     -295.19419      0.36359541     0.055518398    27.80886       3593.3767    
        90   0.18           341.45294      129996.78     -807631.34     -295.57666      0.36359419     0.055590518    27.768502      3593.5665    
       100   0.2            358.08301      133103.39     -807628.68     -300.56376      0.36359283     0.056528677    27.749155      3593.897     
       110   0.22           348.84561      137422.21     -807623.17     -304.81996      0.36359132     0.057329401    27.773991      3593.8094    
       120   0.24           351.38634      141500.65     -807619.57     -308.81376      0.36358968     0.058080803    27.825819      3593.1185    
       130   0.26           355.08217      141058.72     -807618.85     -310.12975      0.36358788     0.058328598    27.808152      3592.6534    
       140   0.28           350.99386      140528.67     -807620.67     -307.78396      0.36358595     0.057887715    27.833759      3591.9673    
       150   0.3            345.47411      135204.15     -807624.89     -302.90501      0.36358387     0.056970413    27.877015      3590.9547    
       160   0.32           343.68477      131864.04     -807630.14     -297.42884      0.36358165     0.055940796    27.834739      3590.3628    
       170   0.34           336.27288      130957.66     -807631.61     -295.0164       0.36357928     0.055487423    27.800178      3590.0612    
       180   0.36           337.00223      131454.81     -807629.57     -297.31383      0.36357677     0.055919915    27.744574      3590.1524    
       190   0.38           351.7251       134023.46     -807628.29     -300.71987      0.36357412     0.056560948    27.722823      3590.3448    
       200   0.4            351.94968      136992.41     -807624.47     -304.74658      0.36357132     0.057318753    27.716196      3590.5252    
       210   0.42           342.6833       141073.12     -807617.92     -310.12248      0.36356838     0.058330359    27.757913      3590.396     
       220   0.44           350.384        140547.31     -807618.81     -310.44861      0.3635653      0.058392196    27.801592      3589.9892    
       230   0.46           346.27154      138747.03     -807621.02     -307.73982      0.36356207     0.057883215    27.875691      3589.172     
       240   0.48           348.29579      134327.61     -807627.62     -301.62208      0.3635587      0.056733046    27.84165       3588.5751    
       250   0.5            341.51466      132011.63     -807629.89     -298.46396      0.36355519     0.056139568    27.811949      3588.1503    
       260   0.52           334.92715      129901.81     -807631.22     -296.3863       0.36355153     0.05574933     27.817153      3587.7045    
       270   0.54           338.57281      131932.57     -807631.73     -296.5782       0.36354773     0.05578601     27.816267      3587.2695    
       280   0.56           335.42993      133767.28     -807627.17     -300.8041       0.36354379     0.05658151     27.821515      3586.8159    
       290   0.58           350.95862      137706.26     -807623.78     -306.48627      0.3635397      0.057650979    27.8061        3586.437     
       300   0.6            341.44269      140520.43     -807619.62     -309.49759      0.36353547     0.058218096    27.837163      3585.9262    
       310   0.62           340.12596      141224.01     -807619.48     -309.46827      0.3635311      0.058213282    27.84321       3585.4002    
       320   0.64           340.49441      137177.1      -807623.69     -305.42373      0.36352658     0.057453186    27.817418      3584.9883    
       330   0.66           350.17679      134523.7      -807627.64     -302.82003      0.36352192     0.056964135    27.809292      3584.6111    
       340   0.68           328.09119      130948.94     -807629.25     -298.15072      0.36351712     0.056086522    27.694903      3584.6705    
       350   0.7            344.41136      130898.48     -807633.22     -296.39792      0.36351217     0.055757553    27.684211      3584.7454    
       360   0.72           330.79068      130678.79     -807630.36     -297.32353      0.36350708     0.055932459    27.68457       3584.7948    
       370   0.74           346.90702      134763.68     -807626.8      -303.1071       0.36350185     0.057021286    27.73067       3584.6604    
       380   0.76           349.47465      138039.58     -807623.24     -306.9607       0.36349647     0.057747089    27.78039       3584.3449    
       390   0.78           347.49433      140017.12     -807620.95     -308.84213      0.36349095     0.058101916    27.80519       3583.9452    
       400   0.8            345.33587      139058.66     -807621.88     -307.48714      0.36348529     0.057847906    27.794487      3583.5818    
       410   0.82           333.06046      138028.51     -807621.91     -305.61967      0.36347948     0.057497494    27.843661      3583.0644    
       420   0.84           341.35784      134721.74     -807626.99     -301.43849      0.36347353     0.056711801    27.788224      3582.7243    
       430   0.86           333.70726      130695.72     -807630.15     -296.96341      0.36346744     0.055870807    27.777496      3582.4154    
       440   0.88           348.42249      130153.78     -807633.28     -295.58504      0.3634612      0.055612436    27.806032      3582.0207    
       450   0.9            349.6672       132836.9      -807630.11     -298.70272      0.36345482     0.056199994    27.798016      3581.6505    
       460   0.92           350.99363      136305.29     -807624.35     -304.32157      0.3634483      0.057258191    27.82282       3581.2114    
       470   0.94           354.54571      138092.77     -807622.71     -306.07454      0.36344163     0.057589068    27.83854       3580.7325    
       480   0.96           351.61696      140977.3      -807619.68     -308.40025      0.36343482     0.058027746    27.846336      3580.238     
       490   0.98           346.56084      140571.74     -807617.9      -309.27353      0.36342786     0.058193174    27.889359      3579.6363    
       500   1              356.05716      137761.36     -807622.65     -305.49714      0.36342077     0.057483728    27.826275      3579.2062    
       510   1.02           351.6276       133892.51     -807628.32     -9565.8765      0.36341353     0.056249831    27.727996      3579.0273    
       520   1.04           356.99309      131596.17     -807631.34     -9486.5442      0.36340614     0.05578447     27.686695      3578.9444    
       530   1.06           346.08134      131185.29     -807629.4      -9493.1884      0.36339862     0.055824696    27.651026      3578.9384    
       540   1.08           356.61712      132528.71     -807628.6      -9560.5565      0.36339095     0.056222041    27.703966      3578.7919    
       550   1.1            356.50922      134465.07     -807625.78     -9649.1579      0.36338313     0.056744293    27.737412      3578.559     
       560   1.12           362.48071      139842.89     -807620.86     -9829.3734      0.36337518     0.057805361    27.737219      3578.3219    
       570   1.14           341.54983      140840.59     -807615.14     -9918.9919      0.36336707     0.058333697    27.74226       3578.0691    
       580   1.16           353.81495      140830.76     -807618.51     -9860.2334      0.36335883     0.057989453    27.735107      3577.8286    
       590   1.18           356.17338      136168.36     -807623.99     -9694.3398      0.36335044     0.057015125    27.718586      3577.6201    
       600   1.2            358.82391      134809.2      -807626.78     -9614.033       0.36334191     0.056544146    27.740427      3577.3595    
       610   1.22           354.15638      131679.13     -807629.17     -9517.7361      0.36333324     0.05597912     27.746577      3577.0827    
       620   1.24           348.57239      132296.88     -807630.32     -9456.8448      0.36332442     0.055622334    27.701538      3576.8969    
       630   1.26           360.59116      132953.89     -807629.84     -9526.5378      0.36331546     0.056033629    27.641653      3576.8292    
       640   1.28           359.87776      136234.44     -807623.97     -9713.7053      0.36330636     0.057135951    27.659135      3576.7165    
       650   1.3            358.01278      139415.1      -807618.77     -9875.2398      0.36329711     0.058087574    27.718108      3576.4788    
       660   1.32           345.65368      140794.02     -807617.45     -9862.7724      0.36328772     0.058015739    27.677666      3576.3166    
       670   1.34           368.26821      139038.81     -807623.11     -9785.3049      0.36327819     0.057561563    27.715399      3576.0756    
       680   1.36           357.90187      136500.42     -807623.61     -9727.8508      0.36326851     0.057225116    27.742862      3575.7789    
       690   1.38           346.95058      133831.54     -807625.99     -9605.7406      0.36325869     0.056508318    27.746007      3575.4744    
       700   1.4            354.63727      130244.49     -807631.46     -9468.6614      0.36324873     0.055703441    27.772065      3575.1204    
       710   1.42           343.22845      132190.66     -807630.09     -9465.8553      0.36323863     0.055688482    27.759471      3574.7891    
       720   1.44           352.1451       133951.84     -807626.66     -9622.8383      0.36322838     0.056613625    27.769609      3574.4388    
       730   1.46           357.29393      137744.46     -807622.01     -9798.9387      0.36321798     0.057651318    27.792016      3574.0487    
       740   1.48           351.44993      138923.49     -807620.81     -9815.9211      0.36320745     0.057752907    27.759595      3573.7159    
       750   1.5            353.46224      139829.39     -807620.6      -9836.2732      0.36319677     0.057874353    27.752939      3573.3937    
       760   1.52           343.78211      138182.22     -807620.05     -9818.5672      0.36318595     0.057771896    27.747959      3573.079     
       770   1.54           355.62122      135887.5      -807625        -9716.2146      0.36317498     0.057171386    27.736128      3572.783     
       780   1.56           350.22288      131502.94     -807630.12     -9534.9841      0.36316387     0.056106719    27.693281      3572.5562    
       790   1.58           335.69988      131408.19     -807629.38     -9498.4434      0.36315262     0.055893435    27.616478      3572.4521    
       800   1.6            342.41773      131805.03     -807629.6      -9529.0696      0.36314122     0.056075414    27.661261      3572.2689    
       810   1.62           336.41993      135046.91     -807625.07     -9655.0231      0.36312968     0.056818414    27.698741      3572.0214    
       820   1.64           352.39568      137796.56     -807624.6      -9747.4987      0.363118       0.057364464    27.640532      3571.8631    
       830   1.66           335.49112      139977.51     -807619.79     -9831.001       0.36310618     0.057857763    27.636984      3571.7054    
       840   1.68           344.55759      138763.04     -807620.37     -9860.8705      0.36309421     0.058035465    27.69724       3571.45      
       850   1.7            344.25358      137926.78     -807622.7      -9789.6709      0.3630821      0.057618347    27.713312      3571.1676    
       860   1.72           356.19981      133647.73     -807629.33     -9637.4482      0.36306984     0.056724336    27.708217      3570.8911    
       870   1.74           344.5024       130790.63     -807630.93     -9539.1133      0.36305745     0.056147471    27.706598      3570.615     
       880   1.76           347.91989      130803.68     -807632.27     -9518.9742      0.3630449      0.056030867    27.742136      3570.2849    
       890   1.78           323.6603       133288.69     -807627.32     -9577.176       0.36303222     0.056375426    27.750965      3569.9413    
       900   1.8            347.72961      134397.8      -807628.53     -9653.9957      0.36301939     0.056829628    27.760386      3569.584     
       910   1.82           344.24725      137086.31     -807624.67     -9771.8115      0.36300642     0.057525223    27.74777       3569.2444    
       920   1.84           329.42237      139499.93     -807620.45     -9851.8137      0.36299331     0.057998279    27.755188      3568.8939    
       930   1.86           332.32438      139185.94     -807622.35     -9814.9717      0.36298005     0.057783499    27.7484        3568.5527    
       940   1.88           333.81641      136237.86     -807626.09     -9713.8884      0.36296665     0.057190504    27.71114       3568.2621    
       950   1.9            333.2204       134099.33     -807629.04     -9629.3664      0.36295311     0.056694996    27.719949      3567.9581    
       960   1.92           327.3395       131703.65     -807630.52     -9569.1437      0.36293942     0.056342546    27.708668      3567.668     
       970   1.94           314.21212      131425.51     -807630.63     -9518.2323      0.36292559     0.056044919    27.726573      3567.3527    
       980   1.96           322.10883      132520.88     -807630.27     -9572.7536      0.36291162     0.05636812     27.696131      3567.0765    
       990   1.98           342.20482      134808.75     -807628.98     -9713.0061      0.3628975      0.057196206    27.709563      3566.7811    
      1000   2              321.50706      138038.89     -807622.92     -9820.4494      0.36288325     0.057831171    27.634755      3566.5811    
      1010   2.02           329.08522      140374.2      -807623.44     -307.42416      0.36286884     0.05793431     27.81514       3566.1479    
      1020   2.04           341.42729      136017.68     -807627.78     -304.87743      0.3628543      0.057456678    27.836657      3565.6891    
      1030   2.06           336.84202      136560.43     -807627.38     -304.51883      0.36283961     0.057391422    27.870858      3565.19      
      1040   2.08           327.90874      132113.9      -807631.2      -299.45885      0.36282478     0.056440095    27.829082      3564.7448    
      1050   2.1            323.89923      132549.36     -807630.94     -298.92651      0.3628098      0.056342088    27.854885      3564.2698    
      1060   2.12           325.33169      129651.65     -807633        -296.96455      0.36279469     0.055974628    27.855091      3563.7969    
      1070   2.14           318.13332      135164.27     -807627.58     -301.03018      0.36277943     0.056743341    27.847154      3563.3355    
      1080   2.16           327.28551      134500.43     -807626.49     -303.26851      0.36276402     0.057167687    27.789135      3562.9446    
      1090   2.18           332.97853      138656.13     -807623.31     -306.81288      0.36274848     0.057838299    27.78625       3562.5577    
      1100   2.2            338.6793       138301.37     -807624.5      -306.06949      0.36273279     0.057700655    27.825734      3562.1254    
      1110   2.22           330.58437      138128.61     -807623.52     -305.5862       0.36271695     0.05761206     27.842102      3561.6756    
      1120   2.24           348.01162      134742.01     -807628.22     -303.03688      0.36270098     0.057133954    27.818063      3561.2548    
      1130   2.26           337.98851      132884.93     -807629.92     -299.66887      0.36268486     0.056501467    27.762442      3560.8981    
      1140   2.28           333.75907      131605.56     -807631.4      -297.31388      0.3626686      0.056059955    27.753552      3560.5513    
      1150   2.3            332.8281       130966.61     -807631.48     -296.90916      0.36265219     0.055986177    27.759525      3560.1977    
      1160   2.32           338.93844      133610.43     -807628.8      -300.26468      0.36263564     0.056621488    27.768941      3559.8336    
      1170   2.34           338.45668      136458.15     -807624.78     -304.05202      0.36261895     0.057338313    27.838291      3559.3936    
      1180   2.36           344.36788      138972.31     -807622.61     -306.75795      0.36260212     0.057851285    27.866573      3558.9246    
      1190   2.38           325.15003      138861.32     -807620.7      -305.81531      0.36258514     0.057676212    27.815734      3558.5119    
      1200   2.4            342.77214      138320.19     -807622.94     -305.78803      0.36256802     0.057673792    27.822836      3558.0925    
      1210   2.42           347.42485      134095.01     -807627.23     -301.96664      0.36255076     0.056955762    27.813394      3557.684     
      1220   2.44           344.04128      133206.33     -807629.14     -299.27088      0.36253335     0.056450009    27.829796      3557.2592    
      1230   2.46           339.54466      130617.79     -807632.11     -295.53274      0.3625158      0.0557476      27.808101      3556.858     
      1240   2.48           334.37739      133438.34     -807628.39     -298.24694      0.36249811     0.056262336    27.77422       3556.4924    
      1250   2.5            343.35498      133538.57     -807627.53     -300.19408      0.36248028     0.056632439    27.78005       3556.1209    
      1260   2.52           344.57756      137771.24     -807623.65     -303.88349      0.3624623      0.057331299    27.791924      3555.7375    
      1270   2.54           344.80605      137668.82     -807622.62     -304.75469      0.36244418     0.057498535    27.792965      3555.3534    
      1280   2.56           347.0501       140340.92     -807621.2      -306.15563      0.36242592     0.057765764    27.847105      3554.9158    
      1290   2.58           355.56932      136838.45     -807623.53     -304.86161      0.36240751     0.057524529    27.865863      3554.4609    
      1300   2.6            358.03016      136012.09     -807625.94     -302.42776      0.36238896     0.057068206    27.828439      3554.0442    
      1310   2.62           347.02498      131788.06     -807629.35     -297.30244      0.36237027     0.056103949    27.840451      3553.6166    
      1320   2.64           353.66817      132236.22     -807629.87     -297.45463      0.36235143     0.056135587    27.821717      3553.2081    
      1330   2.66           338.89338      133107.84     -807627.02     -298.11072      0.36233245     0.056262351    27.82768       3552.7947    
      1340   2.68           349.00187      135721.61     -807625.05     -301.28924      0.36231333     0.056865233    27.825528      3552.3841    
      1350   2.7            349.93441      136907.45     -807623.77     -302.5351       0.36229407     0.057103413    27.773023      3552.0239    
      1360   2.72           352.18097      138832.83     -807621.16     -305.25704      0.36227466     0.057620264    27.791858      3551.646     
      1370   2.74           352.74042      138699.29     -807620.6      -305.67352      0.36225511     0.057701993    27.779812      3551.2797    
      1380   2.76           364.54879      137589.38     -807623.54     -304.1386       0.36223542     0.057415366    27.820019      3550.8762    
      1390   2.78           358.25709      134226.83     -807625.57     -301.08211      0.36221558     0.056841476    27.790278      3550.5006    
      1400   2.8            362.07589      133289.31     -807629.01     -297.98829      0.3621956      0.056260494    27.757484      3550.1552    
      1410   2.82           355.17953      132164.52     -807628.01     -297.97261      0.36217548     0.056260658    27.756994      3549.8101    
      1420   2.84           353.12584      132276.2      -807627.44     -298.1865       0.36215522     0.056304194    27.744479      3549.476     
      1430   2.86           358.04241      134885.84     -807626.62     -299.58446      0.36213481     0.056571347    27.769004      3549.1197    
      1440   2.88           351.99116      136611.49     -807623.05     -302.28997      0.36211426     0.057085475    27.723818      3548.8034    
      1450   2.9            357.37502      139590.63     -807620.86     -305.1882       0.36209357     0.057636081    27.749576      3548.4637    
      1460   2.92           354.42939      138793.3      -807620.01     -305.60463      0.36207273     0.057718047    27.767733      3548.1079    
      1470   2.94           358.53043      137263.55     -807623.09     -302.96827      0.36205176     0.057223446    27.776756      3547.7442    
      1480   2.96           366.58594      133672.77     -807627.43     -299.74119      0.36203064     0.05661723     27.813177      3547.3492    
      1490   2.98           344.51019      134253.48     -807624.4      -299.74258      0.36200937     0.056620818    27.826809      3546.9429    
      1500   3              349.07121      133096.73     -807626.98     -297.82176      0.36198796     0.056261306    27.82628       3546.5378    
      1510   3.02           353.75136      134313.95     -807627.45     -9536.5629      0.36196642     0.056301652    27.716932      3546.2257    
      1520   3.04           357.9741       135074.81     -807626.33     -9592.8505      0.36194472     0.056637356    27.697802      3545.9291    
      1530   3.06           357.63899      137107.99     -807622.46     -9718.0867      0.36192289     0.057380227    27.732807      3545.6024    
      1540   3.08           348.80407      137621.96     -807620.63     -9740.8931      0.36190091     0.057518379    27.741495      3545.268     
      1550   3.1            362.31363      137687.54     -807623.6      -9708.4995      0.36187879     0.057330605    27.752136      3544.9245    
      1560   3.12           354.64666      135948.29     -807624.36     -9656.9431      0.36185653     0.057029662    27.754686      3544.5787    
      1570   3.14           347.93331      135574.55     -807623.79     -9650.0025      0.36183412     0.056992203    27.768692      3544.2213    
      1580   3.16           344.39656      133397.2      -807626.83     -9543.0518      0.36181157     0.056364072    27.750447      3543.8786    
      1590   3.18           345.0588       133012.22     -807628.67     -9495.1968      0.36178888     0.056084944    27.756585      3543.5307    
      1600   3.2            354.47977      133696.13     -807627.88     -9571.2432      0.36176605     0.056537693    27.750673      3543.1875    
      1610   3.22           342.08514      134669.91     -807623.23     -9675.2298      0.36174307     0.057155576    27.72786       3542.8621    
      1620   3.24           344.99261      137211.58     -807622.79     -9708.3128      0.36171995     0.057354676    27.744102      3542.5235    
      1630   3.26           349.05411      136122.39     -807624.45     -9684.243       0.36169669     0.057216156    27.748248      3542.1813    
      1640   3.28           351.82469      137414.75     -807624.06     -9716.8137      0.36167329     0.057412305    27.774644      3541.8184    
      1650   3.3            349.74149      134679.28     -807625.08     -9685.6048      0.36164974     0.057231631    27.792505      3541.4418    
      1660   3.32           340.95321      135177.76     -807625.43     -9640.7059      0.36162605     0.056970059    27.787123      3541.0695    
      1670   3.34           343.41856      131858.03     -807630.28     -9505.5368      0.36160222     0.056175002    27.763593      3540.7153    
      1680   3.36           332.90922      134023.91     -807627.23     -9558.3087      0.36157824     0.056490615    27.737577      3540.3807    
      1690   3.38           338.80894      132565.57     -807628.16     -9562.1327      0.36155413     0.056516985    27.765558      3540.0248    
      1700   3.4            328.73043      137041.2      -807624.12     -9645.6912      0.36152987     0.057014683    27.775011      3539.6617    
      1710   3.42           339.72872      135990.34     -807626.59     -9620.1906      0.36150546     0.05686779     27.760729      3539.3092    
      1720   3.44           348.73647      137837.9      -807624.74     -9718.7023      0.36148092     0.057454023    27.7541        3538.9616    
      1730   3.46           355.28809      135492.94     -807625.51     -9726.2828      0.36145623     0.057502764    27.766048      3538.6051    
      1740   3.48           336.38721      137463.46     -807623.55     -9699.9007      0.3614314      0.05735073     27.811567      3538.2152    
      1750   3.5            334.81512      133797.41     -807628.25     -9542.241       0.36140643     0.056422464    27.769942      3537.856     
      1760   3.52           341.3729       133257.93     -807628.88     -9547.2282      0.36138131     0.056455876    27.748522      3537.5122    
      1770   3.54           342.82345      132727.35     -807628.64     -9561.4001      0.36135605     0.056543631    27.708924      3537.1968    
      1780   3.56           330.37445      134582.86     -807626.31     -9577.8245      0.36133065     0.056644743    27.74529       3536.8548    
      1790   3.58           348.5889       134317.43     -807628.72     -9576.2071      0.36130511     0.056639181    27.719234      3536.5312    
      1800   3.6            339.02374      135722.28     -807625.55     -9633.6325      0.36127942     0.056982879    27.713295      3536.2114    
      1810   3.62           349.10188      137347.56     -807623.94     -9723.7068      0.3612536      0.05751978     27.70441       3535.8975    
      1820   3.64           337.91307      135560.4      -807624.06     -9666.9632      0.36122763     0.057188229    27.72749       3535.5668    
      1830   3.66           341.5091       135483.94     -807625.99     -9612.0217      0.36120151     0.056867315    27.723125      3535.2388    
      1840   3.68           340.6133       134131.68     -807626.98     -9572.4952      0.36117526     0.056637582    27.703354      3534.9242    
      1850   3.7            331.04091      134593.7      -807623.87     -9622.2231      0.36114886     0.056935968    27.711557      3534.6034    
      1860   3.72           351.64154      132614.13     -807629.17     -9539.5123      0.36112232     0.056450707    27.702255      3534.2886    
      1870   3.74           346.09597      133793.84     -807628.16     -9540.0923      0.36109564     0.05645831     27.710828      3533.9675    
      1880   3.76           351.21356      133772.01     -807626.7      -9605.4537      0.36106881     0.056849342    27.730776      3533.6323    
      1890   3.78           352.32362      135925.19     -807624.21     -9685.6243      0.36104184     0.057328109    27.767518      3533.2722    
      1900   3.8            361.70348      135323.06     -807626.71     -9644.2229      0.36101474     0.057087346    27.802711      3532.8884    
      1910   3.82           346.07517      136218.88     -807625.34     -9613.557       0.36098748     0.05691012     27.790849      3532.5129    
      1920   3.84           345.54844      136013.9      -807624.82     -9625.4114      0.36096009     0.05698462     27.752174      3532.1631    
      1930   3.86           346.26302      134552.78     -807625.54     -9602.2699      0.36093255     0.056851954    27.764282      3531.8052    
      1940   3.88           338.24197      134497.68     -807625.33     -9567.4825      0.36090487     0.056650334    27.758054      3531.4514    
      1950   3.9            347.386        133756.06     -807628.4      -9506.6632      0.36087705     0.056294554    27.737685      3531.1108    
      1960   3.92           350.2328       135471.19     -807626.18     -9586.005       0.36084909     0.056768782    27.732248      3530.7735    
      1970   3.94           352.97388      134620.63     -807624.6      -9647.5421      0.36082098     0.057137659    27.750598      3530.4242    
      1980   3.96           353.62412      135770.43     -807624.92     -9635.4879      0.36079273     0.057070736    27.785801      3530.0521    
      1990   3.98           352.1239       135211.99     -807626.51     -9577.089       0.36076434     0.056729305    27.819246      3529.6588    
      2000   4              359.55801      135675.7      -807625.45     -9641.6287      0.36073581     0.057116119    27.739743      3529.3164    
      2010   4.02           345.90549      135119.82     -807623.38     -301.51097      0.36070713     0.057160486    27.835065      3528.9136    
      2020   4.04           351.1279       134981.32     -807627.2      -298.24763      0.36067831     0.056546339    27.822165      3528.5193    
      2030   4.06           349.1457       134509.94     -807627.62     -297.53497      0.36064935     0.05641575     27.810849      3528.1324    
      2040   4.08           337.02606      134286.64     -807623.83     -299.61905      0.36062025     0.056815499    27.791998      3527.7575    
      2050   4.1            360.13567      135307.27     -807626.42     -300.11462      0.36059101     0.056914087    27.799936      3527.3778    
      2060   4.12           341.04704      135243.92     -807625.35     -298.50143      0.36056162     0.056612774    27.789959      3527.0045    
      2070   4.14           355.89161      136115.17     -807625.9      -299.8447       0.36053209     0.056872191    27.779133      3526.6379    
      2080   4.16           360.52664      134369.1      -807625.08     -301.32157      0.36050242     0.057157016    27.743081      3526.2934    
      2090   4.18           354.88451      136596.04     -807624.04     -301.47264      0.36047261     0.057190403    27.738631      3525.9515    
      2100   4.2            354.64506      134749.71     -807626.29     -299.18494      0.36044265     0.056761135    27.765671      3525.593     
      2110   4.22           335.48816      135557.83     -807624.17     -298.56512      0.36041256     0.056648272    27.76447       3525.2352    
      2120   4.24           358.58665      133340.65     -807627.38     -298.48495      0.36038232     0.056637813    27.816262      3524.8465    
      2130   4.26           350.59076      135705.21     -807625.42     -299.24871      0.36035193     0.056787525    27.799131      3524.4682    
      2140   4.28           353.86393      134456.29     -807627.38     -297.77308      0.36032141     0.056512286    27.833573      3524.0697    
      2150   4.3            355.04845      136173.48     -807625.95     -299.27025      0.36029075     0.056801259    27.775266      3523.7059    
      2160   4.32           362.25079      134959.37     -807626.58     -299.63548      0.36025994     0.056875442    27.777777      3523.3407    
      2170   4.34           357.34442      137530.46     -807624        -301.43621      0.36022899     0.057222164    27.778903      3522.9748    
      2180   4.36           351.07587      134612.3      -807625.76     -298.84444      0.36019789     0.056735062    27.78871       3522.6033    
      2190   4.38           347.30076      136717.82     -807624.32     -299.61297      0.36016666     0.056885898    27.797283      3522.227     
      2200   4.4            341.91969      133505.37     -807625.27     -298.03047      0.36013528     0.056590368    27.829299      3521.8324    
      2210   4.42           345.16443      137312.35     -807623.11     -300.46309      0.36010377     0.05705727     27.835694      3521.4345    
      2220   4.44           355.26527      132955.02     -807629.02     -296.05459      0.36007211     0.056225049    27.832572      3521.0387    
      2230   4.46           363.86317      136737.61     -807626.89     -299.23638      0.3600403      0.056834336    27.814438      3520.6535    
      2240   4.48           345.53417      133775.06     -807624.58     -299.16129      0.36000836     0.056825116    27.806147      3520.2732    
      2250   4.5            352.12851      137526.77     -807623.47     -301.05139      0.35997627     0.057189234    27.772465      3519.912     
      2260   4.52           350.57665      133333.59     -807626.83     -297.61848      0.35994404     0.056542163    27.795739      3519.5379    
      2270   4.54           351.18993      136907.5      -807624.25     -300.11209      0.35991167     0.057021032    27.783442      3519.1706    
      2280   4.56           349.50363      133706.67     -807625.42     -298.89906      0.35987916     0.056795688    27.791019      3518.7993    
      2290   4.58           347.83589      136027.93     -807624.53     -299.47533      0.35984651     0.056910353    27.791693      3518.4277    
      2300   4.6            356.03895      133004.55     -807629.09     -296.17353      0.35981371     0.05628803     27.79833       3518.0525    
      2310   4.62           350.26935      135910.67     -807625.96     -298.57758      0.35978077     0.056750117    27.774857      3517.6903    
      2320   4.64           349.60557      134031.39     -807625.75     -298.87212      0.35974769     0.056811323    27.75839       3517.3372    
      2330   4.66           351.14996      135974.37     -807625.28     -299.55845      0.35971447     0.056947044    27.780908      3516.9717    
      2340   4.68           348.71811      134516.48     -807626.3      -298.3561       0.35968111     0.056723734    27.790841      3516.6009    
      2350   4.7            355.70402      135468.76     -807626.4      -299.28821      0.3596476      0.056906249    27.807529      3516.2213    
      2360   4.72           351.29111      134946.96     -807625.91     -299.30538      0.35961396     0.056914837    27.768463      3515.8627    
      2370   4.74           342.0444       134695.93     -807625.99     -298.0354       0.35958017     0.056678669    27.771339      3515.5026    
      2380   4.76           348.63863      134742.31     -807627.76     -297.21787      0.35954624     0.056528529    27.784833      3515.1353    
      2390   4.78           358.67342      132855.1      -807629.22     -297.33601      0.35951216     0.056556359    27.796236      3514.762     
      2400   4.8            335.36887      136899.43     -807623.19     -300.17836      0.35947795     0.057102436    27.813131      3514.38      
      2410   4.82           347.0711       134929.28     -807626.64     -298.51123      0.35944359     0.056790729    27.813271      3513.9981    
      2420   4.84           339.12213      136758.52     -807624.86     -299.14987      0.35940909     0.056917692    27.789099      3513.629     
      2430   4.86           345.16979      134924.27     -807627.35     -297.677        0.35937446     0.056642914    27.805806      3513.2512    
      2440   4.88           356.03591      136422.27     -807626        -300.5634       0.35933967     0.057197683    27.816281      3512.8682    
      2450   4.9            331.97435      133991.24     -807626.05     -297.25772      0.35930475     0.056574107    27.81097       3512.4881    
      2460   4.92           350.29278      134435.54     -807628.55     -297.2063       0.35926969     0.056569841    27.81023       3512.1086    
      2470   4.94           339.99279      132639.6      -807628.26     -296.17372      0.35923448     0.056378826    27.780957      3511.7442    
      2480   4.96           342.18658      135414.11     -807625.35     -299.35304      0.35919913     0.056989639    27.810456      3511.3648    
      2490   4.98           342.78776      133810.64     -807626.69     -298.09829      0.35916364     0.056756374    27.817118      3510.9822    
      2500   5              337.79757      136184.97     -807626.06     -297.925        0.35912801     0.056729008    27.748686      3510.6344    
[...]
     98740   197.48         358.84526      138147.35     -807623.6      -9686.3207      0.36236891     0.057122269    28.299853      44.082435    
     98750   197.5          370.12884      135744.39     -807624.35     -9712.1061      0.36238762     0.057271375    28.293204      43.73262     
     98760   197.52         372.30866      136620.48     -807625.03     -9692.2103      0.36240618     0.057151124    28.268313      43.382808    
     98770   197.54         355.6594       135426.59     -807625.54     -9597.624       0.36242459     0.056590511    28.29893       43.03299     
     98780   197.56         349.75575      135029.49     -807625.39     -9574.216       0.36244287     0.056449643    28.438734      42.68315     
     98790   197.58         356.20154      136001.36     -807623.33     -9666.4496      0.362461       0.056990602    28.346478      42.333324    
     98800   197.6          348.70316      134556.6      -807623.23     -9635.273       0.36247899     0.056803975    28.373154      41.983494    
     98810   197.62         355.18519      137347.53     -807623.13     -9662.3103      0.36249683     0.056960567    28.368517      41.633663    
     98820   197.64         357.61167      134968.29     -807623.13     -9677.1285      0.36251453     0.057045137    28.407341      41.283826    
     98830   197.66         353.47058      139112.97     -807619.06     -9785.5826      0.36253209     0.057681663    28.340795      40.933998    
     98840   197.68         362.64663      134283.78     -807624.5      -9656.4085      0.36254951     0.056917504    28.298499      40.584176    
     98850   197.7          361.04784      137348.54     -807623.85     -9666.7311      0.36256678     0.056975634    28.384995      40.234341    
     98860   197.72         358.65886      133278.25     -807626.22     -9588.407       0.36258391     0.056511322    28.374206      39.884507    
     98870   197.74         358.46817      137060.39     -807622.61     -9702.4563      0.3626009      0.057180817    28.28101       39.534685    
     98880   197.76         363.32202      132484.57     -807626.99     -9595.0935      0.36261774     0.056545454    28.292449      39.184862    
     98890   197.78         355.69832      137035.81     -807623.79     -9667.9802      0.36263445     0.056972363    28.28881       38.835037    
     98900   197.8          365.73156      134330.04     -807625.3      -9678.1374      0.362651       0.057029615    28.297151      38.485212    
     98910   197.82         346.26352      138884.79     -807619.36     -9793.4279      0.36266742     0.057706366    28.246998      38.135392    
     98920   197.84         340.0898       136345.6      -807622.53     -9684.4642      0.36268369     0.057061753    28.08661       37.785593    
     98930   197.86         363.81916      137059.05     -807626.82     -9663.9582      0.36269982     0.056938398    28.133431      37.435787    
     98940   197.88         356.86191      133619.45     -807627.51     -9632.0745      0.36271581     0.056748043    28.181611      37.085973    
     98950   197.9          348.81985      135467.53     -807625.15     -9684.1171      0.36273165     0.057052164    28.289855      36.736144    
     98960   197.92         347.07237      133161.23     -807628.56     -9581.478       0.36274735     0.056445042    28.276168      36.386316    
     98970   197.94         353.68874      134921.18     -807628.76     -9615.1767      0.36276291     0.056641134    28.230341      36.036493    
     98980   197.96         338.66553      135052.42     -807624.56     -9693.6959      0.36277832     0.057101248    28.320681      35.686657    
     98990   197.98         334.25997      137523.22     -807621.74     -9770.0628      0.36279359     0.057548669    28.304133      35.336823    
     99000   198            341.0398       136088.37     -807624.71     -9710.8464      0.36280872     0.057197482    28.314639      34.986987    
     99010   198.02         344.83914      135553.12     -807625.95     -302.82198      0.3628237      0.057074125    28.295971      34.637152    
     99020   198.04         351.08096      135161.15     -807626.58     -303.13016      0.36283855     0.057129871    28.411456      34.287303    
     99030   198.06         336.60471      135050.57     -807625.08     -302.75199      0.36285324     0.057056288    28.36864       33.937458    
     99040   198.08         351.19956      133615.79     -807629.29     -300.54858      0.3628678      0.056638765    28.438288      33.587604    
     99050   198.1          340.16312      132447.15     -807629.65     -298.72951      0.36288221     0.056293722    28.435029      33.237751    
     99060   198.12         340.82698      135774.26     -807625.31     -303.09601      0.36289648     0.057114317    28.438706      32.887897    
     99070   198.14         339.9706       133992.18     -807624.81     -303.60663      0.36291061     0.057208309    28.376629      32.538049    
     99080   198.16         344.35685      137741.74     -807623.87     -304.90977      0.36292459     0.057451644    28.394491      32.188199    
     99090   198.18         346.20721      133882.8      -807627.37     -301.67408      0.36293843     0.056839802    28.333448      31.838356    
     99100   198.2          356.63977      138172.49     -807623.82     -306.4444       0.36295213     0.057736422    28.320329      31.488513    
     99110   198.22         345.54702      133715.36     -807625.98     -302.77838      0.36296568     0.057043586    28.317366      31.13867     
     99120   198.24         343.94109      137313.19     -807625.33     -302.86396      0.36297909     0.057057601    28.314812      30.788826    
     99130   198.26         336.92802      132077.71     -807629.12     -298.11193      0.36299236     0.056160297    28.347909      30.438979    
     99140   198.28         346.81964      136599.74     -807625.13     -303.17336      0.36300548     0.057111738    28.301906      30.089135    
     99150   198.3          329.57621      132137.33     -807623.97     -301.97916      0.36301846     0.056884739    28.354388      29.739286    
     99160   198.32         354.932        137103.44     -807624.98     -303.99668      0.3630313      0.057262762    28.411055      29.38943     
     99170   198.34         343.60284      132938.16     -807626.57     -300.82062      0.36304399     0.056662518    28.364088      29.039578    
     99180   198.36         357.04818      138285.06     -807622.49     -306.43912      0.36305655     0.057718821    28.408045      28.689721    
     99190   198.38         346.3321       134132.11     -807623.82     -303.5479       0.36306895     0.057172296    28.312293      28.339874    
     99200   198.4          350.74725      137689.97     -807624.41     -303.14099      0.36308122     0.057093727    28.339566      27.990023    
     99210   198.42         345.74061      132520.93     -807627.53     -299.26906      0.36309334     0.056362604    28.328986      27.640172    
     99220   198.44         351.10566      135336.22     -807624.55     -302.69342      0.36310532     0.057005647    28.362773      27.290318    
     99230   198.46         342.13115      133974.88     -807624.34     -301.61096      0.36311715     0.056799939    28.372924      26.940462    
     99240   198.48         358.17841      135470.18     -807626.6      -301.26056      0.36312885     0.056732125    28.358162      26.590607    
     99250   198.5          363.60037      135110.9      -807626.14     -302.33831      0.3631404      0.056933272    28.313088      26.240756    
     99260   198.52         342.16464      137613.94     -807619.51     -305.86968      0.3631518      0.057596454    28.272176      25.890908    
     99270   198.54         365.57893      137240.18     -807623.38     -305.05543      0.36316306     0.057441346    28.362009      25.54105     
     99280   198.56         352.01776      136252.28     -807624.72     -301.7522       0.36317418     0.056817614    28.388095      25.19119     
     99290   198.58         355.94801      136204.19     -807624.38     -302.56813      0.36318516     0.056969527    28.28938       24.841338    
     99300   198.6          355.57933      134092.93     -807625.08     -301.77365      0.36319599     0.056818242    28.349475      24.491481    
     99310   198.62         368.68351      134448.54     -807626.87     -301.67636      0.36320668     0.056798251    28.403317      24.141618    
     99320   198.64         354.61536      132427.73     -807627.64     -298.95795      0.36321723     0.056284807    28.389818      23.791755    
     99330   198.66         358.89082      136495.25     -807625.01     -302.1899       0.36322763     0.056891657    28.409229      23.441891    
     99340   198.68         340.78047      136763.96     -807620.12     -304.63355      0.36323789     0.05735009     28.352619      23.09203     
     99350   198.7          353.46643      138239.93     -807621.1      -305.39078      0.36324801     0.057491045    28.278418      22.742176    
     99360   198.72         348.42882      136284.82     -807624.36     -301.46825      0.36325798     0.056751054    28.252121      22.392322    
     99370   198.74         355.1783       136756.79     -807623.76     -302.99157      0.36326781     0.057036274    28.310624      22.042464    
     99380   198.76         354.52535      134943.73     -807623.17     -303.66147      0.3632775      0.057160855    28.357353      21.6926      
     99390   198.78         358.06636      135724.94     -807625.51     -301.80136      0.36328704     0.056809216    28.350884      21.342737    
     99400   198.8          362.3368       133313.56     -807629.46     -298.57021      0.36329644     0.056199551    28.35596       20.992873    
     99410   198.82         360.14658      135389.28     -807625.79     -302.01912      0.3633057      0.056847287    28.38141       20.643006    
     99420   198.84         342.83891      136105.56     -807621.39     -304.23681      0.36331481     0.057263274    28.347674      20.293142    
     99430   198.86         345.78666      137460.99     -807622.61     -303.53248      0.36332378     0.057129294    28.361088      19.943276    
     99440   198.88         346.53363      135853.09     -807625.25     -301.1595       0.36333261     0.056681287    28.33633       19.593411    
     99450   198.9          356.84575      136881.98     -807623.77     -304.20941      0.36334129     0.057253944    28.325035      19.243546    
     99460   198.92         345.37507      136071.93     -807621.82     -304.83641      0.36334983     0.0573706      28.393483      18.893676    
     99470   198.94         353.01635      135365.39     -807625.49     -302.4004       0.36335823     0.056910825    28.371007      18.543807    
     99480   198.96         357.16826      133789.14     -807629.09     -299.60988      0.36336648     0.056384377    28.507938      18.193928    
     99490   198.98         354.39609      134050.38     -807626.56     -302.10469      0.3633746      0.056852612    28.361863      17.844059    
     99500   199            352.88031      135763.6      -807624.19     -304.5843       0.36338256     0.057317989    28.358718      17.494189    
     99510   199.02         338.8245       135410.85     -807624.87     -9677.3778      0.36339039     0.056909111    28.286614      17.144323    
     99520   199.04         349.90134      135259.41     -807627.06     -9668.9957      0.36339807     0.056858617    28.194941      16.794462    
     99530   199.06         345.32307      134426.66     -807625.64     -9710.6529      0.3634056      0.057102398    28.245316      16.444597    
     99540   199.08         331.10613      137834.59     -807621.08     -9806.44        0.363413       0.05766449     28.209784      16.094733    
     99550   199.1          332.1779       134333.09     -807626.38     -9654.657       0.36342025     0.056770833    28.133066      15.744873    
     99560   199.12         348.66173      135456.06     -807629.81     -9625.0005      0.36342736     0.056595341    28.178893      15.395009    
     99570   199.14         345.89803      132396.56     -807629.04     -9650.4037      0.36343432     0.056743626    28.231048      15.045141    
     99580   199.16         337.55615      135811.26     -807624.31     -9766.6998      0.36344114     0.05742636     28.296453      14.695269    
     99590   199.18         338.65596      132764        -807629.26     -9619.6349      0.36344782     0.056560607    28.368494      14.345392    
     99600   199.2          335.16954      135619.23     -807627.15     -9668.8489      0.36345435     0.056848949    28.261099      13.995521    
     99610   199.22         337.2955       134664.68     -807625.83     -9727.2459      0.36346074     0.057191294    28.222011      13.64565     
     99620   199.24         340.25857      136871.13     -807623.33     -9819.2159      0.36346699     0.057731039    28.287782      13.295775    
     99630   199.26         335.90486      134982.76     -807627.36     -9670.4339      0.3634731      0.056855336    28.370512      12.945896    
     99640   199.28         331.62188      136104.21     -807627.08     -9655.7119      0.36347906     0.05676785     28.314347      12.596019    
     99650   199.3          341.08219      134791.05     -807626.07     -9729.9679      0.36348487     0.0572035      28.286485      12.246142    
     99660   199.32         335.40051      136402.92     -807624.53     -9750.1659      0.36349055     0.057321352    28.275302      11.896265    
     99670   199.34         342.59543      133412.42     -807628.94     -9635.7069      0.36349608     0.056647584    28.303909      11.546387    
     99680   199.36         339.60432      135862.63     -807627.82     -9652.6721      0.36350147     0.05674648     28.295854      11.196507    
     99690   199.38         330.29552      135350.7      -807623.74     -9740.3173      0.36350671     0.057260905    28.287396      10.846628    
     99700   199.4          348.6883       136139.2      -807624.92     -9777.2756      0.36351181     0.057477368    28.289436      10.496747    
     99710   199.42         342.75841      134349.13     -807627.89     -9651.5809      0.36351677     0.056737676    28.229228      10.146868    
     99720   199.44         335.63376      136342.31     -807625.66     -9683.8442      0.36352158     0.056926585    28.309135      9.7969858    
     99730   199.46         329.92292      135506.54     -807623.48     -9724.4558      0.36352625     0.057164587    28.335943      9.4471016    
     99740   199.48         349.72694      135213.9      -807624.96     -9756.7506      0.36353078     0.057353715    28.250621      9.0972196    
     99750   199.5          343.35595      135149.91     -807628.06     -9621.6528      0.36353516     0.056558879    28.273203      8.7473361    
     99760   199.52         348.17306      134635.73     -807627.93     -9640.509       0.3635394      0.05666906     28.15685       8.3974553    
     99770   199.54         347.79859      135658.09     -807624.05     -9755.7196      0.3635435      0.057345648    28.208817      8.0475719    
     99780   199.56         352.38166      135229.25     -807625.1      -9738.7139      0.36354745     0.057245063    28.262198      7.6976862    
     99790   199.58         350.04961      136106.37     -807626.05     -9686.7085      0.36355126     0.056938774    28.240029      7.3478002    
     99800   199.6          352.82759      135009.92     -807626.94     -9665.6567      0.36355493     0.056814458    28.332562      6.9979111    
     99810   199.62         339.5959       137822.64     -807621.45     -9775.6733      0.36355845     0.057460576    28.289408      6.6480224    
     99820   199.64         346.42585      135629.18     -807624.06     -9718.9405      0.36356183     0.057126574    28.318424      6.2981323    
     99830   199.66         349.07185      136132        -807625.77     -9665.6582      0.36356507     0.056812882    28.320614      5.9482415    
     99840   199.68         350.91954      134832.58     -807627.11     -9627.8994      0.36356816     0.056590462    28.407623      5.5983484    
     99850   199.7          348.59944      136266.65     -807623.06     -9741.4018      0.36357111     0.057257137    28.43355       5.2484543    
     99860   199.72         355.94492      134970.68     -807625.19     -9703.0978      0.36357392     0.057031557    28.483535      4.898559     
     99870   199.74         366.71868      135028.53     -807627.81     -9660.47        0.36357658     0.056780589    28.689453      4.5486602    
     99880   199.76         362.00685      134954.79     -807626.3      -9686.373       0.3635791      0.056932442    28.837375      4.1987595    
     99890   199.78         336.81136      137548.14     -807619.5      -9789.4044      0.36358148     0.057537642    28.765847      3.8488604    
     99900   199.8          350.96813      136020.47     -807624.07     -9704.8881      0.36358371     0.057040543    28.813251      3.4989611    
     99910   199.82         353.88542      135632.38     -807625.88     -9653.5604      0.3635858      0.056738538    28.814648      3.1490625    
     99920   199.84         357.98025      134927.28     -807626.24     -9659.554       0.36358775     0.056773461    28.816498      2.7991643    
     99930   199.86         337.27615      136170.01     -807620.74     -9742.6472      0.36358955     0.057261553    28.820443      2.4492667    
     99940   199.88         354.06784      136267.49     -807623.6      -9723.1011      0.36359121     0.057146412    28.839076      2.0993696    
     99950   199.9          361.84409      134984.77     -807626.58     -9659.5215      0.36359273     0.056772493    28.86002       1.749473     
     99960   199.92         367.97278      135585.32     -807626.02     -9703.6477      0.3635941      0.057031624    28.876364      1.3995769    
     99970   199.94         352.23232      136074.69     -807622.27     -9754.5691      0.36359533     0.057330712    28.875595      1.0496816    
     99980   199.96         346.4124       137425.39     -807621.67     -9745.7281      0.36359641     0.057278579    28.838135      0.69978713   
     99990   199.98         363.08869      135059.51     -807627.9      -9621.1321      0.36359736     0.056546145    28.836015      0.34989325   
    100000   200            347.78579      136200.39     -807623.94     -9679.2218      0.36359816     0.05688743     28.82097       0            
Loop time of 3498.93 on 32 procs for 100000 steps with 1080 atoms

Performance: 4.939 ns/day, 4.860 hours/ns, 28.580 timesteps/s, 30.867 katom-step/s
63.3% CPU use with 32 MPI tasks x 1 OpenMP threads

MPI task timing breakdown:
Section |  min time  |  avg time  |  max time  |%varavg| %total
---------------------------------------------------------------
Pair    | 2354.9     | 2801.7     | 3039       | 281.4 | 80.07
Neigh   | 0.0016502  | 0.0031786  | 0.0076336  |   3.7 |  0.00
Comm    | 384.51     | 621.14     | 1067.3     | 597.6 | 17.75
Output  | 2.5261     | 2.5368     | 2.5417     |   0.2 |  0.07
Modify  | 65.875     | 67.015     | 67.959     |   6.7 |  1.92
Other   |            | 6.569      |            |       |  0.19

Nlocal:          33.75 ave          42 max          26 min
Histogram: 3 0 3 8 6 2 2 4 3 1
Nghost:        1033.03 ave        1042 max        1023 min
Histogram: 2 1 2 4 6 4 7 1 4 1
Neighs:              0 ave           0 max           0 min
Histogram: 32 0 0 0 0 0 0 0 0 0
FullNghs:      5329.94 ave        6689 max        4028 min
Histogram: 3 0 3 6 9 1 2 4 3 1

Total # of neighbors = 170558
Ave neighs/atom = 157.92407
Neighbor list builds = 4
Dangerous builds = 0

Total wall time: 1:01:55
