
units		metal
atom_style	atomic

read_data ${STRUCTURE}.data
read_data BaTiO3-sc333.data
Reading data file ...
  orthogonal box = (0 0 0) to (11.898253 11.898253 12.912076)
  2 by 4 by 4 MPI processor grid
  reading atoms ...
  135 atoms
  read_data CPU = 0.267 seconds
replicate $L $L $L
replicate 2 $L $L
replicate 2 2 $L
replicate 2 2 2
Replication is creating a 2x2x2 = 8 times larger system...
  orthogonal box = (0 0 0) to (23.796507 23.796507 25.824152)
  2 by 4 by 4 MPI processor grid
  1080 atoms
  replicate CPU = 0.015 seconds

pair_style allegro
pair_coeff	* * ${MODEL}.pth Ba Ti O
pair_coeff	* * BaTiO3-E0.pth Ba Ti O
mass 1 137.3
mass 2 47.9
mass 3 15.9994

timestep 0.002
compute polarization all allegro polarization 3
compute allegro will evaluate the quantity polarization of length 3 (src/compute_allegro.cpp:53)
compute polarizability all allegro polarizability 9
compute allegro will evaluate the quantity polarizability of length 9 (src/compute_allegro.cpp:53)

thermo_style custom pe fmax fnorm spcpu cpuremain

variable efield equal 1e-2*36.36
fix born all addbornforce 0.0 0.0 ${efield}
fix born all addbornforce 0.0 0.0 0.3636

thermo 10
min_style fire
#minimize 0.0 1e-6 100 100
velocity all create ${TEMP} ${SEED} dist gaussian rot yes mom yes
velocity all create 330 ${SEED} dist gaussian rot yes mom yes
velocity all create 330 2878 dist gaussian rot yes mom yes
fix nvt all nvt temp ${TEMP} ${TEMP} $(100*dt)
fix nvt all nvt temp 330 ${TEMP} $(100*dt)
fix nvt all nvt temp 330 330 $(100*dt)
fix nvt all nvt temp 330 330 0.2000000000000000111
run 5000
Neighbor list info ...
  update: every = 1 steps, delay = 0 steps, check = yes
  max neighbors/atom: 2000, page size: 100000
  master list distance cutoff = 8
  ghost atom cutoff = 8
  binsize = 8, bins = 3 3 4
  1 neighbor lists, perpetual/occasional/extra = 1 0 0
  (1) pair allegro/kk, perpetual
      attributes: full, newton on, kokkos_device
      pair build: full/bin/kk/device
      stencil: full/bin/3d
      bin: kk/device
Per MPI rank memory allocation (min/avg/max) = 3.516 | 3.516 | 3.516 Mbytes
    PotEng          Fmax          Fnorm          S/CPU         CPULeft    
-807708.29      1.5957167      37.044534      0              0            
-807644.21      3.7433961      46.532171      2.1680248      2301.6351    
-807635.35      2.5896191      36.171915      25.917279      1244.5862    
-807604.24      3.8146708      39.537341      25.88181       892.06693    
-807603.54      4.399682       51.054706      25.827076      715.7156     
-807565.67      4.2232637      41.85264       25.802809      609.78606    
-807599.31      3.0128567      40.230025      25.88239       538.93903    
-807641.99      4.553343       36.011512      25.896607      488.20869    
-807682.51      2.7311297      35.437928      25.824575      450.13063    
-807664.72      3.5063398      35.972955      25.823317      420.42934    
-807651.88      3.6356169      35.37008       25.88838       396.54317    
-807657.19      2.3403748      28.742745      25.900584      376.92163    
-807628.63      2.8022152      32.370183      25.882592      360.51689    
-807584.77      3.3497947      39.820226      25.943568      346.54252    
-807567.51      3.6830957      38.709114      25.964451      334.49865    
-807627.63      3.1773398      33.67496       25.899802      324.04036    
-807653.24      3.6071328      30.884922      25.894327      314.84357    
-807663.26      3.1484845      34.125215      25.904164      306.67915    
-807645.96      4.9667764      44.376253      25.934414      299.36695    
-807677.56      3.1914681      36.207354      25.889892      292.80063    
-807642.47      4.4110326      38.978097      25.869582      286.85961    
-807616.98      3.3966286      39.053672      25.962385      281.41607    
-807560.6       4.7972748      46.166748      25.990529      276.4233     
-807602.68      4.0644196      49.616165      25.920071      271.85295    
-807610.62      5.1645734      39.838152      25.84342       267.65399    
-807639.69      3.1578617      36.320925      25.890618      263.7466     
-807639.03      4.9803959      46.600671      25.918762      260.1024     
-807679.44      2.8966339      38.112733      25.868717      256.71265    
-807660.08      3.4506615      36.572737      25.811982      253.55173    
-807638.48      2.7173213      33.178784      25.900261      250.56065    
-807603.46      3.500026       35.453205      25.920859      247.73841    
-807605.25      4.0646115      42.32958       25.914141      245.0749     
-807594.22      3.1587274      37.616676      25.830986      242.57189    
-807606.42      3.7681082      34.610505      25.891395      240.18434    
-807638         3.7661804      31.565276      25.928543      237.90693    
-807670.58      2.5303552      32.867299      25.847651      235.75365    
-807673.28      2.7910101      33.363612      25.807092      233.70635    
-807644.72      4.4020728      37.845027      25.896762      231.73197    
-807645.39      2.7357998      31.668812      25.951002      229.83138    
-807621.09      4.2903773      34.622832      25.955542      228.00769    
-807599.89      4.008139       43.810514      25.892027      226.26679    
-807569.05      3.7782942      41.492007      25.953283      224.58177    
-807617.98      3.2039005      36.389195      25.94322       222.96026    
-807645.15      4.0654347      36.347007      25.913761      221.40091    
-807671.77      3.0236399      34.992573      25.923262      219.89343    
-807640.03      4.9871508      46.301564      25.934048      218.43418    
-807664.38      3.0086713      35.474678      25.917378      217.02406    
-807643.09      4.3408487      37.061096      25.890562      215.66138    
-807625.71      3.3575798      37.477856      25.925666      214.33446    
-807564.37      3.8994923      43.219566      25.926304      213.04586    
-807597.31      3.7671513      43.045261      25.941547      211.79135    
-807618.32      3.7476703      36.024947      25.812777      210.58784    
-807652.87      2.8649827      32.669377      25.876969      209.40744    
-807639.47      4.3768128      40.755402      25.938962      208.24922    
-807668.76      3.103715       34.972283      25.941081      207.11935    
-807664.48      3.4617737      33.832804      25.865451      206.02567    
-807644.72      3.4816882      31.795544      25.918678      204.95094    
-807601.08      2.8987747      35.688497      25.945119      203.89734    
-807593.97      3.412779       38.678924      25.917922      202.86985    
-807601.17      3.8187872      40.546212      25.843327      201.87244    
-807616.83      2.7969857      32.616724      25.902993      200.88885    
-807634.07      3.8331043      33.028492      25.961118      199.91862    
-807658.6       3.9468426      35.188038      25.922145      198.97136    
-807672.49      2.6983177      36.12292       25.876726      198.04662    
-807648.29      4.104077       37.839656      25.920428      197.13426    
-807632.91      3.2356959      34.961322      25.921343      196.23802    
-807613.03      3.9614629      36.618606      25.924163      195.35696    
-807603.14      4.3516997      44.308383      25.841424      194.49868    
-807579.42      3.6787679      40.284087      25.859411      193.65254    
-807610.48      2.9867362      36.614288      25.900008      192.81594    
-807639.71      3.8488125      36.514737      25.920135      191.99036    
-807669.95      2.8742294      36.153885      25.887934      191.18008    
-807648.48      4.5238916      41.384697      25.864739      190.38363    
-807649.8       3.1775301      36.916982      25.930269      189.59269    
-807640.61      3.9375707      35.947308      25.929152      188.8128     
-807626.05      2.9175681      37.342675      25.908203      188.0452     
-807579.46      3.5225066      39.282526      25.912296      187.28729    
-807584.71      3.072394       40.748098      25.917376      186.53863    
-807620.79      3.6175057      33.97839       25.916517      185.79935    
-807652.03      3.3672996      33.725143      25.913365      185.06926    
-807647.94      4.300549       37.311685      25.869874      184.35118    
-807652.9       3.5686509      37.562656      25.840041      183.6436     
-807661.66      2.4525116      34.657567      25.874446      182.94121    
-807644.42      3.6100628      33.22907       25.892058      182.24511    
-807608.04      3.2641226      36.075377      25.888673      181.55665    
-807582.34      3.1877464      40.266239      25.936507      180.87181    
-807601.1       3.6558332      41.283408      25.903497      180.1963     
-807622.3       3.9520081      35.165843      25.893758      179.52814    
-807636.71      3.6990741      34.578671      25.905194      178.86558    
-807645.84      4.1118546      38.192189      25.920313      178.2082     
-807669.67      2.7547759      35.671745      25.93887       177.55559    
-807650.86      3.7640269      36.698923      25.930631      176.90941    
-807633.99      3.5456057      34.10156       26.016473      176.26325    
-807604.28      4.4947314      36.075481      26.072483      175.6191     
-807604.4       4.3540441      42.477767      26.025628      174.98348    
-807592.97      4.531369       39.121164      26.039936      174.35226    
-807615.46      3.2626627      35.599357      26.06646       173.72453    
-807635.39      4.2685979      36.839282      26.035059      173.10377    
-807666.45      3.3012692      34.998814      25.954156      172.49274    
-807656.67      4.3794809      36.836837      25.933129      171.88754    
-807647.7       3.3903643      34.629393      26.022227      171.28145    
-807633.56      4.2425206      33.606485      26.01721       170.68005    
-807623.63      4.0229777      35.567759      26.034841      170.08189    
-807592.83      4.4319368      38.598878      25.990013      169.49043    
-807588.39      3.3108534      38.360943      26.014246      168.90159    
-807619.34      3.616135       33.575828      26.016283      168.31653    
-807652.32      2.6898306      32.847117      26.028533      167.73458    
-807658.95      2.8052358      33.668772      25.98133       167.15889    
-807649.75      3.9098394      36.901633      26.015381      166.58491    
-807654.21      2.855309       33.245895      25.985796      166.01597    
-807642.35      3.6846967      32.817168      25.996251      165.44983    
-807614.7       3.7214579      35.836576      25.98698       164.88745    
-807580.78      4.5152381      40.136274      26.063632      164.32431    
-807602.24      3.2946593      38.975894      25.986616      163.76825    
-807625.97      3.5347768      34.55067       25.907368      163.21917    
-807648.37      3.2034         33.246568      25.966658      162.66998    
-807642.59      4.9057317      39.128374      26.034775      162.12029    
-807661.98      2.8764503      35.539927      25.95649       161.57722    
-807650.74      3.7422909      35.783631      25.925696      161.0383     
-807636.71      3.0258533      33.326447      25.991739      160.49882    
-807596.39      3.9492225      38.741056      26.044474      159.95945    
-807601.16      3.6659148      40.259701      25.980788      159.4256     
-807601.29      3.6344489      37.617995      25.904729      158.8977     
-807625.8       2.7457537      34.846218      25.958904      158.36962    
-807632.72      4.4614822      36.609115      26.042816      157.84009    
-807661.02      2.9802051      34.577396      25.989899      157.31524    
-807658.74      3.2264978      35.037478      25.948841      156.79441    
-807647.05      3.40401        33.92354       25.975373      156.27457    
-807624.36      3.7768393      34.033467      26.053483      155.75347    
-807615.21      3.2869085      35.482558      26.052648      155.23454    
-807598.76      3.6253476      38.89645       25.964831      154.72138    
-807597.1       2.8273293      37.889624      25.96638       154.21012    
-807619.09      3.9981314      33.714694      26.058443      153.69697    
-807646.94      3.2597933      33.903987      26.055891      153.18586    
-807660.09      2.6144105      34.663858      25.953319      152.68081    
-807647.87      3.7142867      37.658868      25.992858      152.17594    
-807643.88      3.0784731      34.804146      25.916484      151.67587    
-807632.57      4.6905928      34.91197       26.006048      151.17395    
-807613.79      3.9122488      37.65248       25.956857      150.67565    
-807585.67      4.861818       39.254993      25.992164      150.17761    
-807599.52      3.4092136      38.587482      26.031803      149.67968    
-807626.73      3.4813046      34.68486       26.022255      149.18372    
-807652.02      3.5514549      34.517201      25.991419      148.69049    
-807645.72      3.9173369      38.076575      26.007673      148.19818    
-807650.91      2.9878475      36.577849      25.979124      147.7084     
-807646.14      3.6749403      35.563479      25.91344       147.22246    
-807633.91      3.1755071      35.054137      25.964162      146.73607    
-807595.82      3.4306839      38.513753      25.97157       146.25079    
-807592.55      3.2821147      40.072149      25.985796      145.76636    
-807604.63      3.7209967      38.391418      25.96162       145.28411    
-807632.99      2.8842145      34.329913      25.97272       144.80277    
-807636.13      3.3708131      36.414795      26.021465      144.32104    
-807652.53      3.8039481      35.706904      26.02436       143.8405     
-807654.35      2.9636148      36.19289       25.935633      143.36419    
-807646.12      3.516153       34.971579      25.935229      142.88908    
-807619.68      3.7338683      35.173163      25.966239      142.4141     
-807602.53      3.6409696      37.586067      25.958984      141.94051    
-807601.99      3.6882018      38.634159      25.927194      141.46907    
-807608.32      3.2813759      37.127219      25.956838      140.99777    
-807621.45      3.0857933      34.868261      25.966535      140.52724    
-807642.55      3.7281543      35.235906      26.015702      140.05623    
-807657.8       3.3847527      35.760618      25.945371      139.58849    
-807650.99      3.3850139      35.957914      25.868206      139.12417    
-807636.58      3.3622662      35.443972      25.99618       138.65686    
-807624.34      3.6582165      35.602522      25.977493      138.19113    
-807613.45      4.0655447      38.026926      25.937583      137.72759    
-807595.15      3.6663444      38.008902      25.92082       137.26548    
-807605.53      2.8671042      36.538143      26.009965      136.80165    
-807626.73      4.0843833      34.901068      26.024417      136.33835    
-807652.99      2.8079421      33.980995      26.008122      135.87645    
-807649.65      4.6802869      36.054267      25.963385      135.41674    
-807648.83      3.6528465      34.643395      25.952975      134.95821    
-807640.36      3.7768995      34.482004      26.019872      134.49864    
-807632.42      3.0945121      34.405006      26.010414      134.0402     
-807601.73      2.946685       37.228113      25.972607      133.58367    
-807595.4       3.4156147      39.076109      26.016061      133.12675    
-807609.59      3.2855322      36.972028      25.988107      132.67142    
-807638.75      3.8090256      34.307302      25.970581      132.21736    
-807642.76      3.3082725      35.917432      25.977163      131.7639     
-807648.74      4.3984199      36.809486      25.99702       131.31068    
-807649.48      3.3026819      35.911655      25.995869      130.85825    
-807644.6       3.1987724      34.759437      26.023258      130.40586    
-807621.66      3.1590123      35.302869      25.95418       129.956      
-807600.78      3.8556106      37.432651      26.001491      129.50563    
-807602.53      3.5374696      39.052357      26.001005      129.05599    
-807617.97      3.0158584      35.89334       25.961512      128.60805    
-807632.44      3.4009147      34.093758      25.987366      128.16014    
-807640.66      3.4856279      35.360064      25.996283      127.71268    
-807656.25      3.512704       34.927758      25.981424      127.26625    
-807649.18      3.0023657      35.622515      25.95368       126.82116    
-807636.83      3.2201998      34.515981      25.959642      126.37654    
-807615.06      3.8192164      36.261101      25.995377      125.9317     
-807609.62      3.1686741      38.539798      26.014368      125.48703    
-807601.03      3.6209009      39.31563       26.014496      125.04298    
-807613.55      3.2095919      37.055935      26.018107      124.59946    
-807627.66      3.9612555      36.710199      26.012015      124.15669    
-807651.03      3.2785303      36.099055      26.046126      123.71373    
-807649.99      3.4536635      37.456989      25.986804      123.27272    
-807645.39      4.8441839      36.388647      25.995438      122.83208    
-807631.08      5.0954037      37.556449      26.057616      122.39063    
-807623.45      3.3088487      36.503154      26.006647      121.95086    
-807603.28      5.1303682      40.028873      25.988946      121.51204    
-807599.75      3.7345617      38.790271      25.977026      121.07402    
-807610.13      4.9121794      37.25481       26.018533      120.63562    
-807637.86      3.5758458      34.965766      26.001849      120.19811    
-807647.78      4.4823092      36.272497      26.002151      119.76111    
-807645.03      3.5737932      37.210027      26.013428      119.32438    
-807642.06      4.1607775      36.497286      25.957119      118.88934    
-807637.8       3.8437782      34.827132      26.001863      118.45384    
-807621.14      2.9908763      35.718774      25.963422      118.01962    
-807597.12      3.0214236      37.527811      26.000919      117.58511    
-807601.69      3.3436221      38.472085      26.058541      117.1499     
-807618.86      2.9827963      36.585668      26.048235      116.71538    
-807637.55      3.3532744      35.235846      25.958249      116.28314    
-807638.14      4.9294196      38.748473      25.978916      115.85092    
-807648.25      3.5578044      37.190157      25.975042      115.41922    
-807645.89      3.9638181      37.281106      25.970448      114.98804    
-807636.14      3.2128384      35.635517      25.940655      114.55786    
-807608.63      4.1720487      37.448743      25.974227      114.12745    
-807602.94      3.593182       39.47673       25.99305       113.69709    
-807605.67      3.713176       38.534447      25.989059      113.26723    
-807621.25      3.3943825      36.126469      26.017143      112.83724    
-807630.06      3.795175       36.433893      26.02154       112.40759    
-807647.71      3.0785858      35.554159      26.03467       111.97811    
-807651.47      3.8623297      35.886131      25.969412      111.55022    
-807645.43      3.1450436      34.161798      25.973275      111.12264    
-807627.81      6.0046808      34.960081      25.939358      110.69604    
-807615.44      3.4343919      35.069326      25.950872      110.2696     
-807607.6       4.5770643      36.506836      25.974241      109.84311    
-807608.62      3.3617771      36.563394      26.000489      109.41653    
-807618.04      4.0830043      35.513939      25.981358      108.99063    
-807638.35      2.8199452      34.945684      26.031522      108.56424    
-807650.87      3.7762237      35.214337      25.949042      108.13961    
-807647.4       3.0957484      35.95534       25.948878      107.71533    
-807640.21      3.5480637      35.289269      25.945596      107.29143    
-807630.37      3.4883674      34.376693      25.947885      106.86782    
-807619.2       3.5142712      35.910641      25.964726      106.44426    
-807603.66      4.1206111      37.888024      25.997548      106.02048    
-807608.47      3.0073457      36.432773      26.028774      105.59652    
-807625.4       3.5020062      34.031127      26.030326      105.17287    
-807643.42      3.1256686      33.435264      26.035831      104.74946    
-807641.73      3.9502435      36.819792      26.010111      104.32679    
-807645.74      3.607296       34.951803      25.952792      103.90533    
-807641.07      3.9539929      34.906611      25.903811      103.48495    
-807632.81      3.1803191      34.662012      25.911241      103.06473    
-807609.98      3.5496401      36.707063      25.93467       102.64442    
-807605.22      3.57705        38.206169      25.981264      102.22369    
-807611.37      3.6503851      37.254731      25.983622      101.80321    
-807629.33      3.299755       35.823008      26.011047      101.3826     
-807637.26      3.9347334      35.010503      26.007782      100.96234    
-807644.44      3.0375185      36.083455      25.993726      100.54256    
-807646.01      3.6243296      36.040139      25.99981       100.12298    
-807643.11      4.0042576      34.476376      25.970412      99.704105    
-807626.08      2.9319825      34.094685      25.984857      99.285286    
-807610.77      4.121903       35.742952      26.009714      98.866379    
-807605.17      3.7017468      38.280618      26.011463      98.447718    
-807614.25      3.2163892      37.206044      26.042963      98.028881    
-807622.97      3.4625494      35.31606       26.019498      97.610642    
-807636.22      3.7364114      36.333535      25.999234      97.192947    
-807647.27      2.9586006      36.125175      25.938579      96.776344    
-807646.05      3.814005       36.249071      25.922505      96.360201    
-807636.37      3.4537243      35.183467      25.916184      95.944377    
-807621.65      5.051443       35.986345      25.90182       95.528977    
-807613.29      3.7011311      37.399849      25.967863      95.112914    
-807606.15      5.1547656      38.003041      25.980576      94.696917    
-807610.63      3.4769326      36.469301      26.009662      94.280774    
-807624.99      4.4526264      35.803478      25.993547      93.865078    
-807643.6       3.2358035      34.994959      25.989338      93.449669    
-807645.56      4.3570834      36.537781      25.945898      93.035046    
-807641.51      3.6040477      36.496746      25.917343      92.621005    
-807634.08      3.0796336      35.330415      25.940139      92.206884    
-807626.99      2.751802       35.848369      25.958269      91.792747    
-807608.75      3.2863877      37.58507       25.983084      91.378513    
-807605.08      2.9680631      37.558111      26.010678      90.964156    
-807613.1       3.0644248      36.38954       25.994509      90.550214    
-807632.27      3.1234039      35.002732      25.991881      90.136516    
-807641.24      3.8477912      35.541088      25.951682      89.723512    
-807642.76      3.3566721      36.48072       25.981976      89.310346    
-807642.23      4.0889354      36.260249      25.929391      88.898007    
-807639.51      3.3072718      34.981841      25.927325      88.485883    
-807622.43      3.4234641      35.620365      25.934999      88.073859    
-807606.37      3.2158559      37.004796      25.97533       87.661556    
-807608.91      3.3758074      37.442721      25.975057      87.24945     
-807621.93      3.1134109      35.684989      25.964562      86.837655    
-807632.1       2.8483759      34.808196      26.022984      86.42539     
-807638.81      3.2167183      35.032222      26.023334      86.013318    
-807646.94      3.2583877      34.964026      25.961375      85.602126    
-807645.15      3.4518968      35.158661      25.918117      85.191593    
-807637.03      3.4745284      33.432846      25.978031      84.780576    
-807617.05      3.1171985      34.557102      25.99813       84.369522    
-807611.99      3.0987414      35.986497      25.966333      83.958992    
-807613.59      3.285955       36.478347      25.973964      83.548555    
-807621.44      2.8068508      33.979174      25.999286      83.138025    
-807629.85      3.3509326      34.473276      26.017853      82.727478    
-807644.22      3.1378665      34.817572      25.99466       82.31735     
-807648.13      3.0292177      35.196605      25.939749      81.907959    
-807640.65      2.492859       34.267837      25.934149      81.498788    
-807629.78      3.2621376      34.494428      25.985749      81.089252    
-807622.2       3.6872938      35.060067      25.972418      80.680016    
-807612.84      3.1830651      36.734254      25.985004      80.270816    
-807610.9       3.1981641      36.257363      25.954749      79.862078    
-807618         2.8096364      36.006881      25.966644      79.453379    
-807637.49      3.9513149      35.202497      25.977621      79.044729    
-807644.62      3.3584589      36.030186      25.930744      78.636689    
-807642.67      4.3715672      36.284111      25.924903      78.228851    
-807636.66      3.7145842      36.224287      25.950106      77.82092     
-807632.03      3.4593539      36.511274      25.929866      77.413326    
-807619.5       3.2673697      36.516613      25.927645      77.005896    
-807605.88      3.0510061      37.537607      25.93157       76.598571    
-807608.63      3.6228464      37.211829      25.959616      76.191129    
-807627.19      3.4295329      34.886568      25.969117      75.783744    
-807637.74      3.9396341      35.217949      25.98791       75.376333    
-807640.7       3.2153795      34.912033      25.967276      74.969251    
-807641.27      3.0454541      35.53422       25.907435      74.562842    
-807642.76      3.4652395      33.743484      25.96116       74.156089    
-807628.79      2.9558791      34.748724      25.946914      73.749597    
-807612.21      3.2714654      36.369192      25.94461       73.343259    
-807607.13      3.4051436      36.549669      25.993977      72.93663     
-807615.41      3.4258038      36.834505      25.990014      72.530172    
-807626.01      3.2190577      36.517597      26.012437      72.123662    
-807632.34      3.1925385      36.070997      25.949035      71.717819    
-807642.93      3.576267       36.121713      25.967276      71.311952    
-807644.73      3.3933393      36.098182      25.929139      70.906527    
-807638.68      3.7196519      35.399911      25.926533      70.501246    
-807624.22      3.5473627      35.464833      25.932215      70.09604     
-807614.08      3.2958632      35.627324      25.915857      69.691085    
-807612.21      3.2618119      36.325746      25.927772      69.286153    
-807616.4       3.2258691      34.936538      25.951062      68.881156    
-807621.75      2.8300044      34.912964      25.961828      68.476194    
-807635.34      3.7742874      34.826589      25.945833      68.071476    
-807645.08      3.0659732      35.105692      25.899089      67.667234    
-807643.39      3.5063259      34.935541      25.908804      67.263027    
-807633.96      3.2440478      35.016706      25.894368      66.859039    
-807624         2.8199711      35.097691      25.867043      66.455362    
-807617.76      4.0262981      35.410572      25.919361      66.0514      
-807610.16      3.1497776      36.989235      25.932797      65.647448    
-807614.63      3.6329152      35.029208      25.948828      65.243488    
-807625.76      3.2665441      34.967091      25.945983      64.83966     
-807640.65      2.6568004      34.014625      25.923815      64.436098    
-807643.63      4.0909592      34.64397       25.926026      64.032626    
-807639.15      3.319448       34.797613      25.954971      63.629056    
-807635.66      3.6769673      33.827552      25.936814      63.225718    
-807626.73      3.6238219      34.685613      25.926284      62.822558    
-807614.24      4.4050686      35.617375      25.955305      62.419301    
-807608.47      3.7301944      35.869292      25.9581        62.016131    
-807617.23      3.1648869      34.984714      25.984953      61.612885    
-807630.84      2.8876128      34.64865       25.930054      61.210108    
-807640.38      3.2103048      34.248302      25.936734      60.807387    
-807638.46      4.0060387      36.055736      25.94682       60.404698    
-807641.02      3.7537547      34.788402      25.934652      60.002187    
-807634.36      2.9772711      35.17642       25.940587      59.599735    
-807623.08      3.9117497      34.679302      25.928397      59.197456    
-807610.66      3.6357146      35.636369      25.932191      58.795248    
-807612.31      3.2641801      35.76105       25.960863      58.392956    
-807621         3.4056416      35.770166      25.951391      57.990819    
-807629.17      3.181157       34.547047      25.962647      57.588709    
-807637.62      3.4386473      34.704414      25.956505      57.18673     
-807643.47      2.7251061      34.276428      25.974766      56.784737    
-807642.87      3.0439569      33.862348      25.913648      56.383199    
-807629.55      2.9296088      34.814064      25.922825      55.981694    
-807621.19      2.844618       33.601156      25.952699      55.580104    
-807613.29      3.9317305      36.050428      25.933347      55.178715    
-807616.15      4.1316264      36.172203      25.90961       54.777548    
-807618.27      3.894976       35.733689      25.910834      54.376458    
-807629.91      3.0369243      34.816538      25.938778      53.975296    
-807638.71      3.3324247      35.494527      25.921379      53.574315    
-807641.85      3.4427525      36.395585      25.923177      53.173407    
-807637.99      3.4670844      35.183921      25.934117      52.772523    
-807628.02      4.8739871      35.662139      25.944451      52.371667    
-807622.49      2.981541       35.715248      25.942617      51.970905    
-807613.77      3.4920155      36.8066        25.915787      51.570365    
-807613.08      3.2131584      35.554628      25.960816      51.169671    
-807620.1       3.0393115      34.607292      25.965788      50.769036    
-807633.63      3.7593667      34.315061      25.933408      50.368647    
-807640.21      3.6885535      35.20073       25.921816      49.968395    
-807640.19      3.9885203      35.538794      25.922205      49.568219    
-807636.27      3.5288425      35.071841      25.92835       49.168089    
-807633.12      4.8363505      34.963686      25.931379      48.768022    
-807620.76      3.8496834      35.890641      25.949195      48.367945    
-807611.03      3.6751461      35.759157      25.940563      47.967987    
-807611.35      4.3481951      36.957779      25.942495      47.568095    
-807625.28      3.4112747      35.3469        25.971628      47.168145    
-807631.89      3.3901807      35.162761      25.986684      46.768203    
-807636.3       4.8501068      35.7293        25.991528      46.368319    
-807641.5       5.1831011      35.002262      26.017159      45.968399    
-807636.31      4.0072734      36.314568      25.961687      45.568805    
-807630.03      4.1879521      35.251166      25.969843      45.169251    
-807613.56      4.0281546      37.157608      25.95923       44.769817    
-807612.32      3.1208387      36.09152       25.990108      44.370324    
-807615.69      3.5807688      36.505655      25.9747        43.970972    
-807624.36      2.6525983      34.925173      25.952577      43.571786    
-807632.64      3.7434996      34.749921      25.957427      43.172651    
-807639.13      3.0008867      35.396709      25.920516      42.773738    
-807643.9       2.7427845      34.266198      25.93043       42.374852    
-807637.2       2.5581205      33.964957      25.898171      41.976162    
-807625.26      3.5884941      34.42942       25.934756      41.577391    
-807616.32      3.1748302      35.729446      25.895932      41.178839    
-807613.15      3.7484613      36.511377      25.88566       40.780388    
-807613.88      3.0577628      35.783434      25.939797      40.381792    
-807621.69      3.2854232      35.416455      25.945955      39.983239    
-807635.36      2.6821201      34.785382      25.978013      39.584632    
-807639.51      3.2109701      35.100615      25.967144      39.186133    
-807640.55      2.5756592      33.902919      25.936043      38.787813    
-807635.12      3.0275454      34.34917       25.988042      38.389371    
-807627.58      3.2743796      34.75889       25.961419      37.99109     
-807618.75      3.1343486      33.832155      25.968773      37.592849    
-807612.58      2.969579       35.224712      25.915467      37.194855    
-807616.05      2.5901161      34.891769      25.943048      36.796828    
-807628.98      2.7474657      33.720443      25.983833      36.398725    
-807635.64      2.8992296      34.346845      25.980608      36.000698    
-807638.21      3.5040669      34.783548      25.950773      35.602833    
-807639.75      3.578268       34.677964      25.948059      35.205036    
-807635.52      4.6693172      35.321245      25.969256      34.807233    
-807626.4       3.0801623      34.747112      25.945882      34.409565    
-807616.3       3.1936033      35.564151      25.941144      34.01197     
-807613.8       2.994485       35.883281      25.928728      33.614472    
-807620.99      3.0757169      35.28741       25.952791      33.216958    
-807630.04      3.3327554      34.11412       25.973199      32.819443    
-807634.46      3.1194186      34.416345      25.932955      32.422104    
-807640.75      3.0028166      33.775051      25.915461      32.024872    
-807641.11      2.6430998      33.557348      25.925601      31.627665    
-807634.07      3.2753273      33.947258      25.95959       31.230418    
-807625.24      3.0300007      33.568269      25.934608      30.833297    
-807617.53      2.7877903      34.098105      25.92554       30.436254    
-807615.85      3.5377498      35.179489      25.97811       30.039126    
-807621.08      2.7126117      34.561508      25.961525      29.642098    
-807628.45      2.5457487      34.143439      25.99381       29.245042    
-807638.21      3.0684815      34.174608      25.993078      28.848046    
-807640.16      3.2137109      35.266985      25.985215      28.451127    
-807638.8       3.5677584      35.435896      25.963756      28.054317    
-807631.06      3.380634       35.00475       25.98181       27.657518    
-807621.65      2.5197302      35.317615      25.98099       27.260776    
-807616.64      3.601431       35.34089       26.006515      26.864029    
-807614.26      3.1911474      35.929817      25.975018      26.467411    
-807618.78      3.5598619      35.6911        25.999361      26.070792    
-807630.72      3.0035887      34.199258      25.976691      25.674278    
-807636.11      2.6557785      35.223695      25.971136      25.277829    
-807639.51      3.4426688      35.368349      25.921687      24.881538    
-807636.91      2.9402898      35.414602      25.947838      24.485241    
-807629.77      3.1190641      34.896771      25.927568      24.089034    
-807621.86      3.3422754      35.586797      25.88461       23.692963    
-807614.79      2.848635       36.756339      25.894085      23.296917    
-807613.43      3.1504041      37.000203      25.907935      22.900889    
-807619.91      3.5818788      36.994776      25.951239      22.504823    
-807629.79      3.4115262      35.812556      25.962664      22.108784    
-807634.32      3.0280073      36.603629      25.983385      21.712756    
-807638.43      3.192164       35.905689      25.996778      21.316754    
-807634.96      3.8483632      35.810394      26.041057      20.920725    
-807630.14      3.3969686      35.912322      26.015748      20.524794    
-807620         3.0368573      36.173754      26.007294      20.128927    
-807615.12      3.7739319      37.438983      25.98537       19.733148    
-807614.08      2.8679598      36.968086      25.972328      19.337438    
-807622.57      3.2287465      36.608602      25.955647      18.941801    
-807628.05      2.8419889      35.890552      25.949221      18.54622     
-807638.46      3.0755414      35.525751      25.907053      18.150748    
-807638.13      3.8588436      36.328692      25.94011       17.755269    
-807636.31      2.7579603      34.935934      25.90553       17.359883    
-807627.72      4.2387851      35.988492      25.909519      16.964532    
-807619.91      2.8567874      35.962833      25.921035      16.569207    
-807614.73      3.2075972      36.551972      25.942244      16.173895    
-807616.7       2.9470943      35.607191      25.933866      15.778637    
-807622.89      3.2882266      35.547994      25.92792       15.383428    
-807633.03      3.4887366      34.536362      25.955247      14.988227    
-807638.44      3.5232139      34.864424      25.966384      14.593056    
-807638.97      3.7335604      35.037906      25.956037      14.19794     
-807635.72      3.6415433      34.844025      25.973265      13.802847    
-807629.19      3.4102222      34.757048      25.994489      13.407774    
-807620.95      3.1374593      34.807024      25.973868      13.012768    
-807614.39      3.2585605      36.110691      25.955129      12.617823    
-807619.66      2.8158664      35.13946       25.957778      12.222917    
-807625.46      2.5992633      34.070192      25.995032      11.828016    
-807633.58      2.9963411      34.488913      25.965842      11.433186    
-807636.93      3.2186842      34.583921      25.931316      11.038427    
-807640         3.0284151      34.460457      25.926794      10.643711    
-807634.67      3.1556889      35.39711       25.924231      10.249035    
-807627.59      3.7258516      35.66088       25.942775      9.8543816    
-807620.38      3.6881758      35.818855      25.918322      9.4597854    
-807616.78      4.1064353      36.719261      25.904152      9.0652362    
-807619.1       2.9311143      35.301426      25.972511      8.6706758    
-807626.12      3.2124937      35.715716      25.945285      8.276173     
-807631.51      3.2285795      35.418558      25.919777      7.8817238    
-807639.21      3.1141733      34.742311      25.935919      7.487301     
-807638.51      2.598413       34.520438      25.949235      7.0929076    
-807633.8       3.6958214      34.987592      25.96385       6.698544     
-807627.08      2.9300656      33.689628      25.959769      6.3042204    
-807620.54      3.1354999      34.77243       25.951544      5.9099382    
-807619         2.8023351      34.961357      25.93179       5.5157012    
-807619.17      3.2479716      35.834794      25.959068      5.1214888    
-807627.53      3.0909683      34.783988      25.980283      4.7273055    
-807634.3       2.9946208      33.998974      25.963563      4.3331657    
-807637.36      3.5807355      34.901902      25.942996      3.9390688    
-807636.83      3.0071265      35.074783      25.949738      3.5450053    
-807631.39      3.2643918      35.432173      25.969059      3.1509724    
-807623.63      2.592373       35.003745      25.943452      2.7569814    
-807618.42      3.3405395      36.007299      25.931052      2.3630271    
-807615.4       3.3253361      36.448629      25.96201       1.9691018    
-807619.68      3.4469699      36.137319      25.945022      1.5752138    
-807626.69      3.1554441      35.376522      25.990469      1.1813557    
-807633.42      3.1239302      35.680927      25.943231      0.78753703   
-807634.94      3.7749609      35.91163       25.947448      0.39375173   
-807636.53      3.120757       35.025312      25.922921      0            
Loop time of 196.868 on 32 procs for 5000 steps with 1080 atoms

Performance: 4.389 ns/day, 5.469 hours/ns, 25.398 timesteps/s, 27.430 katom-step/s
66.6% CPU use with 32 MPI tasks x 1 OpenMP threads

MPI task timing breakdown:
Section |  min time  |  avg time  |  max time  |%varavg| %total
---------------------------------------------------------------
Pair    | 101.09     | 144.83     | 192.73     | 309.8 | 73.57
Neigh   | 0          | 0          | 0          |   0.0 |  0.00
Comm    | 1.8196     | 49.713     | 93.456     | 528.7 | 25.25
Output  | 0.025098   | 0.029722   | 0.030553   |   0.5 |  0.02
Modify  | 1.9682     | 1.9809     | 1.9946     |   0.4 |  1.01
Other   |            | 0.3146     |            |       |  0.16

Nlocal:          33.75 ave          48 max          21 min
Histogram: 8 8 0 0 0 0 0 8 0 8
Nghost:        1106.25 ave        1119 max        1092 min
Histogram: 8 0 8 0 0 0 0 0 8 8
Neighs:              0 ave           0 max           0 min
Histogram: 32 0 0 0 0 0 0 0 0 0
FullNghs:       5494.5 ave        7896 max        3378 min
Histogram: 8 8 0 0 0 0 0 8 0 8

Total # of neighbors = 175824
Ave neighs/atom = 162.8
Neighbor list builds = 0
Dangerous builds = 0

reset_timestep 0


variable interval equal 1000
thermo 10

variable nintervals equal $(v_PERIOD/v_interval)
variable nintervals equal 100
variable efield equal 1e-2*36.36*cos((step/${PERIOD})*2*3.14)
variable efield equal 1e-2*36.36*cos((step/100000)*2*3.14)
fix born all addbornforce 0.0 0.0 v_efield

variable Px equal f_born[1]+c_polarization[1]
variable Py equal f_born[2]+c_polarization[2]
variable Pz equal (f_born[3]+c_polarization[3])/vol
variable pe equal pe

fix aveP all ave/time 1 $(v_interval/2) ${interval} v_efield v_Pz v_pe f_born file Pz.${MODEL}.${STRUCTURE}.${TEMP}.$L.${ITER}
fix aveP all ave/time 1 500 ${interval} v_efield v_Pz v_pe f_born file Pz.${MODEL}.${STRUCTURE}.${TEMP}.$L.${ITER}
fix aveP all ave/time 1 500 1000 v_efield v_Pz v_pe f_born file Pz.${MODEL}.${STRUCTURE}.${TEMP}.$L.${ITER}
fix aveP all ave/time 1 500 1000 v_efield v_Pz v_pe f_born file Pz.BaTiO3-E0.${STRUCTURE}.${TEMP}.$L.${ITER}
fix aveP all ave/time 1 500 1000 v_efield v_Pz v_pe f_born file Pz.BaTiO3-E0.BaTiO3-sc333.${TEMP}.$L.${ITER}
fix aveP all ave/time 1 500 1000 v_efield v_Pz v_pe f_born file Pz.BaTiO3-E0.BaTiO3-sc333.330.$L.${ITER}
fix aveP all ave/time 1 500 1000 v_efield v_Pz v_pe f_born file Pz.BaTiO3-E0.BaTiO3-sc333.330.2.${ITER}
fix aveP all ave/time 1 500 1000 v_efield v_Pz v_pe f_born file Pz.BaTiO3-E0.BaTiO3-sc333.330.2.7

thermo_style custom step time temp press pe f_born v_efield v_Pz spcpu cpuremain

# dump 4a all custom 1000 dump.hyst.${MODEL}.${STRUCTURE}.${TEMP}.$L.${ITER}.bin id type xu yu zu fx fy fz
# dump_modify 4a sort id

fix nvt all nvt temp ${TEMP} ${TEMP} $(100*dt)
fix nvt all nvt temp 330 ${TEMP} $(100*dt)
fix nvt all nvt temp 330 330 $(100*dt)
fix nvt all nvt temp 330 330 0.2000000000000000111

run $(v_PERIOD)
run 100000
WARNING: non-constant efield is experimental, strongly distrust scalar/vector output (src/fix_addbornforce.cpp:193)
Per MPI rank memory allocation (min/avg/max) = 3.516 | 3.516 | 3.516 Mbytes
   Step          Time           Temp          Press          PotEng         f_born        v_efield         v_Pz          S/CPU         CPULeft    
         0   0              339.00856      126205.3      -807636.53     -292.58669      0.3636         0.055027301    0              0            
        10   0.02           339.08952      132114.26     -807629.86     -299.22238      0.36359993     0.056275297    29.124849      3433.1704    
        20   0.04           341.0342       136439.26     -807624.63     -304.88674      0.36359971     0.057340639    29.179746      3429.5882    
        30   0.06           327.75839      143953.47     -807615.51     -312.21078      0.36359935     0.058718143    29.198252      3427.4416    
        40   0.08           343.64158      142556.05     -807616.8      -313.26417      0.36359885     0.058916336    29.177474      3426.8067    
        50   0.1            338.672        141379.69     -807619.07     -310.3948       0.36359821     0.058376791    29.14599       3427.0289    
        60   0.12           349.91667      134293.04     -807628.25     -302.96479      0.36359742     0.056979533    29.105607      3427.8553    
        70   0.14           339.85066      130714.61     -807632.05     -297.87174      0.36359649     0.05602181     29.148725      3427.6221    
        80   0.16           332.35611      126200.79     -807636.3      -292.84214      0.36359541     0.05507604     29.161442      3427.1751    
        90   0.18           325.49024      128907.14     -807634.14     -294.28942      0.36359419     0.055348421    29.122402      3427.261     
       100   0.2            331.33325      132142.65     -807630.34     -299.1743       0.36359283     0.056267354    29.132137      3427.1454    
       110   0.22           348.13764      137341.4      -807624.92     -307.2256       0.36359132     0.057781846    29.14236       3426.8805    
       120   0.24           346.44961      141065.46     -807620.68     -311.57792      0.36358968     0.058600679    29.12534       3426.769     
       130   0.26           323.46149      143144.51     -807616.75     -312.58738      0.36358788     0.058790825    29.11088       3426.7528    
       140   0.28           327.54651      139189.45     -807620.95     -309.23592      0.36358595     0.058160798    29.078316      3426.9643    
       150   0.3            333.54291      133589        -807627.55     -303.74437      0.36358387     0.057128281    29.144993      3426.5783    
       160   0.32           331.18018      128830        -807633.53     -297.63877      0.36358165     0.05598028     29.131693      3426.2949    
       170   0.34           319.68908      127196.82     -807636.49     -293.22708      0.36357928     0.055150882    29.118049      3426.0991    
       180   0.36           317.28119      129315.98     -807633.76     -295.78958      0.36357677     0.055633229    29.149064      3425.6843    
       190   0.38           331.28238      131826.95     -807631.09     -300.6111       0.36357412     0.056540491    29.147734      3425.2852    
       200   0.4            335.96571      138343.91     -807624.58     -307.82529      0.36357132     0.057897818    29.122876      3425.0379    
       210   0.42           333.38869      140276.47     -807621.38     -310.75374      0.36356838     0.058449094    29.086994      3424.9827    
       220   0.44           330.00807      141853.29     -807618.63     -313.0299       0.3635653      0.058877711    29.106353      3424.7976    
       230   0.46           322.03045      137712.88     -807623.18     -307.49144      0.36356207     0.057836496    29.188966      3424.1769    
       240   0.48           336.59425      134353.55     -807629.42     -303.21154      0.3635587      0.057032013    29.194912      3423.5505    
       250   0.5            315.38545      128878.85     -807633.05     -296.6713       0.36355519     0.055802378    29.156026      3423.1288    
       260   0.52           326.29013      128821.12     -807636.15     -295.01542      0.36355153     0.055491473    29.199461      3422.5176    
       270   0.54           317.86453      127492.69     -807634.14     -295.86932      0.36354773     0.055652671    29.203076      3421.9107    
       280   0.56           333.05416      134015.67     -807629.48     -302.58637      0.36354379     0.056916758    29.166425      3421.4758    
       290   0.58           314.69559      138197.73     -807621.7      -307.93801      0.3635397      0.057924056    29.146121      3421.1296    
       300   0.6            329.59531      141540.66     -807619.94     -311.65317      0.36353547     0.058623571    29.143522      3420.7937    
       310   0.62           318.69673      140114.1      -807620.31     -309.74892      0.3635311      0.058266072    29.121312      3420.5412    
       320   0.64           334.241        138134.05     -807624.84     -307.27747      0.36352658     0.057801893    29.131687      3420.2453    
       330   0.66           322.91261      132782.56     -807629.07     -301.43727      0.36352192     0.056704022    29.155118      3419.8629    
       340   0.68           328.19473      130500.09     -807634.21     -296.82704      0.36351712     0.055837519    29.1379        3419.5424    
       350   0.7            329.2684       127295.52     -807637.49     -293.71659      0.36351217     0.055253149    29.119725      3419.2817    
       360   0.72           332.26027      131036.56     -807632.98     -298.52881      0.36350708     0.056159197    29.148512      3418.9222    
       370   0.74           333.12799      133681.34     -807628.71     -302.96544      0.36350185     0.056994635    29.126359      3418.6341    
       380   0.76           324.86013      140106.09     -807622.17     -308.18904      0.36349647     0.057978171    29.101957      3418.4186    
       390   0.78           331.8061       140217.73     -807621.03     -310.22956      0.36349095     0.05836293     29.088069      3418.2383    
       400   0.8            324.48282      141297.23     -807619.43     -310.68445      0.36348529     0.058449419    29.137414      3417.9049    
       410   0.82           337.16823      136065.95     -807626.14     -305.6949       0.36347948     0.057511649    29.183136      3417.4403    
       420   0.84           329.04303      132544.33     -807629.7      -300.73512      0.36347353     0.056579471    29.145753      3417.0857    
       430   0.86           326.31757      128705.62     -807634.55     -295.45849      0.36346744     0.055587672    29.188389      3416.6158    
       440   0.88           328.90105      128622.65     -807635.01     -295.19521      0.3634612      0.055539092    29.152933      3416.2459    
       450   0.9            325.3469       131462.44     -807630.14     -299.44097      0.36345482     0.056338893    29.141577      3415.9068    
       460   0.92           337.02955      135215.7      -807627.11     -303.96102      0.3634483      0.057190352    29.148927      3415.5486    
       470   0.94           342.82885      139207.72     -807623.05     -308.67128      0.36344163     0.058077655    29.179633      3415.1148    
       480   0.96           329.90596      140863.62     -807619.13     -310.66908      0.36343482     0.058454643    29.258245      3414.4938    
       490   0.98           330.72328      140925.46     -807619.1      -310.65267      0.36342786     0.058452674    29.222644      3413.9688    
       500   1              342.54282      134272.85     -807627.05     -304.16512      0.36342077     0.057233089    29.145284      3413.6318    
       510   1.02           343.55268      133349.15     -807631.72     -9577.1693      0.36341353     0.056316235    29.048655      3413.5173    
       520   1.04           327.96412      127326.58     -807633.49     -9449.7141      0.36340614     0.055567895    29.031709      3413.4323    
       530   1.06           328.22694      132377.35     -807630.83     -9526.5531      0.36339862     0.056020897    29.041667      3413.3154    
       540   1.08           325.74732      129624.02     -807630.67     -9518.349       0.36339095     0.055973835    29.001925      3413.2771    
       550   1.1            343.81685      138175.59     -807625.01     -9766.2366      0.36338313     0.057432803    28.954103      3413.3305    
       560   1.12           332.57584      137874.69     -807620.61     -9856.0875      0.36337518     0.057962463    28.999111      3413.2745    
       570   1.14           346.86391      143873.31     -807616.52     -10038.225      0.36336707     0.059034907    29.049615      3413.1037    
       580   1.16           344.20723      137522.26     -807623.1      -9812.8284      0.36335883     0.057710658    29.117629      3412.7892    
       590   1.18           343.22867      138862.24     -807623.84     -9770.7609      0.36335044     0.057464579    29.049928      3412.6085    
       600   1.2            344.46836      129516.3      -807631.57     -9527.0977      0.36334191     0.056032843    29.006237      3412.5082    
       610   1.22           340.69296      131660.34     -807630.6      -9530.2768      0.36333324     0.056052879    28.958777      3412.4921    
       620   1.24           340.92767      127501.95     -807634.88     -9392.1036      0.36332442     0.055241546    29.062281      3412.2681    
       630   1.26           344.11415      133417.43     -807628.66     -9597.4401      0.36331546     0.056450665    29.080413      3412.0066    
       640   1.28           347.055        135935.56     -807623.37     -9779.9994      0.36330636     0.057525892    29.03052       3411.8342    
       650   1.3            348.04992      141990.15     -807618.44     -9936.8164      0.36329711     0.058449777    28.971943      3411.7629    
       660   1.32           344.19876      140760.28     -807619.05     -9898.6662      0.36328772     0.058226877    29.050458      3411.543     
       670   1.34           344.79133      139464.04     -807620.82     -9842.678       0.36327819     0.057899057    29.041319      3411.3354    
       680   1.36           351.59038      135098.3      -807626.05     -9705.5303      0.36326851     0.057093814    29.024282      3411.1532    
       690   1.38           344.34541      130712.34     -807629.73     -9556.3739      0.36325869     0.056217905    29.045131      3410.9308    
       700   1.4            338.76271      130046.41     -807632.32     -9451.2753      0.36324873     0.055601159    29.051089      3410.6949    
       710   1.42           339.38072      129203.55     -807632.9      -9442.198       0.36323863     0.055549303    29.030426      3410.4902    
       720   1.44           341.39909      134595.35     -807627.05     -9647.7113      0.36322838     0.056759959    29.043033      3410.261     
       730   1.46           338.44558      136753.36     -807623.19     -9770.4381      0.36321798     0.057483637    29.071167      3409.9834    
       740   1.48           347.7658       141000.73     -807620.5      -9906.4722      0.36320745     0.058285673    29.103022      3409.6534    
       750   1.5            330.11928      139656.45     -807620.26     -9852.5842      0.36319677     0.057970323    29.06739       3409.3789    
       760   1.52           337.81998      139839.52     -807620.46     -9891.7906      0.36318595     0.058202738    29.075317      3409.0902    
       770   1.54           337.58267      134208.24     -807627.88     -9668.0928      0.36317498     0.056888231    28.999792      3408.9156    
       780   1.56           342.17876      131731.25     -807632.94     -9536.1587      0.36316387     0.056113631    28.993497      3408.7461    
       790   1.58           324.44554      128805.58     -807634.06     -9433.9675      0.36315262     0.055514027    28.994337      3408.5709    
       800   1.6            326.82638      131324.74     -807631.02     -9551.5705      0.36314122     0.056207824    29.041036      3408.3226    
       810   1.62           320.87656      133563.08     -807627.26     -9652.0604      0.36312968     0.056800979    29.085529      3408.0075    
       820   1.64           342.99459      136734.89     -807626.34     -9785.4528      0.363118       0.057587826    29.051377      3407.7407    
       830   1.66           323.88076      139333.66     -807620.95     -9877.4961      0.36310618     0.058131398    29.014642      3407.5239    
       840   1.68           331.16451      140400.41     -807620.78     -9918.642       0.36309421     0.058375476    29.040583      3407.2679    
       850   1.7            332.00547      137132.96     -807624.79     -9798.7446      0.3630821      0.057671751    29.038993      3407.0119    
       860   1.72           327.39646      133456.01     -807629.46     -9629.8724      0.36306984     0.056679746    28.986284      3406.8261    
       870   1.74           320.26306      130062.27     -807632.03     -9519.4907      0.36305745     0.056031972    29.002072      3406.6152    
       880   1.76           319.15636      131304.23     -807632.35     -9506.2619      0.3630449      0.05595604     29.040742      3406.3496    
       890   1.78           308.5238       132600.57     -807629.77     -9544.4868      0.36303222     0.056183003    29.034659      3406.0901    
       900   1.8            328.9225       133930.79     -807629.04     -9659.9681      0.36301939     0.056864785    29.11062       3405.7299    
       910   1.82           317.24488      138201.55     -807622.9      -9805.849       0.36300642     0.057725597    29.090239      3405.3962    
       920   1.84           335.03842      139443.07     -807622.55     -9898.7321      0.36299331     0.058274492    29.08469       3405.0694    
       930   1.86           330.33756      139985.2      -807621.88     -9897.8468      0.36298005     0.058271408    29.036296      3404.8033    
       940   1.88           319.92762      136272.59     -807625.31     -9742.994       0.36296665     0.057361863    28.9868        3404.5975    
       950   1.9            316.54268      134546.18     -807628.3      -9631.6959      0.36295311     0.056708712    28.967366      3404.4128    
       960   1.92           328.47199      130173.6      -807633.51     -9518.6923      0.36293942     0.056045492    29.058577      3404.1131    
       970   1.94           308.85041      130736.21     -807630.54     -9524.0223      0.36292559     0.056079011    29.075004      3403.7926    
       980   1.96           328.15168      131285.85     -807633.15     -9525.7363      0.36291162     0.056091263    29.081754      3403.4635    
       990   1.98           326.57259      134722.33     -807628.64     -9663.5545      0.3628975      0.056905004    29.064817      3403.1542    
      1000   2              327.40738      138088.98     -807623.37     -9834.514       0.36288325     0.057913995    28.917918      3403.0172    
      1010   2.02           325.82108      140016.09     -807621.39     -309.02524      0.36286884     0.058236033    29.137082      3402.6211    
      1020   2.04           330.48235      138277.52     -807623.47     -307.51987      0.3628543      0.057954669    29.107921      3402.2595    
      1030   2.06           328.31718      136408.89     -807626.06     -304.50701      0.36283961     0.057389193    29.097274      3401.9102    
      1040   2.08           325.84076      134036.91     -807628.55     -301.60119      0.36282478     0.056843869    29.104525      3401.553     
      1050   2.1            330.45492      130379.13     -807633.77     -296.89947      0.3628098      0.055960028    29.126478      3401.1715    
      1060   2.12           316.63305      130754.72     -807632.82     -295.77681      0.36279469     0.055750752    29.138375      3400.7778    
      1070   2.14           326.75025      131072.19     -807632.04     -297.90213      0.36277943     0.056153713    29.153789      3400.3682    
      1080   2.16           324.36323      135534.54     -807626.05     -303.39419      0.36276402     0.057191379    29.156793      3399.9566    
      1090   2.18           325.14416      138288.44     -807622.15     -307.26504      0.36274848     0.057923537    29.099202      3399.6078    
      1100   2.2            323.86515      140502.45     -807620.67     -308.38505      0.36273279     0.058137188    29.031927      3399.3307    
      1110   2.22           329.01732      139677.89     -807622.07     -307.50337      0.36271695     0.057973502    29.040506      3399.0434    
      1120   2.24           334.61086      136758        -807624.44     -305.59565      0.36270098     0.057616379    29.042421      3398.753     
      1130   2.26           328.22358      132642.52     -807629.35     -299.61176      0.36268486     0.056490698    29.093029      3398.4093    
      1140   2.28           340.18977      130674.21     -807633.85     -296.51916      0.3626686      0.055910107    29.145463      3398.0119    
      1150   2.3            326.50606      129663.57     -807632.11     -296.24721      0.36265219     0.055861356    29.166135      3397.5946    
      1160   2.32           327.30227      133374.87     -807628.67     -299.47745      0.36263564     0.056473038    29.16269       3397.1821    
      1170   2.34           340.95789      133992.46     -807627.84     -302.06603      0.36261895     0.056963794    29.135552      3396.7976    
      1180   2.36           335.16284      139887.06     -807621.57     -307.24539      0.36260212     0.05794321     29.102632      3396.4464    
      1190   2.38           343.72553      138611.92     -807621.52     -308.33466      0.36258514     0.058151358    29.088885      3396.1088    
      1200   2.4            341.28808      139521.15     -807620.82     -308.44042      0.36256802     0.058174051    29.135701      3395.7257    
      1210   2.42           330.05258      135327.83     -807624.78     -302.75225      0.36255076     0.057103941    29.158247      3395.3215    
      1220   2.44           344.98908      132916.99     -807630.15     -299.24203      0.36253335     0.056444567    29.142787      3394.933     
      1230   2.46           330.06842      129774.87     -807631.13     -296.15285      0.3625158      0.055864574    29.159898      3394.5291    
      1240   2.48           328.94411      131546.82     -807629.8      -297.12641      0.36249811     0.056050956    29.158627      3394.1274    
      1250   2.5            349.89594      131055.59     -807631.8      -297.95136      0.36248028     0.056209342    29.122272      3393.7605    
      1260   2.52           333.66754      137509.98     -807623.42     -304.00928      0.3624623      0.057355031    29.106992      3393.4081    
      1270   2.54           352.39326      138443        -807622.82     -307.17512      0.36244418     0.057955203    29.104513      3393.0581    
      1280   2.56           341.8958       140366.8      -807620.3      -308.16499      0.36242592     0.058144893    29.116605      3392.6971    
      1290   2.58           348.31532      138335.05     -807623.52     -305.87483      0.36240751     0.057715714    29.146471      3392.3095    
      1300   2.6            326.78707      136824.06     -807623.86     -302.5832       0.36238896     0.057097536    29.11744       3391.9486    
      1310   2.62           340.38667      132061.98     -807629.44     -299.00793      0.36237027     0.056425792    29.130152      3391.5766    
      1320   2.64           334.51848      130683.58     -807631.18     -296.53142      0.36235143     0.05596136     29.145866      3391.1913    
      1330   2.66           331.02235      131053.65     -807631.6      -295.8065       0.36233245     0.055827477    29.123167      3390.8264    
      1340   2.68           351.99957      132627.6      -807631.05     -299.5593       0.36231333     0.056538725    29.096109      3390.4854    
      1350   2.7            336.0354       136286.68     -807624.14     -304.5618       0.36229407     0.057485951    29.111022      3390.1314    
      1360   2.72           338.25584      138137.17     -807623        -306.40715      0.36227466     0.057837359    29.125068      3389.7656    
      1370   2.74           330.45497      139044.15     -807622.07     -306.64753      0.36225511     0.057885858    29.089902      3389.43      
      1380   2.76           333.08605      137344.83     -807624.12     -305.48659      0.36223542     0.057669842    29.118091      3389.0705    
      1390   2.78           336.01507      134760.68     -807627.67     -302.71305      0.36221558     0.05714938     29.095843      3388.7298    
      1400   2.8            327.62941      131009.91     -807631.33     -298.22919      0.3621956      0.056305976    29.082841      3388.3999    
      1410   2.82           321.86516      129909.37     -807633.15     -295.91634      0.36217548     0.055872411    29.043552      3388.1024    
      1420   2.84           324.26736      130547.38     -807632.58     -297.05131      0.36215522     0.056089846    29.045372      3387.8027    
      1430   2.86           327.39833      134390.9      -807628.16     -302.12215      0.36213481     0.057050546    29.098397      3387.4591    
      1440   2.88           323.73269      136453.29     -807626.07     -303.87543      0.36211426     0.05738488     29.09906       3387.115     
      1450   2.9            323.66928      138964.06     -807623.3      -306.6565       0.36209357     0.057913375    29.125619      3386.7496    
      1460   2.92           324.97841      138161.35     -807623.43     -306.81741      0.36207273     0.057947099    29.151177      3386.3642    
      1470   2.94           331.33297      137572.32     -807624.75     -306.37077      0.36205176     0.057866097    29.169688      3385.9648    
      1480   2.96           325.79286      132440.99     -807629.34     -301.04702      0.36203064     0.056863884    29.144946      3385.5855    
      1490   2.98           328.59222      131371.36     -807633.25     -297.56805      0.36200937     0.056210054    29.100503      3385.2413    
      1500   3              318.85087      129815.83     -807633.25     -296.23209      0.36198796     0.055961002    29.140154      3384.8665    
      1510   3.02           320.08762      131877.33     -807631.34     -9544.8306      0.36196642     0.056350463    29.094264      3384.5273    
      1520   3.04           315.80201      133119.18     -807628.48     -9617.1174      0.36194472     0.05678063     29.046068      3384.2251    
      1530   3.06           331.44265      135741.35     -807627.48     -9716.6352      0.36192289     0.057371656    29.068216      3383.9054    
      1540   3.08           329.19932      137787.6      -807624.6      -9795.9079      0.36190091     0.057843232    29.106407      3383.5566    
      1550   3.1            327.89781      138764.53     -807623.07     -9835.2335      0.36187879     0.058078994    29.048843      3383.251     
      1560   3.12           325.48083      135983.29     -807626.19     -9721.4453      0.36185653     0.057410584    29.011033      3382.9733    
      1570   3.14           328.70016      134660.53     -807629.64     -9620.6402      0.36183412     0.056818792    28.991689      3382.7091    
      1580   3.16           330.41636      130301.33     -807633.11     -9515.07        0.36181157     0.056198804    28.982775      3382.4506    
      1590   3.18           318.48514      131060.66     -807631.01     -9523.8742      0.36178888     0.056254332    29.019576      3382.1638    
      1600   3.2            320.68115      130992.71     -807631.55     -9514.4294      0.36176605     0.056202092    29.0561        3381.8497    
      1610   3.22           318.70805      135030.92     -807627.82     -9616.5341      0.36174307     0.056808836    29.111537      3381.4952    
      1620   3.24           334.9844       135693.12     -807627.02     -9711.5418      0.36171995     0.057373752    29.118873      3381.1355    
      1630   3.26           322.45165      140007.56     -807620.92     -9842.9267      0.36169669     0.058153687    29.06172       3380.8169    
      1640   3.28           335.67738      138318.69     -807624.15     -9790.7304      0.36167329     0.057849046    28.99493       3380.5454    
      1650   3.3            332.24117      136388.61     -807625.67     -9716.8106      0.36164974     0.057416025    28.940164      3380.3119    
      1660   3.32           340.66857      133229.36     -807630.76     -9586.4896      0.36162605     0.056649677    28.946921      3380.0723    
      1670   3.34           321.06668      132722.06     -807629.36     -9535.3774      0.36160222     0.056351352    28.994912      3379.7978    
      1680   3.36           326.51406      130945.57     -807631.32     -9491.7222      0.36157824     0.056097081    29.056731      3379.4795    
      1690   3.38           322.55245      131800.73     -807630.55     -9491.0597      0.36155413     0.056096908    29.105732      3379.1272    
      1700   3.4            325.28231      134919.13     -807626.41     -9628.0349      0.36152987     0.056910318    29.106123      3378.7747    
      1710   3.42           334.68897      136901.07     -807624.11     -9738.9385      0.36150546     0.057569744    29.099923      3378.4266    
      1720   3.44           337.33084      139178.35     -807622.35     -9798.0644      0.36148092     0.057923187    29.128949      3378.0589    
      1730   3.46           348.01039      137142.9      -807626.18     -9718.5234      0.36145623     0.057456889    29.068051      3377.7324    
      1740   3.48           344.48519      137084.16     -807625.76     -9711.6559      0.3614314      0.057420232    29.054231      3377.4149    
      1750   3.5            345.40594      132399.22     -807629.42     -9595.0189      0.36140643     0.056734535    29.039146      3377.1071    
      1760   3.52           333.09887      132491.5      -807629.98     -9515.0091      0.36138131     0.056265354    29.052916      3376.7898    
      1770   3.54           329.12709      129777.89     -807632.44     -9418.5539      0.36135605     0.055698876    29.078683      3376.4553    
      1780   3.56           334.15725      133754.56     -807628.46     -9564.1784      0.36133065     0.056564037    29.082156      3376.1184    
      1790   3.58           340.01684      134164.78     -807626.81     -9645.2931      0.36130511     0.057047795    29.03447       3375.8124    
      1800   3.6            322.08754      139569.73     -807620.54     -9761.3015      0.36127942     0.05773804     29.027225      3375.5107    
      1810   3.62           342.24875      136750.8      -807624.84     -9713.0108      0.3612536      0.057456508    29.026766      3375.2088    
      1820   3.64           345.67785      139829.91     -807623.41     -9773.1233      0.36122763     0.057816256    28.981889      3374.9352    
      1830   3.66           329.45995      135158.39     -807624.15     -9679.6551      0.36120151     0.057267452    28.987704      3374.6571    
      1840   3.68           338.93149      134906.62     -807628.39     -9582.3518      0.36117526     0.056695901    29.053105      3374.3369    
      1850   3.7            332.98878      129798.75     -807633.21     -9406.2617      0.36114886     0.055658097    29.078163      3374.0007    
      1860   3.72           333.35494      132732.32     -807630.5      -9495.4235      0.36112232     0.056189808    29.04083       3373.6877    
      1870   3.74           333.29219      131332.27     -807628.79     -9559.001       0.36109564     0.056570212    29.05027       3373.3685    
      1880   3.76           329.67129      136166.2      -807625.53     -9649.6485      0.36106881     0.057110907    29.062658      3373.0414    
      1890   3.78           337.85585      136263.96     -807625.6      -9692.7037      0.36104184     0.057370011    29.0403        3372.7278    
      1900   3.8            331.73501      139485.62     -807621.84     -9797.331       0.36101474     0.057993643    29.030921      3372.4197    
      1910   3.82           340.09793      137192.14     -807624.19     -9774.2515      0.36098748     0.057861396    29.090984      3372.0747    
      1920   3.84           334.5371       135264.76     -807627.64     -9652.3974      0.36096009     0.057144383    29.140812      3371.6996    
      1930   3.86           322.28145      132196.89     -807631.76     -9481.741       0.36093255     0.056138341    29.083497      3371.3592    
      1940   3.88           321.69658      130942.88     -807631.96     -9486.0134      0.36090487     0.056167944    29.085895      3371.0174    
      1950   3.9            322.5278       129900.18     -807631.9      -9506.3295      0.36087705     0.056292578    29.075471      3370.6818    
      1960   3.92           318.00147      133101.25     -807630.82     -9527.7884      0.36084909     0.056424021    29.08127       3370.3426    
      1970   3.94           317.33968      134494.79     -807628.79     -9597.2957      0.36082098     0.056840074    29.01265       3370.0439    
      1980   3.96           323.79063      138506.17     -807624.27     -9774.714       0.36079273     0.057895368    28.988514      3369.7589    
      1990   3.98           315.89139      138306.22     -807622.34     -9805.5267      0.36076434     0.058082441    29.034052      3369.4466    
      2000   4              342.94768      136533.68     -807629.16     -9705.3017      0.36073581     0.057493312    29.063779      3369.1168    
      2010   4.02           313.60901      133770.22     -807628.81     -299.68947      0.36070713     0.056815165    29.191704      3368.7133    
      2020   4.04           309.25273      133486.65     -807628.4      -299.41403      0.36067831     0.056767483    29.170508      3368.3225    
      2030   4.06           326.65381      130261.8      -807634.15     -296.09945      0.36064935     0.056143561    29.155896      3367.9405    
      2040   4.08           313.51326      131406.19     -807632.4      -295.85873      0.36062025     0.056102446    29.115995      3367.5814    
      2050   4.1            316.96911      131736.73     -807631.28     -297.43176      0.36059101     0.056405308    29.084129      3367.2405    
      2060   4.12           316.51045      136261.83     -807625.65     -302.92023      0.36056162     0.057450829    29.057037      3366.9147    
      2070   4.14           326.8906       137269.23     -807625.19     -304.73433      0.36053209     0.057799618    29.071386      3366.5808    
      2080   4.16           324.68747      137860.39     -807625.04     -304.35906      0.36050242     0.057733191    29.115273      3366.2223    
      2090   4.18           322.75589      136440.46     -807627        -301.95643      0.36047261     0.057282179    29.091882      3365.877     
      2100   4.2            312.35967      135444.34     -807626.33     -300.97605      0.36044265     0.057100943    29.126632      3365.5125    
      2110   4.22           333.13477      131516.07     -807632.77     -297.26005      0.36041256     0.056400655    29.152168      3365.1343    
      2120   4.24           315.56148      130391.06     -807632.91     -294.36436      0.36038232     0.055855928    29.151224      3364.7569    
      2130   4.26           328.11445      130684.97     -807633.95     -294.8562       0.36035193     0.055953972    29.109395      3364.4025    
      2140   4.28           328.12964      133233.87     -807629.31     -299.27118      0.36032141     0.0567966      29.121094      3364.0418    
      2150   4.3            323.76312      135744.28     -807625.51     -302.24751      0.36029075     0.057366339    29.152649      3363.6645    
      2160   4.32           329.77496      137193.54     -807625.77     -302.56301      0.36025994     0.057431132    29.24833       3363.2366    
      2170   4.34           326.96804      138084.06     -807623.66     -304.01568      0.36022899     0.05771183     29.215649      3362.8267    
      2180   4.36           333.84068      136530.55     -807625.07     -303.33088      0.36019789     0.057586803    29.181673      3362.4354    
      2190   4.38           319.21248      135232.36     -807626.12     -299.93426      0.36016666     0.0569469      29.183696      3362.0434    
      2200   4.4            334.0978       131196.18     -807633.57     -294.34535      0.36013528     0.055890632    29.141506      3361.6739    
      2210   4.42           338.18103      131698.64     -807632.87     -295.3762       0.36010377     0.056091281    29.136744      3361.3072    
      2220   4.44           327.3064       131267.16     -807630.19     -296.4143       0.36007211     0.056293362    29.155694      3360.9308    
      2230   4.46           327.12313      135081.01     -807626.47     -299.85654      0.3600403      0.056952124    29.142835      3360.5614    
      2240   4.48           334.24681      134491.4      -807628.33     -298.90931      0.36000836     0.056777253    29.106306      3360.211     
      2250   4.5            340.16583      138919.32     -807623.3      -304.52222      0.35997627     0.05784857     29.122373      3359.8524    
      2260   4.52           331.88846      137001.32     -807622.31     -304.34453      0.35994404     0.057819992    29.124559      3359.4929    
      2270   4.54           345.3187       137320.85     -807625.81     -302.51319      0.35991167     0.057477239    29.131462      3359.13      
      2280   4.56           328.63015      133368.7      -807629.21     -296.66783      0.35987916     0.056371719    29.130846      3358.7676    
      2290   4.58           350.20909      132265.8      -807633.01     -295.78374      0.35984651     0.056208826    29.143683      3358.3988    
      2300   4.6            318.36904      131448.34     -807628.19     -296.16953      0.35981371     0.056287269    29.101869      3358.0513    
      2310   4.62           342.96579      131170.51     -807632.51     -295.21506      0.35978077     0.056111008    29.092911      3357.7082    
      2320   4.64           322.55331      134142.65     -807627.91     -296.90834      0.35974769     0.056438036    29.112141      3357.3556    
      2330   4.66           346.2253       136602.44     -807626.8      -301.3668       0.35971447     0.057290817    29.152008      3356.9834    
      2340   4.68           333.10775      139278.75     -807620.39     -305.92356      0.35968111     0.058162467    29.161852      3356.6066    
      2350   4.7            331.90178      137278.84     -807623.21     -302.9607       0.3596476      0.05760453     29.131504      3356.2449    
      2360   4.72           339.82345      136264.05     -807627.67     -299.54244      0.35961396     0.056959917    29.131284      3355.8835    
      2370   4.74           333.31153      132743.29     -807628.53     -297.83153      0.35958017     0.056639898    29.159975      3355.5084    
      2380   4.76           339.25535      132672.68     -807629.88     -297.26292      0.35954624     0.056537097    29.170253      3355.1285    
      2390   4.78           326.60212      130234.67     -807632.33     -293.13137      0.35951216     0.055756592    29.109975      3354.778     
      2400   4.8            342.08057      132013.9      -807633.25     -294.31032      0.35947795     0.05598617     29.091267      3354.4365    
      2410   4.82           323.24697      133340.59     -807626.97     -298.14744      0.35944359     0.05672152     29.131142      3354.0759    
      2420   4.84           339.97426      137115.77     -807624.12     -303.44004      0.35940909     0.057733959    29.17697       3353.6937    
      2430   4.86           326.61932      137793.19     -807624.02     -301.85258      0.35937446     0.057437458    29.139679      3353.3295    
      2440   4.88           323.44594      138275.54     -807623.66     -301.84296      0.35933967     0.057441187    29.080833      3352.9932    
      2450   4.9            330.60011      135443.48     -807625.96     -300.7549       0.35930475     0.057239689    29.093354      3352.6509    
      2460   4.92           335.75926      133999.01     -807628.53     -299.1308       0.35926969     0.056936148    29.166034      3352.2747    
      2470   4.94           333.84482      131328.27     -807633.19     -294.38941      0.35923448     0.056039169    29.141204      3351.9103    
      2480   4.96           325.64258      131125.24     -807633.49     -293.21045      0.35919913     0.055820239    29.139312      3351.5469    
      2490   4.98           326.41234      131671.65     -807631.3      -295.91327      0.35916364     0.056340356    29.13522       3351.1855    
      2500   5              323.9686       134117.54     -807628.11     -299.08424      0.35912801     0.056949743    29.127853      3350.8278    
[...]
     98740   197.48         333.54387      137124        -807624.88     -9746.6991      0.36236891     0.057478333    29.806433      43.846651    
     98750   197.5          341.87331      133821.05     -807628.75     -9662.8261      0.36238762     0.056980775    29.804354      43.498504    
     98760   197.52         335.75456      135452.09     -807627.94     -9662.1269      0.36240618     0.056973734    29.811416      43.150358    
     98770   197.54         324.63757      133872.46     -807626.74     -9655.2174      0.36242459     0.056930099    29.788561      42.802219    
     98780   197.56         329.39383      135291.74     -807626.54     -9682.5743      0.36244287     0.057088525    29.877337      42.454069    
     98790   197.58         333.39769      133500.56     -807629.26     -9616.7542      0.362461       0.056697613    29.887072      42.105921    
     98800   197.6          324.69547      135332.93     -807627        -9650.8199      0.36247899     0.056895631    29.934891      41.757769    
     98810   197.62         332.3841       133807.08     -807628.13     -9652.4037      0.36249683     0.056902166    29.928096      41.409621    
     98820   197.64         320.70157      136685.06     -807624.22     -9727.5142      0.36251453     0.057342152    29.885805      41.061481    
     98830   197.66         332.95686      134595.46     -807627.44     -9681.4213      0.36253209     0.057067678    29.942128      40.713337    
     98840   197.68         335.50639      136274.38     -807627.13     -9700.1859      0.36254951     0.05717554     29.921254      40.365198    
     98850   197.7          328.98139      134576.09     -807626.58     -9694.2821      0.36256678     0.057138019    29.906748      40.017064    
     98860   197.72         330.7958       135793.51     -807626.5      -9706.2452      0.36258391     0.057205827    29.906992      39.668932    
     98870   197.74         318.87351      134141.24     -807626.75     -9648.6317      0.3626009      0.056863605    29.922792      39.320802    
     98880   197.76         330.56384      134691.07     -807628.61     -9641.8586      0.36261774     0.056821049    29.915202      38.972675    
     98890   197.78         332.00197      132920.59     -807629.46     -9625.1021      0.36263445     0.056719688    29.896819      38.624553    
     98900   197.8          324.40689      135543.68     -807626.29     -9691.8861      0.362651       0.057110631    29.886098      38.276436    
     98910   197.82         332.52935      134359.88     -807628.49     -9661.1381      0.36266742     0.056926868    29.880978      37.928321    
     98920   197.84         326.35355      136215.15     -807626.23     -9706.072       0.36268369     0.057189068    29.866686      37.580212    
     98930   197.86         327.79372      134781.67     -807626.81     -9697.872       0.36269982     0.057138212    29.844312      37.232107    
     98940   197.88         332.4311       135916.93     -807626.6      -9725.5444      0.36271581     0.057298728    29.871054      36.884002    
     98950   197.9          330.79571      134419.59     -807628.06     -9674.9421      0.36273165     0.056998111    29.849028      36.535903    
     98960   197.92         323.12629      135107.29     -807627.7      -9653.8393      0.36274735     0.056871326    29.817537      36.187809    
     98970   197.94         330.45375      134502.85     -807628.67     -9658.2617      0.36276291     0.056894939    29.878172      35.839712    
     98980   197.96         322.35476      135265.99     -807626.12     -9706.2499      0.36277832     0.057175199    29.923199      35.491611    
     98990   197.98         333.6629       134707.45     -807628.88     -9669.9323      0.36279359     0.05695887     29.924406      35.143514    
     99000   198            326.17907      135297.06     -807627.33     -9687.2993      0.36280872     0.057058788    29.874033      34.795425    
     99010   198.02         321.73711      135430.55     -807626.39     -303.14726      0.3628237      0.057135433    29.990639      34.447325    
     99020   198.04         328.77841      134675.41     -807626.98     -303.5803       0.36283855     0.057214708    29.974842      34.099231    
     99030   198.06         325.4723       134522.64     -807627.5      -302.60192      0.36285324     0.057028006    29.9853        33.751138    
     99040   198.08         332.32499      133438.11     -807629.6      -301.51797      0.3628678      0.056821447    29.913346      33.403056    
     99050   198.1          331.37813      134740.96     -807628.62     -302.41102      0.36288221     0.05698748     29.937658      33.054974    
     99060   198.12         325.82979      134068.22     -807627.69     -302.65294      0.36289648     0.057030825    29.958166      32.706892    
     99070   198.14         332.9887       135549.49     -807628.76     -302.53986      0.36291061     0.057007298    29.981746      32.358811    
     99080   198.16         319.9026       134066.32     -807627.78     -301.81706      0.36292459     0.056868911    30.003704      32.010731    
     99090   198.18         330.59814      136298.98     -807626.83     -304.18778      0.36293843     0.057313421    30.032534      31.662651    
     99100   198.2          323.86252      134339.02     -807626.94     -303.26007      0.36295213     0.057136469    29.970212      31.31458     
     99110   198.22         327.36998      136288.65     -807626.74     -303.86345      0.36296568     0.057248013    29.981753      30.966511    
     99120   198.24         328.41994      133887.94     -807629.2      -301.68103      0.36297909     0.056834744    29.987687      30.618444    
     99130   198.26         318.72733      136521.01     -807625.73     -303.72698      0.36299236     0.057218096    30.04435       30.270375    
     99140   198.28         330.71544      133552.99     -807628.72     -302.52632      0.36300548     0.056989849    29.986343      29.922314    
     99150   198.3          319.30083      136046.96     -807626.85     -302.68125      0.36301846     0.057016994    29.955891      29.574259    
     99160   198.32         331.10874      133264.44     -807630        -301.18124      0.3630313      0.056732427    29.943956      29.226208    
     99170   198.34         328.36612      136023.07     -807626.49     -304.17705      0.36304399     0.057294734    29.964987      28.878158    
     99180   198.36         329.58596      134055.51     -807627.97     -302.9297       0.36305655     0.057057809    29.939141      28.530114    
     99190   198.38         327.00414      135693.5      -807626.69     -303.72087      0.36306895     0.057204876    29.920516      28.182073    
     99200   198.4          331.00898      134549.56     -807628.01     -302.90357      0.36308122     0.057049012    29.927977      27.834035    
     99210   198.42         322.64837      135688.98     -807625.8      -303.87231      0.36309334     0.057229553    29.921979      27.486001    
     99220   198.44         326.63083      134315.96     -807627.63     -302.51189      0.36310532     0.056971461    29.917459      27.137969    
     99230   198.46         333.9459       134478.26     -807628.58     -302.38944      0.36311715     0.056946545    29.879282      26.789944    
     99240   198.48         335.18613      134451.54     -807628.17     -302.87504      0.36312885     0.057036156    29.914115      26.441918    
     99250   198.5          324.85389      134984.62     -807626.48     -302.98406      0.3631404      0.057054871    29.949105      26.093892    
     99260   198.52         332.12605      135697.94     -807626.82     -303.5496       0.3631518      0.057159573    29.944132      25.745869    
     99270   198.54         334.11691      135117.2      -807627.28     -303.24902      0.36316306     0.057101202    29.982437      25.397846    
     99280   198.56         325.26855      136118.52     -807625.45     -303.61589      0.36317418     0.057168533    29.952651      25.049829    
     99290   198.58         319.32238      134979.31     -807625.18     -302.97132      0.36318516     0.057045442    29.983536      24.701812    
     99300   198.6          337.22064      135372.05     -807627.12     -303.29142      0.36319599     0.057104009    30.020992      24.353794    
     99310   198.62         338.2885       133357.04     -807628.14     -302.27083      0.36320668     0.056910176    30.017316      24.00578     
     99320   198.64         340.42906      135485.84     -807626.66     -303.82429      0.36321723     0.057200992    30.017794      23.657769    
     99330   198.66         347.45471      134358.96     -807629.14     -302.2143       0.36322763     0.05689625     29.991983      23.309763    
     99340   198.68         333.27649      135956.07     -807625.8      -303.44065      0.36323789     0.057125516    30.002774      22.961759    
     99350   198.7          340.36063      134096.14     -807627.21     -302.98126      0.36324801     0.057037443    29.98061       22.61376     
     99360   198.72         329.74326      136051.81     -807624.72     -303.82073      0.36325798     0.057193905    30.008735      22.265761    
     99370   198.74         341.05615      133461.2      -807628.14     -301.99916      0.36326781     0.05684946     29.98265       21.917768    
     99380   198.76         340.48443      135699.16     -807626.78     -303.11532      0.3632775      0.057058048    29.965871      21.569778    
     99390   198.78         342.68639      133174.14     -807628.18     -302.03591      0.36328704     0.056853368    29.914959      21.221795    
     99400   198.8          336.46138      135765.33     -807626.21     -303.04279      0.36329644     0.057041421    29.955702      20.873812    
     99410   198.82         342.99604      133752.01     -807627.71     -302.50546      0.3633057      0.056938828    30.044861      20.525825    
     99420   198.84         334.99711      136880.46     -807624.5      -304.50478      0.36331481     0.057313711    29.962836      20.177848    
     99430   198.86         334.03969      134972.42     -807625.66     -303.33501      0.36332378     0.057092128    29.896301      19.829877    
     99440   198.88         340.42362      135982.88     -807626.25     -303.63465      0.36333261     0.057147136    29.893855      19.481909    
     99450   198.9          337.7003       134274.53     -807626.26     -303.38515      0.36334129     0.057098812    29.914932      19.133942    
     99460   198.92         344.1805       135536.69     -807626.87     -303.75303      0.36334983     0.057166706    29.986253      18.785974    
     99470   198.94         337.31489      134056.04     -807627.25     -302.58119      0.36335823     0.056944849    29.918545      18.438013    
     99480   198.96         334.71901      135831.41     -807627.1      -302.55381      0.36336648     0.056938402    29.920183      18.090055    
     99490   198.98         331.97231      134069.25     -807626.55     -303.03489      0.3633746      0.057027665    29.940968      17.742098    
     99500   199            324.56593      135686.31     -807624.37     -304.3891       0.36338256     0.057281257    29.986775      17.394141    
     99510   199.02         338.97073      133229.4      -807628.93     -9669.9371      0.36339039     0.056865355    29.909439      17.046192    
     99520   199.04         334.75695      135501.45     -807627        -9721.9039      0.36339807     0.057169744    29.85347       16.698248    
     99530   199.06         337.14105      134351.97     -807628.29     -9705.4242      0.3634056      0.057071652    29.932136      16.350303    
     99540   199.08         332.19825      136407.18     -807627.14     -9729.5867      0.363413       0.057212572    29.846699      16.002365    
     99550   199.1          335.6141       134028.11     -807629.49     -9682.6663      0.36342025     0.056935532    29.806047      15.654431    
     99560   199.12         317.01933      136045.25     -807626.78     -9695.3971      0.36342736     0.057009276    29.867064      15.306497    
     99570   199.14         326.96475      133782.16     -807628.46     -9696.2627      0.36343432     0.057013273    29.804613      14.958569    
     99580   199.16         318.91887      134762.26     -807627.14     -9707.8781      0.36344114     0.057080499    29.860555      14.61064     
     99590   199.18         324.34887      133972.74     -807629.18     -9672.5095      0.36344782     0.056871494    29.923754      14.262712    
     99600   199.2          332.97678      135706.51     -807629.39     -9707.6701      0.36345435     0.057077202    29.914845      13.914786    
     99610   199.22         332.2134       134635.29     -807628.98     -9723.0782      0.36346074     0.05716679     29.911201      13.566863    
     99620   199.24         318.45362      135481.83     -807627.02     -9726.0664      0.36346699     0.057183376    29.896587      13.218944    
     99630   199.26         337.26653      133392.76     -807630.58     -9699.7977      0.3634731      0.057027974    29.924367      12.871026    
     99640   199.28         320.18032      134594.36     -807627.45     -9724.8641      0.36347906     0.05717441     29.89994       12.523112    
     99650   199.3          306.43321      135254.3      -807626.03     -9709.9186      0.36348487     0.057085628    29.930184      12.1752      
     99660   199.32         332.88259      134013.83     -807630.17     -9693.8538      0.36349055     0.056990292    29.926174      11.82729     
     99670   199.34         323.01707      134669.19     -807628.56     -9701.001       0.36349608     0.057031443    29.898928      11.479384    
     99680   199.36         334.88478      133698.79     -807629.96     -9709.4277      0.36350147     0.057080137    29.963669      11.131479    
     99690   199.38         328.26583      134861.58     -807628.32     -9728.3222      0.36350671     0.05719039     29.97459       10.783576    
     99700   199.4          322.46843      133699.81     -807628.85     -9685.7631      0.36351181     0.056939396    29.895688      10.435678    
     99710   199.42         327.25963      135488.75     -807627.29     -9751.2296      0.36351677     0.05732347     29.89954       10.087783    
     99720   199.44         329.2234       133800.99     -807629.74     -9682.3454      0.36352158     0.056917775    29.855008      9.7398925    
     99730   199.46         317.94423      136157.65     -807626.95     -9715.8381      0.36352625     0.057113928    29.868765      9.3920039    
     99740   199.48         317.12326      133934.65     -807628.06     -9674.1884      0.36353078     0.056868385    29.913982      9.0441165    
     99750   199.5          323.23358      135043.54     -807627.41     -9716.1106      0.36353516     0.05711413     29.895944      8.6962324    
     99760   199.52         332.01089      133213.41     -807629.54     -9683.4779      0.3635394      0.056921641    29.838128      8.3483526    
     99770   199.54         331.89711      134536.87     -807628.38     -9711.8269      0.3635435      0.05708764     29.913714      8.0004733    
     99780   199.56         337.64517      133879.53     -807629.37     -9702.378       0.36354745     0.057031478    29.947437      7.6525959    
     99790   199.58         326.65665      136026.22     -807626.28     -9745.4913      0.36355126     0.057284301    29.884057      7.3047228    
     99800   199.6          335.68038      134510.56     -807628.08     -9725.732       0.36355493     0.057167579    29.832167      6.9568536    
     99810   199.62         333.03334      135914.29     -807627.51     -9725.9453      0.36355845     0.057168278    29.889204      6.6089856    
     99820   199.64         319.44563      135140.53     -807626.68     -9688.8997      0.36356183     0.056949998    29.896069      6.2611202    
     99830   199.66         327.17421      135222.86     -807626.88     -9711.3836      0.36356507     0.057081647    29.860686      5.9132581    
     99840   199.68         332.85136      133804.19     -807628.5      -9678.3958      0.36356816     0.056887267    29.84232       5.565399     
     99850   199.7          334.44865      134914.39     -807627.6      -9708.8816      0.36357111     0.057065992    29.909764      5.2175413    
     99860   199.72         328.22141      134619.6      -807626.86     -9703.2692      0.36357392     0.057032564    29.875876      4.8696868    
     99870   199.74         338.31589      135548.85     -807626.56     -9752.7749      0.36357658     0.057323122    29.838968      4.5218355    
     99880   199.76         335.40244      135672.71     -807627.34     -9712.6774      0.3635791      0.057087048    29.857492      4.1739865    
     99890   199.78         338.93213      135325.91     -807627.55     -9718.7384      0.36358148     0.057122299    29.909764      3.8261394    
     99900   199.8          339.01445      134981.73     -807628.1      -9698.2669      0.36358371     0.057001627    29.907422      3.4782951    
     99910   199.82         332.30362      135243.7      -807627.22     -9695.089       0.3635858      0.056982621    29.844167      3.1304541    
     99920   199.84         335.3392       134142.72     -807627.98     -9682.4641      0.36358775     0.056908114    29.887395      2.7826153    
     99930   199.86         338.22768      133642.34     -807628.85     -9666.0495      0.36358955     0.056811357    29.938921      2.4347787    
     99940   199.88         332.38634      135274.41     -807626.07     -9726.4165      0.36359121     0.057165897    29.845474      2.0869455    
     99950   199.9          329.27712      134664.3      -807626.19     -9709.504       0.36359273     0.057066258    29.880895      1.7391147    
     99960   199.92         334.3581       136668.93     -807625.34     -9758.6384      0.3635941      0.057354822    29.915482      1.3912863    
     99970   199.94         334.94615      135139.88     -807626.83     -9717.5466      0.36359533     0.057113119    29.91092       1.0434607    
     99980   199.96         344.4206       136389.88     -807627.07     -9751.6164      0.36359641     0.057313187    29.917814      0.69563774   
     99990   199.98         333.14949      133670.53     -807627.38     -9692.9767      0.36359736     0.056968396    29.962891      0.34781746   
    100000   200            329.80569      135444.01     -807626.24     -9712.7361      0.36359816     0.057084402    29.930003      0            
Loop time of 3478.16 on 32 procs for 100000 steps with 1080 atoms

Performance: 4.968 ns/day, 4.831 hours/ns, 28.751 timesteps/s, 31.051 katom-step/s
62.2% CPU use with 32 MPI tasks x 1 OpenMP threads

MPI task timing breakdown:
Section |  min time  |  avg time  |  max time  |%varavg| %total
---------------------------------------------------------------
Pair    | 2459.3     | 2787.2     | 3308.5     | 317.8 | 80.14
Neigh   | 0.00081833 | 0.00090718 | 0.0010471  |   0.0 |  0.00
Comm    | 93.247     | 614.17     | 942.28     | 677.0 | 17.66
Output  | 2.3379     | 2.3912     | 2.4013     |   0.7 |  0.07
Modify  | 66.196     | 66.706     | 68.762     |   5.4 |  1.92
Other   |            | 7.648      |            |       |  0.22

Nlocal:          33.75 ave          41 max          27 min
Histogram: 3 3 4 1 3 6 5 4 0 3
Nghost:        1031.41 ave        1044 max        1019 min
Histogram: 2 1 4 4 3 5 6 2 4 1
Neighs:              0 ave           0 max           0 min
Histogram: 32 0 0 0 0 0 0 0 0 0
FullNghs:      5378.31 ave        6553 max        4229 min
Histogram: 3 4 2 2 3 6 5 4 0 3

Total # of neighbors = 172106
Ave neighs/atom = 159.35741
Neighbor list builds = 2
Dangerous builds = 0

Total wall time: 1:01:39
