
units		metal
atom_style	atomic

read_data ${STRUCTURE}.data
read_data BaTiO3-sc333.data
Reading data file ...
  orthogonal box = (0 0 0) to (11.898253 11.898253 12.912076)
  2 by 4 by 4 MPI processor grid
  reading atoms ...
  135 atoms
  read_data CPU = 0.005 seconds
replicate $L $L $L
replicate 2 $L $L
replicate 2 2 $L
replicate 2 2 2
Replication is creating a 2x2x2 = 8 times larger system...
  orthogonal box = (0 0 0) to (23.796507 23.796507 25.824152)
  2 by 4 by 4 MPI processor grid
  1080 atoms
  replicate CPU = 0.003 seconds

pair_style allegro
pair_coeff	* * ${MODEL}.pth Ba Ti O
pair_coeff	* * BaTiO3-E0.pth Ba Ti O
mass 1 137.3
mass 2 47.9
mass 3 15.9994

timestep 0.002
compute polarization all allegro polarization 3
compute allegro will evaluate the quantity polarization of length 3 (src/compute_allegro.cpp:53)
compute polarizability all allegro polarizability 9
compute allegro will evaluate the quantity polarizability of length 9 (src/compute_allegro.cpp:53)

thermo_style custom pe fmax fnorm spcpu cpuremain

variable efield equal 1e-2*36.36
fix born all addbornforce 0.0 0.0 ${efield}
fix born all addbornforce 0.0 0.0 0.3636

thermo 10
min_style fire
#minimize 0.0 1e-6 100 100
velocity all create ${TEMP} ${SEED} dist gaussian rot yes mom yes
velocity all create 350 ${SEED} dist gaussian rot yes mom yes
velocity all create 350 21751 dist gaussian rot yes mom yes
fix nvt all nvt temp ${TEMP} ${TEMP} $(100*dt)
fix nvt all nvt temp 350 ${TEMP} $(100*dt)
fix nvt all nvt temp 350 350 $(100*dt)
fix nvt all nvt temp 350 350 0.2000000000000000111
run 5000
Neighbor list info ...
  update: every = 1 steps, delay = 0 steps, check = yes
  max neighbors/atom: 2000, page size: 100000
  master list distance cutoff = 8
  ghost atom cutoff = 8
  binsize = 8, bins = 3 3 4
  1 neighbor lists, perpetual/occasional/extra = 1 0 0
  (1) pair allegro/kk, perpetual
      attributes: full, newton on, kokkos_device
      pair build: full/bin/kk/device
      stencil: full/bin/3d
      bin: kk/device
Per MPI rank memory allocation (min/avg/max) = 3.516 | 3.516 | 3.516 Mbytes
    PotEng          Fmax          Fnorm          S/CPU         CPULeft    
-807708.29      1.596201       37.043086      0              0            
-807641.63      3.6097403      46.371824      2.6876254      1856.6585    
-807631.41      2.4394981      36.322108      25.945713      1022.4386    
-807602.11      3.3825051      38.431968      25.951695      744.09348    
-807599.12      4.1196249      50.998616      25.859991      604.89774    
-807566.27      3.4602929      41.57847       25.823105      521.28032    
-807602.53      2.6000601      38.721762      25.907217      465.30273    
-807646.46      3.6085666      34.535318      25.912595      425.20287    
-807681.84      2.9688684      34.96123       25.826323      395.11076    
-807664.89      3.5715472      35.199217      25.849197      371.60104    
-807647.22      4.2881988      36.878016      25.904705      352.67527    
-807656.28      3.5263035      28.973538      25.922907      337.10832    
-807621.36      4.2595982      33.419621      25.88067       324.09717    
-807579.2       3.845219       41.968769      25.903102      313.01576    
-807566.26      4.1755565      39.48545       25.935125      303.4457     
-807632.18      3.373782       34.777123      25.879234      295.12717    
-807651.17      3.3147299      33.136368      25.884123      287.79794    
-807661.4       2.9095226      35.379201      25.880928      281.28689    
-807643.08      4.7366018      45.912118      25.909913      275.44477    
-807677.26      3.0580944      37.035636      25.892146      270.18369    
-807637.85      3.5651264      39.278198      25.850243      265.42513    
-807610.04      3.0109363      40.278625      25.909186      261.06284    
-807557.24      4.1010977      46.235005      25.926493      257.05644    
-807601.02      4.0112821      49.962981      25.860584      253.38527    
-807611.12      4.1774243      40.003117      25.844956      249.99245    
-807638.92      3.127572       36.777937      25.895227      246.82582    
-807640.95      4.8716078      46.181954      25.92662       243.86455    
-807678.16      3.1161666      38.952035      25.883276      241.10538    
-807660.49      3.5494972      36.095321      25.858992      238.52181    
-807632.22      2.9098373      34.029059      25.932156      236.07204    
-807602.39      3.480585       36.506441      25.931729      233.75996    
-807598.63      3.8389625      43.548309      25.909111      231.57727    
-807594.01      3.2489301      38.243154      25.846855      229.52047    
-807606.27      3.1483993      34.823144      25.91117       227.55129    
-807641.29      3.2856371      31.229549      25.917698      225.67391    
-807670.13      2.7042708      33.356474      25.904883      223.88429    
-807674.64      2.2593976      33.299456      25.79692       222.19348    
-807640.19      4.5955715      38.834454      25.911868      220.55159    
-807645.09      3.4887787      31.297313      25.923587      218.97367    
-807615.81      3.0568766      35.200066      25.907756      217.45969    
-807596.68      3.5058464      43.640449      25.825918      216.01617    
-807566.88      3.5925028      42.06784       25.913767      214.60948    
-807622.9       2.8267915      35.523001      25.926357      213.24935    
-807647.66      3.6208862      36.173003      25.910949      211.93699    
-807669.81      2.8933673      35.774122      25.887132      210.67042    
-807639.35      5.0628404      46.833491      25.904911      209.44029    
-807663.13      2.7407751      35.889287      25.920194      208.24461    
-807641.42      3.575934       37.119671      25.877831      207.08948    
-807618.38      3.2163663      38.493014      25.90583       205.96245    
-807561.14      3.9101752      43.751116      25.944505      204.86037    
-807597.24      4.1235366      44.017047      25.972285      203.78324    
-807621.65      3.4125556      36.066458      25.949056      202.73629    
-807651.54      2.9631812      34.227874      25.967666      201.71241    
-807640.5       4.1991119      42.100106      26.029444      200.70492    
-807667.75      3.1094134      36.458325      26.015058      199.72227    
-807663.01      3.0750107      34.541982      25.920607      198.77271    
-807637.64      3.5530201      33.200316      25.961378      197.83848    
-807594.09      2.8082223      37.087624      25.999186      196.91916    
-807592.02      3.7654785      40.257741      26.016178      196.01637    
-807599.33      4.645549       41.028991      25.875455      195.14677    
-807615.99      4.1969515      35.097163      25.930658      194.28725    
-807633.61      3.8674547      34.944517      26.001627      193.43568    
-807661.91      4.1369075      35.077811      26.001018      192.59925    
-807669.3       2.7641777      37.177922      25.901804      191.78737    
-807644.91      3.7459151      37.958777      25.911357      190.98784    
-807628.22      3.2575318      35.147331      25.962899      190.1959     
-807609.01      3.2825462      36.706113      26.020112      189.41072    
-807598.33      4.1406812      45.837009      25.922907      188.64682    
-807576.99      3.7983196      42.072421      25.959717      187.89056    
-807610.89      2.8456321      38.234314      26.039632      187.13768    
-807642.85      3.6678081      37.433297      26.024434      186.39671    
-807668.16      2.8707089      37.53198       25.989978      185.66887    
-807646.21      4.580112       42.952044      25.920025      184.95673    
-807647.99      3.3233741      37.549043      26.022084      184.24468    
-807638.09      3.8801533      35.647608      25.94097       183.54841    
-807619.29      3.5552922      38.904584      25.981758      182.857      
-807573.07      4.0595112      40.77808       25.932771      182.17771    
-807586.05      3.2460104      41.268909      25.994201      181.50103    
-807620.74      2.9821385      34.595132      25.943908      180.83588    
-807654.06      2.6350173      33.680549      25.927075      180.17915    
-807646.13      3.7144821      38.736515      25.918777      179.52984    
-807653.32      3.4015919      37.660182      25.823505      178.8944     
-807657.58      2.7567094      35.89417       25.889828      178.25995    
-807640.77      3.9215433      34.773607      25.939701      177.62776    
-807598.49      3.3390579      38.128104      26.030429      176.99478    
-807580.42      4.5098923      40.957535      26.001863      176.36972    
-807601.17      3.7036176      41.714802      25.977221      175.75201    
-807621.39      5.3582615      36.097552      25.994761      175.13842    
-807636.87      3.7435051      35.29478       25.997258      174.52985    
-807646.95      5.2800804      39.164903      25.995398      173.92644    
-807665.91      3.490554       37.356799      25.91046       173.33364    
-807649.1       5.3635075      38.038572      25.934498      172.74378    
-807628.28      3.3172049      34.838527      26.002225      172.15391    
-807599.32      3.9078676      38.532418      25.995611      171.56887    
-807599.17      3.5818859      44.067634      25.936842      170.99187    
-807591.35      4.1140629      39.363379      25.937336      170.41886    
-807612.87      3.3200833      36.869208      25.991576      169.84638    
-807634.15      4.6495095      37.949041      25.985562      169.27813    
-807663.62      2.8942794      37.311253      25.89029       168.71944    
-807654         3.6415076      38.300762      25.881731      168.16475    
-807643.45      3.4456358      36.565307      25.928458      167.61063    
-807630.74      3.5245669      35.711083      25.971991      167.0573     
-807618.64      3.3083541      37.670656      25.953302      166.50836    
-807589.81      3.6911393      39.688811      25.921938      165.96438    
-807584.86      3.4785791      39.922589      25.957659      165.42143    
-807618.34      3.691132       34.947588      25.940221      164.88246    
-807650.81      3.0524139      34.636451      25.940635      164.34636    
-807655.19      2.9532947      36.117383      25.850675      163.818      
-807646.46      4.3125345      38.731912      25.849798      163.29231    
-807651.86      3.187134       34.033284      25.952944      162.76365    
-807641.05      3.4651536      33.928993      25.969947      162.2367     
-807610.81      3.5431861      36.055749      25.960548      161.7128     
-807578.51      3.5435739      40.503962      26.020824      161.18829    
-807599.61      4.203153       38.737308      18.30704       161.22083    
-807629.21      2.9578176      34.011733      22.953988      160.86878    
-807645.34      3.3510341      33.962905      25.956835      160.34656    
-807643.6       3.9983731      38.433326      14.354333      160.85753    
-807660.35      4.4814856      35.919608      25.944874      160.32907    
-807651.58      3.1765307      35.573457      15.953171      160.58453    
-807631.16      2.9285675      33.935549      12.045799      161.47616    
-807595.47      3.6497485      38.316953      15.399874      161.76653    
-807597.8       3.1860538      40.742454      25.988363      161.21268    
-807602.79      3.3796032      37.998052      25.939685      160.66383    
-807623.97      3.5527499      34.950642      25.972689      160.11614    
-807634.1       4.1625396      36.290783      25.894762      159.57459    
-807657.1       2.8158774      35.928968      25.957216      159.03274    
-807656.82      2.9423817      36.450355      20.43674       158.80226    
-807642.58      3.0106326      35.68874       23.341688      158.38885    
-807619.74      3.5103259      36.545728      19.07763       158.2535     
-807612.79      3.1443871      36.826004      24.083055      157.79881    
-807594.33      3.5590552      39.777379      25.910483      157.26136    
-807596.98      3.7082156      38.39058       25.847973      156.72886    
-807616.51      3.4955668      35.745319      25.949844      156.19434    
-807646.39      4.2811969      35.024306      25.958416      155.6617     
-807654.44      3.1480131      36.687308      21.644815      155.34096    
-807647.14      3.570485       37.230504      25.874243      154.81394    
-807639.16      3.6733191      36.497184      25.955202      154.28576    
-807631.56      3.3155985      34.974242      25.996007      153.75806    
-807610.8       4.1949897      37.847326      25.950978      153.23419    
-807584.25      3.5613016      39.647576      26.003216      152.71031    
-807595.9       3.9863677      39.369896      25.916397      152.19172    
-807628.15      4.2511205      35.138494      25.927449      151.6746     
-807646.99      3.1683181      35.118467      25.927754      151.15932    
-807644.05      4.3209614      38.601759      25.989472      150.64356    
-807648.98      3.7220735      36.662827      25.897647      150.133      
-807646.45      3.2241183      36.275579      25.952775      149.62214    
-807630.92      3.9984225      35.461168      25.920146      149.11418    
-807595.41      4.0497262      38.765728      25.937152      148.60728    
-807590.17      3.1843545      41.210757      25.925764      148.10241    
-807604.78      4.0733766      38.130369      25.923459      147.59923    
-807628.89      3.2072297      35.2997        25.914221      147.09794    
-807634.98      3.8491684      37.133632      25.959419      146.59662    
-807649.03      4.6476016      37.084351      25.993898      146.09566    
-807653.22      3.3464856      36.530909      25.968793      145.59706    
-807643.8       4.3488594      35.368125      25.929858      145.10123    
-807618.78      3.6117099      35.673543      25.973673      144.60538    
-807603.02      4.1142828      37.419593      26.002961      144.10999    
-807598.22      3.7532404      39.158096      26.01793       143.61553    
-807606.14      4.3383592      37.468066      25.925304      143.12544    
-807619.4       3.6535062      34.980407      25.903307      142.63736    
-807642.52      3.8033552      35.74639       25.899811      142.15067    
-807655.5       3.7095382      36.198827      25.967079      141.66312    
-807649.06      4.117411       37.830939      25.939427      141.1777     
-807635.57      4.3195594      36.734066      25.967794      140.69263    
-807624.62      3.2968964      35.788214      26.009409      140.20751    
-807610.36      3.4201527      38.242743      25.950559      139.72539    
-807592.51      3.5864504      38.983133      25.836252      139.24786    
-807602.8       3.8431478      36.302286      25.855068      138.77085    
-807626.57      2.8962475      33.895125      25.93641       138.29253    
-807649.51      3.4303426      34.392957      26.040838      137.81227    
-807648.53      3.42587        36.968121      26.001502      137.33427    
-807647.37      2.7972511      34.893645      25.971558      136.85821    
-807638.46      4.2168751      36.259848      25.979626      136.38299    
-807630.43      3.2711148      35.852627      25.964192      135.90924    
-807598.5       4.2193205      38.976163      25.954605      135.43678    
-807592.52      3.4727084      40.232479      25.953617      134.96534    
-807606.93      3.1661155      37.477489      25.922037      134.49575    
-807633.24      3.1520385      34.93616       25.905875      134.02754    
-807640.84      3.0585118      35.670743      25.881871      133.5609     
-807649.27      3.673577       35.792722      25.969636      133.09282    
-807647.99      4.6532557      36.411378      25.946727      132.62626    
-807641.41      4.5916243      35.335804      25.9333        132.16095    
-807617.76      3.4187428      36.036116      25.969881      131.69557    
-807598.59      3.8179826      38.482384      25.977066      131.23089    
-807597.42      4.1337263      40.051398      25.958459      130.76754    
-807612.28      3.4852232      37.32743       25.969198      130.30477    
-807627.27      3.954253       35.794866      25.956515      129.84314    
-807639.59      4.024205       36.628347      25.982845      129.38169    
-807649.47      4.0418753      37.144602      25.97217       128.92131    
-807645.96      3.9916132      37.479243      25.918888      128.46303    
-807634.23      3.7047998      36.199884      25.929642      128.00525    
-807614.48      4.9916743      37.843353      25.929482      127.54823    
-807605.69      3.772766       38.624239      25.922379      127.09212    
-807597.27      3.812313       39.508875      25.922609      126.63674    
-807607.97      3.2475392      37.446666      25.996489      126.18035    
-807625.19      4.2140627      36.122956      26.020346      125.72413    
-807644.01      3.2502902      36.314012      25.982732      125.26952    
-807647.78      3.5071017      37.009321      25.98161       124.81564    
-807642.05      4.0293831      37.493316      26.041941      124.3611     
-807631.79      4.2839816      36.530576      26.021131      123.90773    
-807621.77      3.3652048      36.38464       25.989444      123.45575    
-807602.64      3.6618091      38.484463      25.981054      123.00463    
-807597.47      3.5856608      38.602869      25.937458      122.55511    
-807607.82      3.3183491      36.579187      25.932624      122.10634    
-807634.54      3.0566161      34.828808      25.919052      121.65847    
-807641.73      3.4759903      35.877392      25.925581      121.21107    
-807642.84      4.4794209      37.818185      25.912861      120.76454    
-807642.34      3.0240763      37.462123      25.931328      120.31821    
-807636.97      3.8497945      36.285547      25.976703      119.87151    
-807618.69      2.7270679      36.011745      25.95548       119.42584    
-807599.12      3.6697518      40.243001      25.957602      118.98071    
-807599.03      3.3219625      39.756724      25.951166      118.53627    
-807617.27      3.4776612      37.883312      25.966085      118.09209    
-807631.26      3.6242446      36.281527      25.939474      117.649      
-807638.87      3.4990637      36.498076      25.979941      117.20564    
-807647.72      3.6738789      37.144178      25.987434      116.76268    
-807646.27      3.0208187      36.036262      25.954478      116.3209     
-807633.37      4.8407724      35.521543      25.969047      115.87936    
-807613.53      4.0425408      36.478127      25.999798      115.43775    
-807602.4       3.2460925      38.415524      25.988443      114.99687    
-807602.22      4.2134412      39.273376      25.981785      114.55663    
-807616.33      3.8980423      36.583855      25.806548      114.12019    
-807628.45      3.2260126      36.224205      25.92697       113.68194    
-807644.39      2.763374       36.552552      25.906142      113.24454    
-807648.54      3.2337901      37.051519      25.940108      112.80698    
-807641.66      3.7438644      37.372471      25.92345       112.37018    
-807629.49      3.7634583      35.709102      25.988538      111.93267    
-807615.95      3.9112718      37.714575      25.996828      111.49547    
-807603.8       3.7790672      39.049371      25.947418      111.05961    
-807598.98      3.5894105      39.140071      25.966758      110.62385    
-807614.05      2.9696238      36.24415       25.946224      110.18888    
-807635.71      2.7438723      35.550459      25.931905      109.7546     
-807644.67      3.5307875      36.086095      25.946534      109.32048    
-807645.62      3.6967674      36.74538       25.943257      108.88683    
-807639.1       4.4392406      36.79459       25.95779       108.45336    
-807631.07      3.0898495      35.486967      25.991         108.01973    
-807616.4       4.0468161      36.72973       25.913517      107.58781    
-807600.68      3.1633258      38.662558      25.930116      107.156      
-807602.23      6.0086789      38.485298      25.969495      106.72394    
-807619.45      4.1067676      36.35493       25.957795      106.29246    
-807634.57      5.1183924      35.918563      25.965586      105.86124    
-807644.28      3.8966754      35.777361      25.989528      105.43002    
-807642.68      3.6886489      36.558505      25.942956      104.99992    
-807641.27      3.0307011      35.94039       25.973089      104.56972    
-807631.23      3.473203       35.217429      25.982369      104.13974    
-807609.75      4.2818854      37.632696      25.959673      103.71048    
-807601.44      4.0844138      38.340319      25.993279      103.28106    
-807606.07      3.4321777      37.72849       25.926726      102.85302    
-807621.48      2.815339       36.555265      25.892669      102.42584    
-807631.62      3.3328942      36.463804      25.923942      101.99851    
-807643.56      3.510764       37.033662      25.931199      101.57141    
-807645.51      4.1317489      37.139793      25.949733      101.14436    
-807640.49      3.8874736      36.157124      25.930676      100.71793    
-807624.51      3.3505012      36.849067      25.924709      100.2919     
-807610.22      3.6424509      37.290997      25.916952      99.866308    
-807600.61      3.6487191      38.647817      25.930418      99.440831    
-807605.56      3.5292626      38.337579      25.917261      99.015852    
-807618.28      3.6171171      35.888115      25.931601      98.590975    
-807632.81      3.8655481      36.010415      25.916924      98.166607    
-807644.54      2.9880523      36.438358      25.972751      97.741766    
-807644.62      3.3481383      36.934064      25.958742      97.317422    
-807636.7       3.911329       36.263968      26.025569      96.892473    
-807624.21      4.4356528      36.292754      26.018503      96.467929    
-807610.16      3.1383785      37.96618       25.918584      96.045025    
-807600.11      3.9178039      39.514507      25.899836      95.622653    
-807603.84      3.5683581      38.368734      25.885419      95.200745    
-807619.92      3.7992389      36.74272       25.901349      94.778895    
-807635.9       3.0037006      36.141807      25.919213      94.357081    
-807643.06      3.3330156      36.520151      25.926037      93.935448    
-807642.06      3.8297456      36.796739      25.932789      93.513996    
-807636.09      3.7995572      36.109456      25.9579        93.092491    
-807625.45      2.7427999      35.742908      25.957726      92.671256    
-807609.4       2.8685564      37.633471      25.922648      92.250723    
-807601.32      2.9588241      38.125041      25.92783       91.830381    
-807607.78      2.9532486      38.148592      25.976813      91.409691    
-807623.79      3.0501501      36.980355      25.944556      90.989653    
-807637.35      4.0256084      35.894852      25.927981      90.570066    
-807642.07      4.1410299      36.945708      25.748608      90.152886    
-807642.14      3.2955681      36.619307      25.929568      89.73375     
-807638.23      3.9272023      36.364998      25.911886      89.315062    
-807622.67      3.5233604      35.778741      25.922061      88.896489    
-807609.27      3.2988669      37.362689      25.979019      88.47749     
-807602.82      3.2356254      37.932772      25.995508      88.058544    
-807613.01      3.4599272      36.91968       25.92247       87.640671    
-807626.42      3.3820876      36.097861      25.974424      87.222438    
-807636.68      3.4691903      35.74973       25.961143      86.804587    
-807642.68      3.266546       36.711344      26.002523      86.386504    
-807644.5       5.2709757      36.140808      25.983926      85.96886     
-807634.82      3.5631435      35.502136      25.917989      85.552164    
-807620.76      4.1647485      35.7804        25.924342      85.135613    
-807609.06      3.2573366      37.362326      25.93705       84.719138    
-807604.52      3.556603       38.732111      25.918068      84.303078    
-807615.37      3.7109131      36.609998      25.923685      83.887165    
-807625.04      3.2746454      36.062148      25.934142      83.471348    
-807639.23      3.3881429      35.736271      25.954521      83.055525    
-807646.29      3.2796992      36.093809      25.939141      82.640068    
-807642.37      4.0714806      36.316789      25.914395      82.225066    
-807630.35      3.6569366      36.680064      25.935288      81.810049    
-807622.65      3.7703353      35.434377      25.985393      81.394724    
-807609.99      3.8507324      37.311888      25.950466      80.979952    
-807604.61      3.2243058      38.296047      25.969378      80.565189    
-807613.58      2.765697       36.421498      26.005253      80.150272    
-807629.32      2.9738212      35.888132      26.018343      79.73543     
-807641.57      3.0165192      36.004046      25.991384      79.321048    
-807642.81      3.5657246      36.983489      25.977496      78.906994    
-807640.23      3.4648786      36.378211      25.924155      78.493637    
-807631.73      3.8213311      36.206241      25.966397      78.080062    
-807620.34      3.4531971      36.236252      25.953162      77.666796    
-807606.28      3.209578       38.160167      25.96708       77.253584    
-807605.41      3.2368165      37.895426      25.913758      76.841043    
-807613.7       2.9369711      37.541822      25.927558      76.428547    
-807630.94      4.1902718      37.112296      25.932066      76.016184    
-807638.74      4.7658563      37.943318      25.996391      75.603417    
-807642.35      5.1671922      37.955915      25.909673      75.191599    
-807636.93      4.6704737      37.943177      25.892117      74.7801      
-807633.33      4.0003721      37.129186      25.919664      74.368521    
-807614.87      3.5489432      37.709721      25.901237      73.957265    
-807603.66      4.3086656      38.925808      25.929277      73.545927    
-807605.8       3.3793467      38.030383      25.93597       73.134693    
-807618.37      3.4325842      36.573609      25.952277      72.723483    
-807628.25      3.0241139      36.222345      25.920259      72.312702    
-807639.93      3.3077898      36.607097      25.924582      71.902041    
-807642.99      3.8651543      37.134642      25.970268      71.49116     
-807637.72      3.5188483      37.409416      25.926478      71.080795    
-807626.9       4.0121535      36.677852      25.993988      70.670038    
-807613.35      3.7599246      37.966172      25.940509      70.259868    
-807605.26      4.4662166      39.463017      25.957504      69.849716    
-807606.14      3.4039811      38.572079      25.994791      69.439423    
-807617.25      3.4562332      37.028052      25.969011      69.029486    
-807629.94      3.4045118      36.86714       25.994083      68.619508    
-807639.62      4.942405       36.975718      25.962997      68.20992     
-807642.74      3.8731253      36.720884      25.924943      67.800768    
-807636.55      4.8595745      36.416365      25.910348      67.391867    
-807627.47      3.6813853      36.186091      25.938554      66.982894    
-807615.3       3.990473       37.138469      25.951901      66.573963    
-807608.05      3.0721994      37.825684      25.968582      66.16505     
-807606.4       3.8197412      37.989883      25.952009      65.7564      
-807619.74      3.3075104      36.833007      25.920823      65.348112    
-807634.69      3.1349435      36.177784      25.915258      64.939997    
-807641.41      3.5697133      36.774374      25.921038      64.531972    
-807639.82      4.0049962      37.012903      25.921104      64.124078    
-807637.59      4.1127832      36.858492      25.908548      63.7164      
-807628.86      3.410901       36.387367      25.924995      63.308736    
-807614.35      4.1760624      37.934283      25.937144      62.901118    
-807604.35      3.6178647      38.634571      25.950716      62.493536    
-807610.91      3.6742167      37.84033       25.951224      62.08608     
-807622.44      3.7197083      36.483801      25.994012      61.678469    
-807635.82      3.7806372      35.903819      25.936284      61.271368    
-807640.95      3.9280802      36.435068      25.923437      60.864475    
-807641.61      4.4275822      36.293825      25.950429      60.457528    
-807635.72      3.9841589      37.012164      25.970626      60.050577    
-807626.36      4.0361283      35.766525      25.976643      59.643713    
-807611.74      4.267788       37.626737      25.992238      59.236876    
-807606.69      3.2289087      37.20174       25.970155      58.8303      
-807613.87      3.419078       36.763621      25.991648      58.423715    
-807625.52      2.8485577      35.6029        25.990478      58.01726     
-807634.25      2.8157787      36.390409      25.935143      57.611259    
-807639.72      3.1555039      37.13567       25.903818      57.205559    
-807642.49      2.8184697      36.433372      25.932198      56.799801    
-807634.62      3.6501809      36.37361       25.904596      56.394317    
-807623.15      3.6321826      36.600664      25.917726      55.988865    
-807611.3       3.4953144      37.745483      25.865928      55.583819    
-807609.43      2.8069878      37.384567      25.913092      55.178607    
-807612.3       3.1116536      37.52943       25.920832      54.773458    
-807623.7       2.6604909      36.46259       25.926999      54.36838     
-807636.1       3.5664555      36.514461      25.961806      53.963218    
-807639.92      4.1743987      37.401873      25.906485      53.558466    
-807639.05      4.0138916      37.185029      25.908815      53.153803    
-807632.04      2.9423406      36.91688       25.92193       52.749172    
-807623.66      4.0732523      36.384361      25.957199      52.344457    
-807610.87      3.2292957      37.856951      25.971903      51.939771    
-807606.31      3.6496802      39.118774      25.951449      51.535296    
-807613.78      3.5292674      37.238205      25.984318      51.130757    
-807624.18      3.0665583      36.536348      25.929596      50.726599    
-807635.4       3.7690851      36.420813      25.9119        50.322629    
-807638.14      3.4010138      36.337649      25.937064      49.918631    
-807635.62      4.7368305      37.451092      25.956413      49.514636    
-807633.27      3.1272225      35.946934      25.954023      49.110752    
-807620.45      3.7952738      37.482788      25.985016      48.706818    
-807607.71      3.3363895      37.378484      25.940405      48.303196    
-807609.02      3.3288458      38.111587      25.971319      47.899524    
-807615.44      2.9400522      36.843524      25.921113      47.496184    
-807625.74      3.4093018      36.885265      25.925554      47.092914    
-807634.48      3.273928       37.199083      25.949112      46.68963     
-807638.5       3.9855372      37.587286      25.924432      46.286549    
-807638.23      3.4563763      37.816515      25.918575      45.883585    
-807630.16      3.43352        36.917439      25.935284      45.480636    
-807617.62      3.5933274      37.098539      25.928704      45.077805    
-807609.86      3.0953257      38.20462       25.911474      44.675137    
-807608.67      3.2578021      38.128396      25.928779      44.272482    
-807617.31      3.3275796      36.826942      25.932944      43.869896    
-807625.04      3.4366402      36.226532      25.92584       43.467426    
-807635.14      2.7862552      36.445765      25.964118      43.064885    
-807641.1       3.1313718      36.034662      25.920306      42.66261     
-807637.6       3.8209524      35.878289      25.925436      42.260398    
-807629.54      4.1404978      35.865473      25.947852      41.858181    
-807617.44      3.5658618      36.85701       25.947885      41.456049    
-807614.28      3.4633801      37.328619      25.953547      41.05398     
-807612.16      3.9042588      36.87692       25.991082      40.651852    
-807616.97      2.9088478      36.728493      25.957307      40.249938    
-807628.26      3.3220788      36.698929      26.007048      39.847923    
-807639.29      3.8823393      36.203043      25.947475      39.446213    
-807637.25      3.1232607      36.69079       25.943851      39.044597    
-807634.55      3.5522006      36.017087      25.964772      38.642987    
-807627.6       3.5006373      36.243322      25.927253      38.241591    
-807622.17      2.9932687      35.635052      25.929873      37.840264    
-807612.68      3.8509257      36.795478      25.928084      37.439019    
-807609.42      3.6039876      37.353598      25.980155      37.037675    
-807622.48      3.3831013      35.425594      25.992318      36.636371    
-807634.08      3.3554452      34.718813      25.949018      36.23529     
-807635.21      3.1250179      36.345507      25.943869      35.834303    
-807639.29      3.106824       35.552144      25.908112      35.433507    
-807635.09      3.1621277      35.641239      25.915901      35.032758    
-807629.03      3.0547202      35.727491      25.924615      34.632053    
-807617.53      2.9770555      36.938926      25.912829      34.231458    
-807610.97      3.4610797      37.533643      26.001499      33.830663    
-807615.05      3.6943376      36.364919      25.913364      33.430211    
-807623.14      3.2870191      35.596408      25.932073      33.029773    
-807632.29      3.7694149      35.266706      25.941724      32.629377    
-807637.58      3.5346977      35.699908      25.93011       32.229087    
-807640.13      2.8772282      34.765664      25.921388      31.82889     
-807632.36      4.2419059      36.710503      25.916307      31.428777    
-807624.91      3.2948627      36.720612      25.915702      31.028733    
-807614.67      3.4094501      37.423269      26.002941      30.628519    
-807609.98      3.7521643      38.463741      25.988036      30.22842     
-807614.01      3.8103344      37.774512      25.992448      29.828381    
-807624.48      3.1521278      35.592776      25.981218      29.428442    
-807630.39      3.5112115      36.348588      25.961729      29.028624    
-807639.99      3.1873019      36.417608      25.955996      28.628888    
-807638.21      3.8639348      36.112389      25.974699      28.229174    
-807631.12      3.3686949      36.335842      25.999197      27.829469    
-807623.17      3.9903759      35.940664      26.005071      27.42982     
-807613.2       3.3354038      38.107824      25.997054      27.03026     
-807611.19      3.5621987      37.546995      25.945907      26.630886    
-807613.53      3.6960966      38.951949      25.893445      26.231695    
-807623.6       4.1093973      37.305594      25.95866       25.832419    
-807632.08      5.1663545      37.665338      25.948404      25.433229    
-807636.19      3.2793446      37.7276        25.940093      25.034121    
-807635.26      4.1751587      37.352806      25.937668      24.63508     
-807628.15      3.2676239      37.842778      26.015958      24.235939    
-807621.85      4.5749837      37.388074      26.04834       23.8368      
-807613.5       3.0267206      37.393251      25.960797      23.437903    
-807611.36      3.6788166      38.144599      25.929321      23.03913     
-807616.84      4.2332839      38.200504      25.939712      22.640396    
-807624.68      3.1983954      37.586643      25.955817      22.241691    
-807634.28      2.98515        35.934996      25.960754      21.843038    
-807634.17      4.9794026      37.236138      25.983014      21.444405    
-807634.5       4.2120913      37.709         25.994798      21.045813    
-807629.81      3.1420119      36.209519      25.999532      20.647275    
-807621.93      5.1181417      37.160383      25.925176      20.248924    
-807612.54      2.8939102      37.807137      25.943679      19.850599    
-807613.91      3.4123851      37.652971      26.009975      19.452224    
-807618.75      3.3166331      37.388555      26.085774      19.053792    
-807626.81      3.7078233      36.21496       25.98965       18.655574    
-807632.21      4.7553988      37.147266      26.060511      18.257309    
-807635.26      3.7336065      37.470677      26.089382      17.859066    
-807635.25      4.3975969      36.12154       26.057423      17.460934    
-807627.91      3.0130733      36.706021      26.054939      17.062868    
-807618.76      3.3081737      36.912064      26.040817      16.664883    
-807614.65      3.3786089      37.92591       25.967803      16.267056    
-807614.39      2.7921328      37.268106      25.981675      15.869266    
-807619.21      3.0057654      37.288213      25.988791      15.471524    
-807627.01      3.5790284      36.686985      25.971015      15.073859    
-807633.78      4.04474        36.999931      25.922106      14.676306    
-807637.08      3.4048251      36.245841      25.963475      14.278757    
-807634.44      3.7351995      36.502798      26.020312      13.881198    
-807625.1       3.3764222      37.289355      26.031831      13.483683    
-807620.38      3.1643549      35.690193      25.981199      13.086279    
-807614.77      3.0952405      36.544822      26.05308       12.688855    
-807616.58      3.2574026      36.766844      26.072726      12.29147     
-807621.18      3.2727888      36.489957      26.031737      11.894182    
-807629.87      2.5819412      35.775746      26.116349      11.496874    
-807633.99      3.6218498      36.700273      26.030042      11.099702    
-807635.92      3.3343173      36.717787      26.047118      10.702571    
-807632.83      3.8827515      36.468801      26.014511      10.305522    
-807624.8       3.1835533      37.373402      26.05978       9.9084904    
-807619.13      3.5283619      37.343344      26.04087       9.5115292    
-807616.61      3.1768686      36.554154      26.093899      9.1145847    
-807617.14      3.0857887      36.529627      26.097418      8.7176952    
-807622.73      3.0352938      36.540947      26.108173      8.320856     
-807631.31      2.8219898      35.748602      26.11584       7.9240696    
-807633.45      3.3239553      35.94572       26.084429      7.5273592    
-807634.75      2.4839484      34.974862      26.026475      7.1307361    
-807632.9       3.5468227      35.33331       25.959055      6.7341994    
-807626.82      3.1439318      35.644879      25.946707      6.3377155    
-807619.9       3.9147033      35.405058      25.966385      5.9412682    
-807617.3       2.6683606      35.56158       25.996921      5.5448546    
-807618.09      3.3092807      36.162773      25.992297      5.1484911    
-807626.96      3.3515596      35.337985      25.981133      4.7521793    
-807629.32      3.7701748      36.561484      26.025827      4.3558993    
-807635.9       4.2891495      35.917931      26.008845      3.9596737    
-807634.22      4.0051421      36.094978      26.084539      3.5634754    
-807632.31      3.4446167      36.005741      26.08806       3.1673284    
-807623.51      3.8910775      36.159669      26.045801      2.7712423    
-807618.76      3.2152164      36.083352      26.075584      2.3752       
-807616.26      3.0797868      36.081348      26.013377      1.9792177    
-807619.99      3.4228336      36.340042      26.004622      1.5832831    
-807625.93      3.6332765      35.62044       26.037403      1.1873913    
-807631.55      3.2819162      35.011365      26.035391      0.79154721   
-807635.95      3.2035286      35.468002      26.036418      0.39575017   
-807632.67      3.7375554      36.162588      25.997686      0            
Loop time of 197.866 on 32 procs for 5000 steps with 1080 atoms

Performance: 4.367 ns/day, 5.496 hours/ns, 25.270 timesteps/s, 27.291 katom-step/s
79.4% CPU use with 32 MPI tasks x 1 OpenMP threads

MPI task timing breakdown:
Section |  min time  |  avg time  |  max time  |%varavg| %total
---------------------------------------------------------------
Pair    | 100.93     | 144.05     | 192.24     | 316.0 | 72.80
Neigh   | 0          | 0          | 0          |   0.0 |  0.00
Comm    | 3.174      | 51.356     | 94.475     | 529.2 | 25.96
Output  | 0.032277   | 0.035474   | 0.037299   |   0.5 |  0.02
Modify  | 2.0743     | 2.0943     | 2.11       |   0.7 |  1.06
Other   |            | 0.3302     |            |       |  0.17

Nlocal:          33.75 ave          48 max          21 min
Histogram: 8 8 0 0 0 0 0 8 0 8
Nghost:        1106.25 ave        1119 max        1092 min
Histogram: 8 0 8 0 0 0 0 0 8 8
Neighs:              0 ave           0 max           0 min
Histogram: 32 0 0 0 0 0 0 0 0 0
FullNghs:       5494.5 ave        7896 max        3378 min
Histogram: 8 8 0 0 0 0 0 8 0 8

Total # of neighbors = 175824
Ave neighs/atom = 162.8
Neighbor list builds = 0
Dangerous builds = 0

reset_timestep 0


variable interval equal 1000
thermo 10

variable nintervals equal $(v_PERIOD/v_interval)
variable nintervals equal 100
variable efield equal 1e-2*36.36*cos((step/${PERIOD})*2*3.14)
variable efield equal 1e-2*36.36*cos((step/100000)*2*3.14)
fix born all addbornforce 0.0 0.0 v_efield

variable Px equal f_born[1]+c_polarization[1]
variable Py equal f_born[2]+c_polarization[2]
variable Pz equal (f_born[3]+c_polarization[3])/vol
variable pe equal pe

fix aveP all ave/time 1 $(v_interval/2) ${interval} v_efield v_Pz v_pe f_born file Pz.${MODEL}.${STRUCTURE}.${TEMP}.$L.${ITER}
fix aveP all ave/time 1 500 ${interval} v_efield v_Pz v_pe f_born file Pz.${MODEL}.${STRUCTURE}.${TEMP}.$L.${ITER}
fix aveP all ave/time 1 500 1000 v_efield v_Pz v_pe f_born file Pz.${MODEL}.${STRUCTURE}.${TEMP}.$L.${ITER}
fix aveP all ave/time 1 500 1000 v_efield v_Pz v_pe f_born file Pz.BaTiO3-E0.${STRUCTURE}.${TEMP}.$L.${ITER}
fix aveP all ave/time 1 500 1000 v_efield v_Pz v_pe f_born file Pz.BaTiO3-E0.BaTiO3-sc333.${TEMP}.$L.${ITER}
fix aveP all ave/time 1 500 1000 v_efield v_Pz v_pe f_born file Pz.BaTiO3-E0.BaTiO3-sc333.350.$L.${ITER}
fix aveP all ave/time 1 500 1000 v_efield v_Pz v_pe f_born file Pz.BaTiO3-E0.BaTiO3-sc333.350.2.${ITER}
fix aveP all ave/time 1 500 1000 v_efield v_Pz v_pe f_born file Pz.BaTiO3-E0.BaTiO3-sc333.350.2.5

thermo_style custom step time temp press pe f_born v_efield v_Pz spcpu cpuremain

# dump 4a all custom 1000 dump.hyst.${MODEL}.${STRUCTURE}.${TEMP}.$L.${ITER}.bin id type xu yu zu fx fy fz
# dump_modify 4a sort id

fix nvt all nvt temp ${TEMP} ${TEMP} $(100*dt)
fix nvt all nvt temp 350 ${TEMP} $(100*dt)
fix nvt all nvt temp 350 350 $(100*dt)
fix nvt all nvt temp 350 350 0.2000000000000000111

run $(v_PERIOD)
run 100000
WARNING: non-constant efield is experimental, strongly distrust scalar/vector output (src/fix_addbornforce.cpp:193)
Per MPI rank memory allocation (min/avg/max) = 3.516 | 3.516 | 3.516 Mbytes
   Step          Time           Temp          Press          PotEng         f_born        v_efield         v_Pz          S/CPU         CPULeft    
         0   0              330.56474      129354.81     -807632.68     -293.43251      0.3636         0.055186376    0              0            
        10   0.02           344.52351      131562.42     -807629.52     -298.65573      0.36359993     0.056168727    28.982727      3450.0047    
        20   0.04           355.48721      138853.03     -807622.4      -307.29107      0.36359971     0.057792825    29.050628      3445.6191    
        30   0.06           354.4365       142105.41     -807618.43     -311.08313      0.36359935     0.058506064    29.086468      3442.5142    
        40   0.08           335.92497      143868.06     -807614.47     -312.39682      0.36359885     0.058753213    29.059873      3441.5759    
        50   0.1            349.28522      139888.46     -807619.44     -309.31951      0.36359821     0.058174559    29.064474      3440.7666    
        60   0.12           358.48577      135511.46     -807625.74     -304.22649      0.36359742     0.057216825    29.056205      3440.2752    
        70   0.14           341.65177      130065.78     -807630.99     -296.56054      0.36359649     0.055775208    29.029719      3440.2744    
        80   0.16           331.66565      128826.3      -807633.52     -292.4918       0.36359541     0.055010148    28.97851       3440.948     
        90   0.18           338.45501      128575.3      -807632.88     -294.10417      0.36359419     0.055313579    28.889747      3442.5721    
       100   0.2            355.14516      133729.09     -807627.85     -301.34338      0.36359283     0.056675305    28.937233      3443.2347    
       110   0.22           357.83687      138344.62     -807622.29     -307.18405      0.36359132     0.05777403     29.017317      3442.848     
       120   0.24           345.97719      142891.71     -807616.14     -311.50906      0.36358968     0.058587728    28.991037      3442.7283    
       130   0.26           356.80654      143121.9      -807618.19     -310.84384      0.36358788     0.058462904    29.001248      3442.4807    
       140   0.28           357.9807       140300.39     -807619.2      -309.74697      0.36358595     0.058256916    28.993731      3442.2828    
       150   0.3            351.26712      135063.19     -807625.32     -302.52434      0.36358387     0.056898816    28.986248      3442.1247    
       160   0.32           341.80781      130368.33     -807630.76     -295.40618      0.36358165     0.055560372    29.011514      3441.7561    
       170   0.34           359.79749      126739.02     -807636.05     -292.414        0.36357928     0.054997956    29.011838      3441.3874    
       180   0.36           345.77799      130039.94     -807629.78     -296.45098      0.36357677     0.055757627    29.000702      3441.095     
       190   0.38           349.09005      134927.95     -807624.95     -301.51626      0.36357412     0.056710737    28.99699       3440.8201    
       200   0.4            352.24189      139305.45     -807620.9      -305.64479      0.36357132     0.057487695    29.061902      3440.1543    
       210   0.42           363.05767      142115.26     -807616.35     -311.38619      0.36356838     0.058568049    29.078605      3439.4248    
       220   0.44           354.26496      143318.68     -807613.5      -312.66174      0.3635653      0.058808464    29.1074        3438.5766    
       230   0.46           371.42347      139665.66     -807620.53     -307.68501      0.36356207     0.057872905    29.100857      3437.8052    
       240   0.48           362.9644       134440.88     -807626.09     -300.6214       0.3635587      0.056544826    29.102708      3437.0608    
       250   0.5            367.82464      130106.07     -807631.81     -295.36169      0.36355519     0.055556047    29.053004      3436.5827    
       260   0.52           358.48152      129153.72     -807631.39     -294.2466       0.36355153     0.055346861    29.0653        3436.0591    
       270   0.54           361.99447      130762.74     -807630.11     -295.90622      0.36354773     0.055659611    29.031738      3435.6959    
       280   0.56           359.35626      134498.74     -807625        -300.62291      0.36354379     0.056547429    29.021746      3435.3762    
       290   0.58           364.48331      140789        -807618.18     -308.00651      0.3635397      0.057936942    29.043321      3434.9667    
       300   0.6            369.75136      142948.27     -807614.9      -312.11223      0.36353547     0.058709922    29.044641      3434.5562    
       310   0.62           359.89267      143682.96     -807613.64     -311.96887      0.3635311      0.058683661    29.027141      3434.2169    
       320   0.64           366.82494      138640.75     -807620.8      -305.83547      0.36352658     0.057530638    29.002934      3433.9668    
       330   0.66           364.16292      134693.1      -807625.36     -300.97782      0.36352192     0.056617592    28.954144      3433.8865    
       340   0.68           351.62173      130406.08     -807628.83     -295.87384      0.36351712     0.055658208    28.945914      3433.8193    
       350   0.7            360.73194      130010.57     -807631.66     -294.38238      0.36351217     0.055378396    28.975812      3433.6348    
       360   0.72           359.54409      131262.82     -807630.7      -295.41401      0.36350708     0.055573241    28.966421      3433.4723    
       370   0.74           364.83473      136408.29     -807624.12     -302.92527      0.36350185     0.05698708     28.979032      3433.2596    
       380   0.76           362.83885      139551.47     -807617.95     -309.18735      0.36349647     0.058165978    29.035264      3432.8646    
       390   0.78           360.52502      142555.14     -807615.75     -311.2661       0.36349095     0.058557933    29.062887      3432.3885    
       400   0.8            345.73825      141588.43     -807616.66     -308.59454      0.36348529     0.058056242    29.076019      3431.8804    
       410   0.82           362.14521      138219.58     -807621.46     -306.3717       0.36347948     0.057638977    29.038821      3431.4873    
       420   0.84           364.62588      133944.45     -807627.16     -301.29184      0.36347353     0.05668421     29.062964      3431.0287    
       430   0.86           353.75575      129985.33     -807631.54     -295.57234      0.36346744     0.055609092    29.078062      3430.5342    
       440   0.88           354.19554      129264.94     -807633.74     -293.58552      0.3634612      0.055236239    29.108702      3429.9645    
       450   0.9            351.98866      131923.55     -807629.38     -297.86677      0.36345482     0.056042711    29.08622       3429.4635    
       460   0.92           351.85058      136512.78     -807623.19     -304.29342      0.3634483      0.057252893    29.061006      3429.0341    
       470   0.94           363.97657      140386.58     -807621.45     -307.86884      0.36344163     0.057926672    29.018305      3428.7154    
       480   0.96           347.0572       142088.41     -807617.05     -309.98951      0.36343482     0.058326777    28.987251      3428.4722    
       490   0.98           352.00658      141725.31     -807617.89     -309.88954      0.36342786     0.058309083    28.981384      3428.2391    
       500   1              352.22984      138050.25     -807622.1      -305.79215      0.36342077     0.057539238    28.938408      3428.1034    
       510   1.02           353.62208      133528.07     -807628.37     -9591.2598      0.36341353     0.056399091    28.888604      3428.0757    
       520   1.04           346.80876      130436.18     -807631.47     -9462.3551      0.36340614     0.055642228    28.855379      3428.112     
       530   1.06           340.9115       130231.87     -807631.09     -9452.099       0.36339862     0.05558307     28.893076      3428.0491    
       540   1.08           335.00244      133015.6      -807627.05     -9555.8849      0.36339095     0.056194569    28.903854      3427.9518    
       550   1.1            356.81065      135369.87     -807625.33     -9710.1346      0.36338313     0.057102882    28.893006      3427.869     
       560   1.12           354.53347      140353.64     -807619.84     -9876.1978      0.36337518     0.05808073     28.922503      3427.7141    
       570   1.14           341.64078      141860.68     -807616.1      -9938.5027      0.36336707     0.05844844     29.024082      3427.3415    
       580   1.16           358.08524      139964.49     -807620.04     -9886.8         0.36335883     0.058145695    28.992387      3427.0343    
       590   1.18           359.59163      136346.97     -807624.92     -9739.5151      0.36335044     0.057280814    28.952522      3426.806     
       600   1.2            343.93814      134238.82     -807627.58     -9583.5385      0.36334191     0.056364795    28.923227      3426.6316    
       610   1.22           354.78937      130596.28     -807633.29     -9450.3236      0.36333324     0.055582629    28.932151      3426.4344    
       620   1.24           336.89705      131067.06     -807631.1      -9442.0068      0.36332442     0.055535061    28.911622      3426.2715    
       630   1.26           354.80067      132964.97     -807629.73     -9567.9977      0.36331546     0.05627749     28.908324      3426.1092    
       640   1.28           343.24023      137571.75     -807622.47     -9750.0557      0.36330636     0.057349764    28.904665      3425.9479    
       650   1.3            345.18753      139859.68     -807618.87     -9875.3914      0.36329711     0.058088466    28.946528      3425.7044    
       660   1.32           345.15578      141429.64     -807617.88     -9905.086       0.36328772     0.05826464     28.915745      3425.5132    
       670   1.34           356.24598      139085.03     -807620.9      -9860.5497      0.36327819     0.058004186    28.936759      3425.2802    
       680   1.36           350.99434      136618.46     -807623.89     -9740.6091      0.36326851     0.057300168    28.978668      3424.9708    
       690   1.38           350.99674      131632.04     -807629.72     -9554.6774      0.36325869     0.056207924    28.954987      3424.7012    
       700   1.4            340.79233      130932.53     -807631.59     -9447.5653      0.36324873     0.055579333    28.961611      3424.418     
       710   1.42           342.29659      129108.31     -807632.5      -9427.2981      0.36323863     0.055461646    28.901462      3424.2335    
       720   1.44           351.35171      132738.44     -807628.1      -9607.5015      0.36322838     0.056523394    28.922871      3424.0094    
       730   1.46           350.56534      137185.13     -807623.95     -9738.7149      0.36321798     0.057296996    28.928492      3423.7727    
       740   1.48           353.80991      140203.79     -807620.45     -9864.0701      0.36320745     0.058036197    28.914594      3423.5554    
       750   1.5            346.71028      141149.99     -807618.62     -9891.6874      0.36319677     0.058200397    28.919716      3423.3266    
       760   1.52           360.55508      139628.21     -807621.46     -9860.5598      0.36318595     0.058018979    28.922018      3423.091     
       770   1.54           344.0381       136006.34     -807624.17     -9700.0565      0.36317498     0.057076309    28.906171      3422.8771    
       780   1.56           349.26332      131718.22     -807630.33     -9523.7243      0.36316387     0.056040464    28.898686      3422.6711    
       790   1.58           328.35867      130272.25     -807629.85     -9444.6337      0.36315262     0.055576793    28.907764      3422.448     
       800   1.6            341.92355      131160.86     -807630.5      -9483.653       0.36314122     0.055808152    28.925973      3422.1948    
       810   1.62           345.61609      133849.64     -807626.77     -9618.8759      0.36312968     0.056605693    28.914612      3421.9559    
       820   1.64           360.35414      136384.36     -807624.61     -9752.123       0.363118       0.057391679    28.908289      3421.7236    
       830   1.66           347.56615      140704.65     -807618.62     -9884.963       0.36310618     0.058175343    28.944726      3421.4365    
       840   1.68           350.71744      140444.3      -807618.52     -9899.6705      0.36309421     0.05826382     28.992604      3421.0807    
       850   1.7            352.77199      139149.24     -807620.35     -9846.2966      0.3630821      0.057951625    28.964576      3420.764     
       860   1.72           352.25924      134866.15     -807625.56     -9674.6051      0.36306984     0.056943035    28.948466      3420.4689    
       870   1.74           342.91582      132245.91     -807628.91     -9520.7272      0.36305745     0.05603925     28.971667      3420.1411    
       880   1.76           341.23946      130198.89     -807631.83     -9416.7017      0.3630449      0.055428868    28.926978      3419.8728    
       890   1.78           340.19182      132429.16     -807628.05     -9526.2003      0.36303222     0.056075361    28.927873      3419.6018    
       900   1.8            356.98137      133050.05     -807628.05     -9598.466       0.36301939     0.056502745    28.920931      3419.3382    
       910   1.82           361.46209      139322.2      -807622.69     -9782.4976      0.36300642     0.05758813     28.894761      3419.1069    
       920   1.84           348.4449       139741.02     -807618.17     -9866.6029      0.36299331     0.058085345    28.895251      3418.8724    
       930   1.86           359.45721      142191.69     -807617.35     -9933.6583      0.36298005     0.05848224     28.906352      3418.6214    
       940   1.88           353.29152      138538.9      -807621.19     -9779.6767      0.36296665     0.057577832    28.907385      3418.3671    
       950   1.9            355.27816      136981.26     -807624.63     -9668.9604      0.36295311     0.056928115    28.941783      3418.0679    
       960   1.92           350.27273      130685.5      -807629.23     -9496.8466      0.36293942     0.055916866    28.917823      3417.7974    
       970   1.94           350.70214      130984.41     -807630.03     -9463.1999      0.36292559     0.055720879    28.912544      3417.5317    
       980   1.96           357.21352      130829.53     -807631.61     -9438.9052      0.36291162     0.055579968    28.883511      3417.2996    
       990   1.98           359.4606       134890.15     -807626.5      -9607.2092      0.3628975      0.056573208    28.867735      3417.084     
      1000   2              359.5586       139171.65     -807620.8      -9788.6025      0.36288325     0.057643629    28.805095      3416.9404    
      1010   2.02           355.66356      140441.38     -807617.61     -308.38045      0.36286884     0.058114522    28.969621      3416.5995    
      1020   2.04           360.62095      141105.96     -807618.41     -308.11167      0.3628543      0.058066198    29.045265      3416.1714    
      1030   2.06           372.83495      137715.53     -807622.8      -305.3839       0.36283961     0.057554458    29.052326      3415.7368    
      1040   2.08           352.95212      135996.69     -807622.55     -302.77448      0.36282478     0.057065003    29.082078      3415.2704    
      1050   2.1            354.01         132008.74     -807629.69     -295.7294       0.3628098      0.055739491    29.048377      3414.844     
      1060   2.12           357.91314      131761.49     -807630.92     -294.96241      0.36279469     0.055597245    28.979284      3414.4957    
      1070   2.14           351.98075      130954.98     -807628.93     -296.20707      0.36277943     0.055834198    28.993984      3414.1313    
      1080   2.16           360.26122      137159.11     -807623.15     -303.11999      0.36276402     0.05713969     28.988031      3413.7737    
      1090   2.18           363.15759      137425.69     -807621.78     -305.09338      0.36274848     0.05751415     29.035099      3413.3657    
      1100   2.2            357.48027      141938.91     -807617.86     -308.17214      0.36273279     0.05809705     29.00341       3412.9927    
      1110   2.22           360.70845      139755.76     -807619.51     -307.18247      0.36271695     0.057913003    29.015335      3412.6074    
      1120   2.24           360.61686      140604.93     -807620.01     -306.73971      0.36270098     0.057832078    29.013436      3412.2249    
      1130   2.26           352.7306       133955.65     -807626.68     -299.33399      0.36268486     0.056438325    29.056016      3411.799     
      1140   2.28           347.7487       133655.45     -807629.12     -296.27343      0.3626686      0.055863774    28.986993      3411.4455    
      1150   2.3            348.54184      129378.2      -807631.46     -294.46476      0.36265219     0.055525251    28.92176       3411.159     
      1160   2.32           341.47029      133760.19     -807626.08     -299.09563      0.36263564     0.056401037    28.973812      3410.8186    
      1170   2.34           355.02394      132630.8      -807627.7      -299.769        0.36261895     0.056530619    28.973425      3410.4785    
      1180   2.36           355.71314      138715.5      -807622.67     -305.13177      0.36260212     0.057544605    28.991747      3410.1201    
      1190   2.38           346.91308      138947.93     -807619.52     -307.48999      0.36258514     0.057992054    29.046992      3409.7074    
      1200   2.4            356.59194      140764.98     -807618.81     -309.77834      0.36256802     0.058426391    29.012831      3409.3292    
      1210   2.42           345.80959      137203.94     -807623.58     -303.79696      0.36255076     0.057300989    29.01744       3408.9471    
      1220   2.44           351.81588      134387.26     -807628.29     -300.08549      0.36253335     0.056603664    29.053481      3408.531     
      1230   2.46           340.4864       130542.5      -807630.65     -296.43168      0.3625158      0.055917171    29.047728      3408.1215    
      1240   2.48           335.04325      130927.51     -807629.16     -297.26597      0.36249811     0.056077284    29.015518      3407.7436    
      1250   2.5            340.73784      131800.71     -807631.26     -296.07552      0.36248028     0.05585546     29.048288      3407.3355    
      1260   2.52           347.45096      135046.81     -807627.99     -300.35312      0.3624623      0.056665253    29.088075      3406.8914    
      1270   2.54           344.73046      138221.95     -807622.11     -306.00049      0.36244418     0.057733583    29.067814      3406.4676    
      1280   2.56           351.66873      141190        -807619.58     -309.51052      0.36242592     0.058398769    29.011778      3406.0962    
      1290   2.58           356.50311      139262.39     -807623.17     -306.59752      0.36240751     0.057852079    29.042155      3405.6977    
      1300   2.6            348.64641      137180.23     -807625.81     -302.81316      0.36238896     0.05714093     29.002476      3405.3358    
      1310   2.62           348.23787      132976.32     -807628.55     -300.0605       0.36237027     0.056624424    29.057001      3404.9254    
      1320   2.64           338.25207      130955.08     -807630.1      -297.0629       0.36235143     0.05606166     29.021346      3404.5477    
      1330   2.66           330.33214      130782.64     -807632.07     -293.89312      0.36233245     0.055466364    28.999991      3404.1893    
      1340   2.68           334.3427       131274.88     -807630.47     -295.99056      0.36231333     0.055865161    29.002123      3403.8291    
      1350   2.7            346.80075      136360.43     -807625.77     -302.35994      0.36229407     0.057070351    28.99867       3403.4722    
      1360   2.72           350.64585      138777.2      -807621.45     -307.15111      0.36227466     0.057977788    28.998523      3403.1156    
      1370   2.74           357.96903      139931.92     -807621.79     -307.62386      0.36225511     0.058070158    29.005402      3402.7534    
      1380   2.76           337.03525      139776.63     -807620.71     -305.6967       0.36223542     0.057709505    28.983601      3402.4099    
      1390   2.78           347.17123      138475.42     -807622.85     -304.76649      0.36221558     0.05753705     29.02384       3402.0324    
      1400   2.8            347.44729      132274.21     -807628.24     -299.31872      0.3621956      0.05651168     29.055043      3401.6293    
      1410   2.82           342.02208      131837.03     -807630.8      -295.70754      0.36217548     0.055832988    29.048288      3401.2327    
      1420   2.84           340.07378      129602.67     -807633.44     -292.72704      0.36215522     0.055273327    29.048624      3400.8365    
      1430   2.86           346.82119      134291.15     -807628.03     -298.77827      0.36213481     0.056419113    29.023387      3400.4617    
      1440   2.88           354.42062      134344.82     -807626.37     -301.48312      0.36211426     0.056933108    29.039369      3400.0743    
      1450   2.9            357.40547      140155.05     -807622.67     -305.28331      0.36209357     0.057654043    29.053882      3399.6759    
      1460   2.92           339.23858      138868.71     -807619.29     -306.0552       0.36207273     0.057803144    29.064657      3399.2695    
      1470   2.94           355.78248      140544.3      -807619.97     -307.41093      0.36205176     0.058062558    29.053068      3398.8733    
      1480   2.96           352.34992      135449.05     -807623.99     -302.83         0.36203064     0.057200667    29.003821      3398.5166    
      1490   2.98           345.38943      134998.5      -807626.36     -299.2189       0.36200937     0.056521896    28.997607      3398.165     
      1500   3              346.05377      130126.78     -807631.91     -293.66819      0.36198796     0.055476658    28.995962      3397.8147    
      1510   3.02           347.92199      132933.35     -807629.17     -9486.4641      0.36196642     0.056005881    28.932636      3397.5137    
      1520   3.04           342.8809       131719.31     -807627.72     -9508.7886      0.36194472     0.056141043    28.900021      3397.2375    
      1530   3.06           359.28794      138080.82     -807623.36     -9713.7519      0.36192289     0.057354632    28.903679      3396.9575    
      1540   3.08           354.90806      137117.36     -807622.45     -9724.8499      0.36190091     0.057423647    28.928094      3396.6579    
      1550   3.1            360.76604      142081.76     -807618.39     -9872.0964      0.36187879     0.058296677    28.91356       3396.3689    
      1560   3.12           347.06376      137422.71     -807620.39     -9750.4758      0.36185653     0.057582025    28.845281      3396.1307    
      1570   3.14           369.71246      138421.85     -807625.09     -9692.9438      0.36183412     0.057245811    28.902821      3395.8479    
      1580   3.16           352.10326      130886.01     -807629.52     -9474.2352      0.36181157     0.055957621    28.911879      3395.5576    
      1590   3.18           336.21887      132934.61     -807627.71     -9456.7671      0.36178888     0.055857953    28.907069      3395.2701    
      1600   3.2            351.95836      130065.23     -807630.41     -9440.1935      0.36176605     0.055763578    28.914769      3394.9762    
      1610   3.22           354.61131      133659.55     -807627.09     -9557.3698      0.36174307     0.056459329    28.906468      3394.6877    
      1620   3.24           368.01742      136104.11     -807626.08     -9650.7779      0.36171995     0.057014772    28.925389      3394.3848    
      1630   3.26           352.19744      140498.93     -807618.5      -9821.2561      0.36169669     0.058025653    28.961382      3394.0554    
      1640   3.28           362.64566      140234.16     -807619.65     -9834.2347      0.36167329     0.058106093    28.930362      3393.7481    
      1650   3.3            361.92019      138645.46     -807621.98     -9756.2423      0.36164974     0.057649024    28.927767      3393.4421    
      1660   3.32           353.90734      135846.82     -807624.73     -9631.7531      0.36162605     0.056917154    28.942403      3393.1253    
      1670   3.34           348.03156      132405.03     -807627.69     -9512.6649      0.36160222     0.056217127    28.93532       3392.8131    
      1680   3.36           339.80176      131787.66     -807628.35     -9453.0711      0.36157824     0.05586865     28.910373      3392.518     
      1690   3.38           359.12754      129773.59     -807631.74     -9432.8646      0.36155413     0.055752946    28.962302      3392.1862    
      1700   3.4            352.77933      134761.17     -807626.17     -9581.1003      0.36152987     0.056632893    29.020011      3391.8145    
      1710   3.42           350.48535      136887.52     -807622.89     -9679.6553      0.36150546     0.057219303    29.020505      3391.4428    
      1720   3.44           345.26395      140995.63     -807617.75     -9819.838       0.36148092     0.058051906    28.984968      3391.0956    
      1730   3.46           359.09578      139042.54     -807620.8      -9785.2876      0.36145623     0.057851606    28.962823      3390.7634    
      1740   3.48           340.35466      139908.7      -807618.42     -9777.3382      0.3614314      0.057808579    28.99015       3390.4127    
      1750   3.5            355.18918      134512.85     -807626.11     -9599.6541      0.36140643     0.056761943    29.003868      3390.0528    
      1760   3.52           347.84064      133542.25     -807627.68     -9514.3094      0.36138131     0.056261217    28.912953      3389.7537    
      1770   3.54           355.95201      128957.59     -807632.63     -9395.5789      0.36135605     0.055563008    28.902179      3389.4612    
      1780   3.56           358.18763      132293.13     -807630.14     -9483.9511      0.36133065     0.056089561    28.910793      3389.1624    
      1790   3.58           339.55289      133203.93     -807624.88     -9572.5675      0.36130511     0.056617654    28.90103       3388.8695    
      1800   3.6            367.38276      138111.11     -807624.6      -9703.9762      0.36127942     0.057398962    28.906853      3388.5721    
      1810   3.62           349.99345      138717.96     -807620.32     -9768.3018      0.3612536      0.057783578    28.862649      3388.303     
      1820   3.64           344.50093      141856.98     -807616.98     -9847.539       0.36122763     0.058256487    28.903142      3388.0068    
      1830   3.66           349.91842      136501.31     -807622.1      -9711.9796      0.36120151     0.057458692    28.904222      3387.7095    
      1840   3.68           364.3596       135653.84     -807628.3      -9575.7852      0.36117526     0.056657048    28.93777       3387.3901    
      1850   3.7            337.5855       130466.75     -807628.8      -9446.6953      0.36114886     0.055897347    28.909094      3387.0888    
      1860   3.72           352.65361      132072.8      -807629.7      -9482.7155      0.36112232     0.056114607    28.916451      3386.7822    
      1870   3.74           336.80123      131356.25     -807628.49     -9455.4639      0.36109564     0.055957479    28.94747       3386.4558    
      1880   3.76           350.2224       136083.71     -807625.87     -9598.0076      0.36106881     0.056805273    28.981783      3386.1078    
      1890   3.78           347.11057      137085.76     -807623.03     -9683.1151      0.36104184     0.057313258    29.025464      3385.733     
      1900   3.8            354.00701      141803.77     -807618.92     -9843.594       0.36101474     0.058267489    29.032956      3385.3538    
      1910   3.82           350.41949      138791.09     -807621.39     -9751.9874      0.36098748     0.057729597    29.009739      3384.9892    
      1920   3.84           350.13641      137849.9      -807623.31     -9688.9943      0.36096009     0.057361045    29.00941       3384.625     
      1930   3.86           341.71096      133230.48     -807626.65     -9547.5086      0.36093255     0.05652773     28.936963      3384.3048    
      1940   3.88           344.80748      132288.95     -807628.18     -9511.978       0.36090487     0.056321684    28.960123      3383.9704    
      1950   3.9            353.72599      129247.4      -807632.61     -9413.3535      0.36087705     0.055742012    28.949168      3383.6425    
      1960   3.92           339.54831      132582.25     -807628.75     -9475.7842      0.36084909     0.056116049    28.919798      3383.3319    
      1970   3.94           343.17661      134865.22     -807625.61     -9597.8848      0.36082098     0.056843563    28.911645      3383.0259    
      1980   3.96           347.62812      139222.87     -807621.43     -9752.6845      0.36079273     0.057764888    28.917525      3382.7159    
      1990   3.98           352.46406      138689.23     -807621.72     -9767.0899      0.36076434     0.057854763    28.947552      3382.3879    
      2000   4              351.60964      138898        -807622.56     -9738.4036      0.36073581     0.057689404    28.910122      3382.0817    
      2010   4.02           341.75807      136643.59     -807623.57     -302.04251      0.36070713     0.057261255    29.008234      3381.7181    
      2020   4.04           338.27844      133893.08     -807626.9      -298.35357      0.36067831     0.056566423    29.039074      3381.3368    
      2030   4.06           343.83385      130817.86     -807631.33     -294.72737      0.36064935     0.055883402    29.026729      3380.963     
      2040   4.08           337.23313      130728.24     -807630.9      -294.28456      0.36062025     0.055803943    29.002452      3380.6033    
      2050   4.1            341.22696      132855.45     -807628.8      -297.00779      0.36059101     0.056324904    28.998464      3380.2461    
      2060   4.12           338.94861      135056.88     -807625.47     -300.17183      0.36056162     0.056929577    29.066982      3379.8503    
      2070   4.14           349.25819      138562.61     -807622.8      -304.30474      0.36053209     0.057718137    29.074797      3379.4506    
      2080   4.16           346.57472      138627.68     -807622.51     -304.36788      0.36050242     0.057734864    29.090971      3379.0425    
      2090   4.18           345.15742      139585.1      -807621.64     -305.06046      0.36047261     0.057871024    29.080005      3378.6411    
      2100   4.2            334.63827      136361.57     -807623.86     -301.47352      0.36044265     0.057195321    29.053563      3378.2547    
      2110   4.22           345.39004      133615.96     -807629.17     -297.6896       0.36041256     0.056482156    29.011308      3377.8921    
      2120   4.24           339.39581      131178.06     -807631.65     -294.3418       0.36038232     0.055851647    29.006095      3377.5325    
      2130   4.26           334.7615       130731.95     -807630.58     -294.78155      0.36035193     0.055939806    28.999903      3377.1764    
      2140   4.28           329.12742      131993.13     -807628.11     -296.43107      0.36032141     0.056257595    28.923279      3376.8622    
      2150   4.3            341.81618      134660.88     -807627        -299.23681      0.36029075     0.056794911    28.952651      3376.5317    
      2160   4.32           358.11561      137768.11     -807624.84     -303.57503      0.36025994     0.05762323     29.002235      3376.1743    
      2170   4.34           343.24516      139498.53     -807620.56     -305.73596      0.36022899     0.058038394    29.053004      3375.7899    
      2180   4.36           333.96616      139912.01     -807619.68     -305.11234      0.36019789     0.05792501     29.028383      3375.419     
      2190   4.38           345.2118       135347.11     -807627.11     -299.11564      0.36016666     0.056791473    28.998799      3375.064     
      2200   4.4            348.51613      133313.67     -807628.77     -297.66592      0.36013528     0.056521145    29.018658      3374.6986    
      2210   4.42           333.46246      130873.08     -807628.82     -295.36769      0.36010377     0.056089664    28.991577      3374.3476    
      2220   4.44           329.64775      132144.7      -807628.46     -294.84671      0.36007211     0.055995654    28.948746      3374.0192    
      2230   4.46           341.93328      133173.2      -807629.1      -295.68349      0.3600403      0.056159532    28.975706      3373.6765    
      2240   4.48           348.55706      136061.14     -807624.29     -301.02045      0.36000836     0.05717826     28.998934      3373.3217    
      2250   4.5            350.74169      138938.4      -807621.07     -304.19919      0.35997627     0.057787206    29.071178      3372.9299    
      2260   4.52           352.73374      140166.22     -807620.91     -304.35193      0.35994404     0.057821398    29.07162       3372.5381    
      2270   4.54           346.89873      138593.49     -807622.29     -301.77361      0.35991167     0.05733672     29.017923      3372.1743    
      2280   4.56           360.40489      135729.87     -807626.42     -299.2647       0.35987916     0.056865166    29.005713      3371.8168    
      2290   4.58           355.65849      132857.85     -807627.35     -297.36789      0.35984651     0.056509869    28.945293      3371.4901    
      2300   4.6            348.76982      131823.59     -807630.34     -293.11805      0.35981371     0.055707333    28.962683      3371.1544    
      2310   4.62           341.98381      131979.37     -807629.25     -293.04747      0.35978077     0.055699019    28.949004      3370.8256    
      2320   4.64           356.58278      134018.34     -807626.86     -297.2898       0.35974769     0.056510546    28.993772      3370.4741    
      2330   4.66           352.82978      137221.96     -807621.92     -301.62721      0.35971447     0.057340321    29.056783      3370.0914    
      2340   4.68           343.70816      139249.02     -807619.05     -302.9841       0.35968111     0.057603613    29.083608      3369.6958    
      2350   4.7            358.35453      139893.77     -807620.47     -303.43599      0.3596476      0.057694902    29.075363      3369.3046    
      2360   4.72           350.15867      138695.87     -807619.38     -303.31063      0.35961396     0.057676462    29.066232      3368.9183    
      2370   4.74           364.74859      136034.5      -807624.62     -299.99152      0.35958017     0.057050673    29.04797       3368.5413    
      2380   4.76           367.35094      132083.61     -807630.65     -294.15408      0.35954624     0.05594582     29.010997      3368.1825    
      2390   4.78           351.09668      131012.76     -807630.74     -291.7989       0.35951216     0.055503143    28.927481      3367.8646    
      2400   4.8            344.80673      131663.36     -807628.12     -293.51493      0.35947795     0.055834864    29.014494      3367.5042    
      2410   4.82           361.76533      134214.83     -807625.81     -298.14236      0.35944359     0.056720554    28.996614      3367.1525    
      2420   4.84           360.24687      135383.68     -807624.55     -299.25766      0.35940909     0.0569382      29.000631      3366.799     
      2430   4.86           360.26571      140497.28     -807620.51     -303.27326      0.35937446     0.057707788    29.004397      3366.4438    
      2440   4.88           340.44574      140623.51     -807616.67     -304.43295      0.35933967     0.057934065    28.965208      3366.1073    
      2450   4.9            357.30202      139724.74     -807619.98     -303.42436      0.35930475     0.057747742    28.933005      3365.786     
      2460   4.92           368.91579      134048.84     -807627.91     -297.25295      0.35926969     0.056578719    28.919114      3365.4711    
      2470   4.94           350.95267      133647.25     -807628.09     -294.60886      0.35923448     0.056080944    28.968056      3365.1329    
      2480   4.96           339.84494      130599.62     -807628.56     -292.71412      0.35919913     0.055725749    28.998546      3364.7804    
      2490   4.98           353.66773      132193.83     -807629.44     -293.82812      0.35916364     0.055943356    29.045913      3364.4059    
      2500   5              356.8527       133060.7      -807628.43     -295.52739      0.35912801     0.056272469    29.088683      3364.0119    
[...]
     98740   197.48         343.27649      134260.12     -807623.37     -9652.417       0.36236891     0.056922332    30.042099      43.718652    
     98750   197.5          355.35071      138405.31     -807623.2      -9699.3059      0.36238762     0.057195893    29.99312       43.371507    
     98760   197.52         367.45739      133450.91     -807627.67     -9608.0344      0.36240618     0.056654772    30.001686      43.024364    
     98770   197.54         363.36061      136899.91     -807624.44     -9683.4693      0.36242459     0.05709668     29.967884      42.677228    
     98780   197.56         358.59953      133725.73     -807625.5      -9627.8698      0.36244287     0.056765987    30.100747      42.330076    
     98790   197.58         355.70575      136286.68     -807625.07     -9620.5738      0.362461       0.056720132    30.152383      41.982921    
     98800   197.6          358.97788      133290.73     -807626.79     -9580.9873      0.36247899     0.056483938    30.106031      41.635774    
     98810   197.62         349.50486      137010.19     -807622.87     -9659.5399      0.36249683     0.056944235    30.097539      41.288633    
     98820   197.64         357.5564       135414.75     -807624.1      -9658.2069      0.36251453     0.056933597    30.114371      40.941491    
     98830   197.66         356.75356      137159.7      -807622.33     -9707.8133      0.36253209     0.057223247    30.168049      40.594346    
     98840   197.68         366.00181      136506.15     -807624.62     -9677.5695      0.36254951     0.057042233    30.089209      40.247214    
     98850   197.7          356.16107      137234.47     -807622.29     -9706.4545      0.36256678     0.057209763    30.045623      39.900091    
     98860   197.72         369.14069      136258.76     -807625.11     -9676.5575      0.36258391     0.057030856    30.008584      39.552976    
     98870   197.74         355.57268      135155.12     -807624.11     -9651.5522      0.3626009      0.056880817    30.106721      39.205851    
     98880   197.76         359.14554      134830.87     -807625.58     -9623.4955      0.36261774     0.056712832    30.103069      38.858729    
     98890   197.78         350.18882      134170.6      -807624.96     -9607.5851      0.36263445     0.056616462    29.978469      38.511626    
     98900   197.8          361.51018      135979.79     -807624.8      -9667.2027      0.362651       0.056965181    29.992084      38.164524    
     98910   197.82         354.05122      134739.13     -807624.56     -9648.2992      0.36266742     0.056851216    30.077105      37.817414    
     98920   197.84         350.5031       137641.42     -807621.91     -9719.3959      0.36268369     0.057267574    30.063331      37.470309    
     98930   197.86         343.05336      135771.68     -807622.93     -9663.0704      0.36269982     0.056933167    30.041601      37.12321     
     98940   197.88         359.93624      138185.94     -807622.36     -9759.877       0.36271581     0.057501001    30.052346      36.776112    
     98950   197.9          359.77871      133545.71     -807625.9      -9656.5394      0.36273165     0.056889695    30.0528        36.429017    
     98960   197.92         362.23413      137270.96     -807625.8      -9671.9517      0.36274735     0.056978027    30.16824       36.081911    
     98970   197.94         350.66998      132078.02     -807627.93     -9565.4038      0.36276291     0.056347931    30.081218      35.734818    
     98980   197.96         350.21624      136489.87     -807623.88     -9696.0168      0.36277832     0.05711492     30.089879      35.387728    
     98990   197.98         351.4828       133036.16     -807626.81     -9620.6212      0.36279359     0.056668412    30.057336      35.040644    
     99000   198            342.66856      137891.96     -807622.79     -9713.116       0.36280872     0.05721085     30.043102      34.693565    
     99010   198.02         350.57968      134202.05     -807626.4      -301.43991      0.3628237      0.05681364     30.131894      34.346479    
     99020   198.04         347.64835      138187.59     -807621.59     -305.88283      0.36283855     0.057648657    30.199769      33.999388    
     99030   198.06         346.96719      133795.78     -807625.41     -302.35116      0.36285324     0.056980748    30.169842      33.652304    
     99040   198.08         350.5869       137327.51     -807625.47     -302.81854      0.3628678      0.057066541    30.138122      33.305226    
     99050   198.1          348.48723      132733.45     -807628.5      -299.84499      0.36288221     0.056503928    30.170866      32.958148    
     99060   198.12         343.39846      135566.31     -807624.8      -302.86836      0.36289648     0.057071419    30.213853      32.611069    
     99070   198.14         345.80157      133047.05     -807627.13     -301.09952      0.36291061     0.056735896    30.138249      32.264001    
     99080   198.16         344.95166      135651.87     -807626.66     -301.50465      0.36292459     0.056810046    30.112122      31.916938    
     99090   198.18         341.34822      134899.27     -807625.17     -302.65418      0.36293843     0.057024467    30.153431      31.569875    
     99100   198.2          347.35797      136682.09     -807623.87     -304.85155      0.36295213     0.057436316    30.214701      31.222808    
     99110   198.22         339.29876      136482.07     -807624.08     -303.52704      0.36296568     0.057184633    30.222475      30.875744    
     99120   198.24         340.24582      135954.47     -807625.29     -302.49843      0.36297909     0.056988737    30.198336      30.528686    
     99130   198.26         342.69723      135831.52     -807625.53     -302.55419      0.36299236     0.056997159    30.192376      30.181631    
     99140   198.28         348.19629      135000.5      -807626.24     -302.59159      0.36300548     0.057002143    30.220721      29.834577    
     99150   198.3          352.79988      134671.95     -807627.65     -301.80222      0.36301846     0.05685141     30.220708      29.487526    
     99160   198.32         335.10635      135267.85     -807626.51     -300.42953      0.3630313      0.05659083     30.123456      29.140487    
     99170   198.34         342.97856      136317.03     -807625.61     -302.34199      0.36304399     0.056949083    30.187124      28.793445    
     99180   198.36         348.71622      135048.58     -807625.34     -303.42311      0.36305655     0.057150746    30.203235      28.446406    
     99190   198.38         352.85697      136619.26     -807625.12     -304.13054      0.36306895     0.057282035    30.205095      28.099369    
     99200   198.4          334.4376       135241.84     -807624.69     -302.00039      0.36308122     0.056878907    30.174865      27.752338    
     99210   198.42         349.96223      136278.55     -807624.88     -303.83411      0.36309334     0.057222359    30.189256      27.405309    
     99220   198.44         346.65197      135015.09     -807625.49     -302.87602      0.36310532     0.057040037    30.200967      27.058282    
     99230   198.46         343.31071      136418.66     -807624.53     -303.13287      0.36311715     0.057086548    30.141529      26.711264    
     99240   198.48         348.55851      132986.19     -807628.98     -299.47151      0.36312885     0.056395218    30.076561      26.364254    
     99250   198.5          344.87822      135958.99     -807625.71     -302.05626      0.3631404      0.056880158    30.117265      26.017244    
     99260   198.52         342.61025      134501.94     -807625.3      -302.15698      0.3631518      0.056897339    30.124153      25.670236    
     99270   198.54         355.31738      136330.29     -807626.27     -302.76034      0.36316306     0.057009186    30.162114      25.323228    
     99280   198.56         342.06285      135319.13     -807625.63     -301.48348      0.36317418     0.056767017    30.115656      24.976227    
     99290   198.58         350.21103      136913.36     -807624.18     -303.91293      0.36318516     0.057222734    30.127595      24.629228    
     99300   198.6          349.02604      135748.51     -807624.16     -303.73174      0.36319599     0.057186912    30.152173      24.28223     
     99310   198.62         351.28025      136859.34     -807624.59     -303.41858      0.36320668     0.057126269    30.082824      23.93524     
     99320   198.64         346.6689       134733.51     -807626.07     -301.18817      0.36321723     0.056704692    30.078526      23.588254    
     99330   198.66         347.53994      135381.63     -807625.08     -302.11806      0.36322763     0.056878131    30.175164      23.241263    
     99340   198.68         357.6548       134437.35     -807625.6      -302.89116      0.36323789     0.057022068    30.218654      22.894273    
     99350   198.7          351.12693      135246.1      -807625.24     -302.17962      0.36324801     0.05688653     30.224842      22.547285    
     99360   198.72         361.82425      134844.59     -807627.16     -301.5711       0.36325798     0.056770416    30.181461      22.200303    
     99370   198.74         347.76921      136299.79     -807623.77     -302.88984      0.36326781     0.057017125    30.199501      21.853324    
     99380   198.76         342.25438      137367.58     -807621.36     -304.47444      0.3632775      0.057313887    30.185088      21.506348    
     99390   198.78         352.38087      135740.67     -807623.52     -303.59019      0.36328704     0.057145935    30.105791      21.159381    
     99400   198.8          368.42027      135632.57     -807627.12     -302.05605      0.36329644     0.056855687    30.091245      20.812418    
     99410   198.82         343.71114      135499.62     -807623.25     -302.40234      0.3633057      0.056919418    30.181035      20.465453    
     99420   198.84         348.95772      136290.61     -807623.53     -302.73887      0.36331481     0.056981332    30.201342      20.118489    
     99430   198.86         371.74495      133871.16     -807628.22     -301.09484      0.36332378     0.056670494    30.241568      19.771525    
     99440   198.88         359.87866      136573        -807625.13     -302.40545      0.36333261     0.056915787    30.208868      19.424567    
     99450   198.9          342.41445      136001.29     -807623.33     -301.81592      0.36334129     0.056803475    30.110362      19.077618    
     99460   198.92         351.65887      138122.75     -807621.45     -304.83634      0.36334983     0.057370586    30.041614      18.730677    
     99470   198.94         353.77256      135114.86     -807624.55     -302.03914      0.36335823     0.056842836    30.019594      18.383739    
     99480   198.96         359.84622      137910.98     -807622.83     -304.41549      0.36336648     0.057288756    30.069247      18.036801    
     99490   198.98         355.59883      135315.14     -807624.41     -302.37405      0.3633746      0.056903302    30.114656      17.689864    
     99500   199            351.06016      138069.88     -807621.23     -304.73284      0.36338256     0.057345942    30.143807      17.342928    
     99510   199.02         367.23743      133859.7      -807627.96     -9610.2418      0.36339039     0.056514309    30.122581      16.995996    
     99520   199.04         352.02231      136175.15     -807623.69     -9677.6575      0.36339807     0.056909553    30.154739      16.649065    
     99530   199.06         357.26695      133575.29     -807625.34     -9652.0136      0.3634056      0.056757577    30.089392      16.302141    
     99540   199.08         354.17409      136762.41     -807622.83     -9718.7637      0.363413       0.05714893     30.050649      15.955222    
     99550   199.1          363.08506      134642.99     -807626.58     -9646.9115      0.36342025     0.056725288    30.061179      15.608305    
     99560   199.12         342.96838      137842.27     -807621.48     -9720.2848      0.36342736     0.057155616    30.077673      15.261391    
     99570   199.14         358.55585      136059.85     -807624.16     -9714.0128      0.36343432     0.057117642    30.144943      14.914475    
     99580   199.16         360.55274      137512.58     -807623.4      -9752.6636      0.36344114     0.05734383     30.138217      14.567564    
     99590   199.18         354.27617      135158.58     -807624.63     -9694.4198      0.36344782     0.05700032     30.118843      14.220656    
     99600   199.2          355.10201      135068.53     -807626.46     -9648.4973      0.36345435     0.056729289    30.148675      13.87375     
     99610   199.22         351.37372      135539.75     -807624.64     -9700.9969      0.36346074     0.057036963    30.058106      13.526851    
     99620   199.24         348.92848      135105.68     -807625.31     -9680.928       0.36346699     0.05691799     30.059829      13.179954    
     99630   199.26         342.42069      135779.47     -807625.35     -9658.7635      0.3634731      0.056786722    29.998814      12.833063    
     99640   199.28         352.94897      134558.83     -807627.53     -9649.4683      0.36347906     0.056731143    30.074938      12.486172    
     99650   199.3          335.93744      137032.04     -807621.99     -9760.0832      0.36348487     0.057380551    30.066381      12.139284    
     99660   199.32         354.34042      135429.1      -807626.56     -9707.1941      0.36349055     0.05706872     30.069658      11.792398    
     99670   199.34         343.56171      137536.57     -807624.65     -9725.9559      0.36349608     0.057178151    30.158416      11.445513    
     99680   199.36         344.27433      134982.42     -807626.48     -9679.3612      0.36350147     0.056903381    30.201941      11.098628    
     99690   199.38         349.08432      136992.29     -807625.17     -9747.625       0.36350671     0.057303866    30.15124       10.751749    
     99700   199.4          336.88798      134158.7      -807626.78     -9649.3029      0.36351181     0.056725059    30.065295      10.404876    
     99710   199.42         339.11457      135836.24     -807625.84     -9688.2445      0.36351677     0.056953207    30.118824      10.058003    
     99720   199.44         349.16254      132774.37     -807628.81     -9645.9321      0.36352158     0.056703718    30.068792      9.7111357    
     99730   199.46         327.36584      136477.57     -807623.32     -9723.5521      0.36352625     0.057159275    30.100607      9.3642699    
     99740   199.48         344.71301      134756.98     -807626.45     -9703.2349      0.36353078     0.057039131    30.084183      9.0174075    
     99750   199.5          345.21948      136673.06     -807625.6      -9732.0053      0.36353516     0.057207564    30.081496      8.670548     
     99760   199.52         338.36944      135760.65     -807625.15     -9716.6537      0.3635394      0.057116656    30.061646      8.323692     
     99770   199.54         342.25544      136694.42     -807624.32     -9758.8563      0.3635435      0.057364086    30.110026      7.9768376    
     99780   199.56         334.20334      134676.53     -807625.75     -9678.461       0.36354745     0.056890891    30.084524      7.6299868    
     99790   199.58         344.96391      135097.42     -807626.94     -9684.6721      0.36355126     0.056926804    30.041211      7.2831399    
     99800   199.6          348.1547       134169.26     -807627.4      -9681.2034      0.36355493     0.056905841    29.996432      6.9362967    
     99810   199.62         333.80587      135724.31     -807624.73     -9698.1183      0.36355845     0.057004714    30.035356      6.5894555    
     99820   199.64         342.68374      135154.09     -807625.28     -9715.4983      0.36356183     0.057106341    30.054692      6.2426166    
     99830   199.66         353.11944      134387.12     -807627.22     -9693.3928      0.36356507     0.056975901    30.030417      5.8957811    
     99840   199.68         354.44219      136441.79     -807625.09     -9759.6905      0.36356816     0.057365098    30.032181      5.5489483    
     99850   199.7          346.34181      135466.24     -807625.08     -9721.0081      0.36357111     0.057137269    30.064927      5.2021177    
     99860   199.72         338.86831      136217.21     -807623.61     -9724.7519      0.36357392     0.057158832    30.091578      4.8552895    
     99870   199.74         349.13723      133588.75     -807626.86     -9660.9713      0.36357658     0.056783535    30.048881      4.5084649    
     99880   199.76         348.30091      136338.71     -807624.46     -9725.457       0.3635791      0.057162162    30.042967      4.1616431    
     99890   199.78         341.22177      133875.5      -807625.47     -9655.7836      0.36358148     0.05675228     30.040572      3.8148242    
     99900   199.8          347.27826      136832.67     -807624.93     -9687.6585      0.36358371     0.056939276    30.070338      3.4680077    
     99910   199.82         355.82544      133774.75     -807627.36     -9644.2648      0.3635858      0.056683903    30.044896      3.1211944    
     99920   199.84         347.45768      138297.36     -807621.6      -9781.6381      0.36358775     0.057491004    30.08432       2.7743835    
     99930   199.86         355.68574      133677.31     -807625.68     -9684.9273      0.36358955     0.056922309    30.142828      2.427575     
     99940   199.88         356.96828      138090.26     -807622.74     -9773.1018      0.36359121     0.057440285    30.086336      2.0807699    
     99950   199.9          347.51449      134394.99     -807624.05     -9687.5175      0.36359273     0.056937036    30.007657      1.7339682    
     99960   199.92         358.60597      137605.16     -807623.7      -9740.523       0.3635941      0.057248352    30.070546      1.3871688    
     99970   199.94         361.89255      133536.61     -807627.93     -9619.3317      0.36359533     0.056535879    30.115293      1.0403722    
     99980   199.96         361.42206      135793.19     -807625.46     -9690.1316      0.36359641     0.056951822    30.191202      0.69357835   
     99990   199.98         349.29326      133223.41     -807625.26     -9645.0504      0.36359736     0.056686719    30.154947      0.34678766   
    100000   200            349.51362      137085.69     -807623.3      -9703.0139      0.36359816     0.057027262    30.149714      0            
Loop time of 3467.86 on 32 procs for 100000 steps with 1080 atoms

Performance: 4.983 ns/day, 4.816 hours/ns, 28.836 timesteps/s, 31.143 katom-step/s
71.5% CPU use with 32 MPI tasks x 1 OpenMP threads

MPI task timing breakdown:
Section |  min time  |  avg time  |  max time  |%varavg| %total
---------------------------------------------------------------
Pair    | 2567.8     | 2802       | 3145.3     | 260.8 | 80.80
Neigh   | 0.0016651  | 0.002507   | 0.024829   |   8.0 |  0.00
Comm    | 249.68     | 592.82     | 826.67     | 566.9 | 17.09
Output  | 2.2998     | 2.368      | 2.3808     |   0.9 |  0.07
Modify  | 63.837     | 64.492     | 64.991     |   4.0 |  1.86
Other   |            | 6.194      |            |       |  0.18

Nlocal:          33.75 ave          40 max          24 min
Histogram: 1 2 1 2 1 5 7 8 2 3
Nghost:        1033.25 ave        1047 max        1022 min
Histogram: 1 3 4 7 7 1 2 3 1 3
Neighs:              0 ave           0 max           0 min
Histogram: 32 0 0 0 0 0 0 0 0 0
FullNghs:      5336.06 ave        6357 max        3716 min
Histogram: 1 2 1 2 2 4 7 9 1 3

Total # of neighbors = 170754
Ave neighs/atom = 158.10556
Neighbor list builds = 4
Dangerous builds = 0

Total wall time: 1:01:08
