
units		metal
atom_style	atomic

read_data ${STRUCTURE}.data
read_data BaTiO3-sc333.data
Reading data file ...
  orthogonal box = (0 0 0) to (11.898253 11.898253 12.912076)
  2 by 4 by 4 MPI processor grid
  reading atoms ...
  135 atoms
  read_data CPU = 0.009 seconds
replicate $L $L $L
replicate 2 $L $L
replicate 2 2 $L
replicate 2 2 2
Replication is creating a 2x2x2 = 8 times larger system...
  orthogonal box = (0 0 0) to (23.796507 23.796507 25.824152)
  2 by 4 by 4 MPI processor grid
  1080 atoms
  replicate CPU = 0.005 seconds

pair_style allegro
pair_coeff	* * ${MODEL}.pth Ba Ti O
pair_coeff	* * BaTiO3-E0.pth Ba Ti O
mass 1 137.3
mass 2 47.9
mass 3 15.9994

timestep 0.002
compute polarization all allegro polarization 3
compute allegro will evaluate the quantity polarization of length 3 (src/compute_allegro.cpp:53)
compute polarizability all allegro polarizability 9
compute allegro will evaluate the quantity polarizability of length 9 (src/compute_allegro.cpp:53)

thermo_style custom pe fmax fnorm spcpu cpuremain

variable efield equal 1e-2*36.36
fix born all addbornforce 0.0 0.0 ${efield}
fix born all addbornforce 0.0 0.0 0.3636

thermo 10
min_style fire
#minimize 0.0 1e-6 100 100
velocity all create ${TEMP} ${SEED} dist gaussian rot yes mom yes
velocity all create 300 ${SEED} dist gaussian rot yes mom yes
velocity all create 300 19045 dist gaussian rot yes mom yes
fix nvt all nvt temp ${TEMP} ${TEMP} $(100*dt)
fix nvt all nvt temp 300 ${TEMP} $(100*dt)
fix nvt all nvt temp 300 300 $(100*dt)
fix nvt all nvt temp 300 300 0.2000000000000000111
run 5000
Neighbor list info ...
  update: every = 1 steps, delay = 0 steps, check = yes
  max neighbors/atom: 2000, page size: 100000
  master list distance cutoff = 8
  ghost atom cutoff = 8
  binsize = 8, bins = 3 3 4
  1 neighbor lists, perpetual/occasional/extra = 1 0 0
  (1) pair allegro/kk, perpetual
      attributes: full, newton on, kokkos_device
      pair build: full/bin/kk/device
      stencil: full/bin/3d
      bin: kk/device
Per MPI rank memory allocation (min/avg/max) = 3.516 | 3.516 | 3.516 Mbytes
    PotEng          Fmax          Fnorm          S/CPU         CPULeft    
-807708.29      1.595419       37.043588      0              0            
-807645.83      3.5409407      45.220548      2.3062894      2163.6497    
-807635.12      2.3707483      35.082363      25.879112      1175.8736    
-807606.23      2.8993596      36.694512      25.899165      846.30753    
-807602.41      4.0825042      50.155365      25.85294       681.4171     
-807570.47      3.3643018      39.689623      25.828614      582.36421    
-807606.84      2.8426015      37.368434      25.924624      516.08184    
-807648.1       2.9871035      33.436884      25.894542      468.65863    
-807684.68      2.3694042      33.649642      25.864676      433.02211    
-807668.62      3.0810777      33.460542      25.827342      405.24939    
-807653.6       3.4531844      34.090898      25.913016      382.89105    
-807659.95      2.4645515      26.513641      25.919124      364.52365    
-807626.39      2.7600702      30.594688      25.865867      349.18549    
-807585.18      3.5116041      39.61261       25.880038      336.13963    
-807572.79      2.8800592      36.927534      25.900819      324.89151    
-807635.69      2.8232644      32.214256      25.901723      315.09122    
-807655.76      3.1262152      30.667101      25.911637      306.46325    
-807666.46      2.572458       33.699536      25.898397      298.81053    
-807649.49      4.2449205      43.563601      25.924211      291.95493    
-807679.76      2.9999311      36.074823      25.90934       285.78594    
-807641.1       3.7075624      38.487784      25.874141      280.20787    
-807616.45      2.586519       38.864015      25.924126      275.10724    
-807562.09      3.7002171      44.996585      25.923685      270.43538    
-807607.23      3.7156669      48.363175      25.909593      266.14058    
-807617.53      3.9512786      37.863717      25.849836      262.18921    
-807645.53      3.0667324      34.796883      25.914916      258.50454    
-807645.57      5.1360805      44.185524      25.925661      255.0707     
-807683.42      2.527993       36.942377      25.902754      251.86864    
-807663.82      2.924358       33.62623       25.837092      248.88425    
-807638.67      2.5441995      31.114582      25.932207      246.05594    
-807605.84      3.2120512      33.556816      25.895681      243.39899    
-807605.33      3.6087071      42.267218      25.85427       240.8979     
-807600.52      3.1453241      35.050532      25.824119      238.53556    
-807613.27      2.9421302      32.694937      25.900627      236.27674    
-807645.4       2.8504567      30.242689      25.940748      234.11989    
-807675.91      2.5790189      31.200663      25.924065      232.06757    
-807678.41      2.7558252      32.30069       25.90252       230.11195    
-807645.47      3.7216117      36.847813      25.954455      228.23152    
-807648.79      3.4384482      29.457645      25.981974      226.42481    
-807620.17      4.0594537      32.502147      25.966995      224.69365    
-807602.02      3.6831197      42.680211      25.888329      223.04324    
-807573.2       3.5566418      39.909843      25.957772      221.44294    
-807630.63      2.8258895      33.393136      25.950071      219.90173    
-807651.56      3.8159369      35.323524      25.939371      218.41598    
-807675.7       2.7144369      34.938825      25.91455       216.98407    
-807641.67      4.6881992      47.304231      25.970386      215.59025    
-807669.12      2.8788957      34.360447      25.968172      214.24063    
-807642.86      3.7624099      36.483781      25.927764      212.93782    
-807621.89      3.3920323      38.229861      25.974621      211.66669    
-807565.5       3.9185124      42.519162      25.980451      210.43092    
-807606.46      3.7451498      42.281808      25.987501      209.22825    
-807628.33      3.6683152      33.82673       25.924089      208.06594    
-807658.48      3.2480126      31.72544       25.9386        206.93164    
-807646.06      3.842492       40.738932      25.955612      205.82346    
-807674.44      2.5098566      34.365933      25.919635      204.74647    
-807666.97      2.8353532      32.118313      25.896158      203.69745    
-807641.35      2.6113329      30.155736      25.980715      202.66214    
-807599.53      2.7768473      34.40301       25.970861      201.65078    
-807598.18      3.1110221      37.687279      25.969882      200.66113    
-807611.08      3.6721767      37.315422      25.860952      199.7041     
-807624.48      3.5453569      31.072919      25.961999      198.75504    
-807643.97      2.9719466      31.23984       25.961081      197.82457    
-807666         3.2879763      33.018998      25.979457      196.90976    
-807677.14      2.9814194      34.202809      25.891461      196.02085    
-807646.81      3.6734487      36.615585      25.941195      195.14261    
-807633.32      2.648234       32.430397      25.974343      194.27623    
-807610.26      3.4041164      35.751029      25.946182      193.42719    
-807604.11      4.18926        45.145063      25.913715      192.59511    
-807584.54      4.3718154      40.265685      25.929943      191.77462    
-807623.27      2.8966904      34.447127      25.960276      190.96392    
-807649.55      3.5044799      35.930339      25.953331      190.16601    
-807675.54      2.7247425      35.768331      25.892056      189.38523    
-807650.17      3.6932203      40.447146      25.900885      188.61462    
-807653.12      2.9122794      33.840927      25.959532      187.84945    
-807640.73      3.6277841      32.730804      25.954775      187.09496    
-807622.16      3.756289       38.006241      25.91296       186.35383    
-807576.56      3.503345       38.683826      25.938253      185.61996    
-807595.67      3.0347143      39.072896      25.948397      184.8943     
-807633.83      3.3619046      31.651149      25.956163      184.17674    
-807662.31      3.1188041      31.473928      25.916712      183.47073    
-807652.61      3.7339552      36.852537      25.944128      182.77057    
-807660.49      4.0001935      34.849865      25.866596      182.08416    
-807664.81      3.3829886      31.857168      25.955128      181.39834    
-807642.51      3.1822092      30.84116       25.94448       180.72056    
-807599.58      3.4265086      35.935851      25.977114      180.04734    
-807586.32      3.4244506      38.502581      25.985067      179.38033    
-807612.05      3.2233766      37.875099      25.942727      178.72291    
-807634.74      3.2981057      30.832547      25.907619      178.07421    
-807644.52      2.884041       33.155685      25.941876      177.4291     
-807656.17      4.9952895      36.490524      25.953895      176.78901    
-807674.56      3.01332        34.813651      25.928915      176.15626    
-807652.2       3.8073943      35.243134      25.929793      175.52888    
-807628.47      2.9372857      33.524416      25.950485      174.9054     
-807600.74      3.4880378      36.87056       25.972336      174.28562    
-807604.75      4.1504619      43.716922      25.895737      173.67575    
-807601.39      3.6541004      36.8152        25.86619       173.07248    
-807623.48      3.0043989      34.216032      25.930802      172.46966    
-807645.54      4.4061016      36.070098      25.960488      171.86949    
-807672.88      2.9206937      35.40836       25.899985      171.27739    
-807658.59      3.7528861      36.357539      25.932446      170.6875     
-807646.04      3.1247273      33.235409      25.971658      170.09937    
-807631.26      3.6892291      32.862793      25.958365      169.51604    
-807620.61      3.9928723      37.44459       25.896177      168.9402     
-807589.84      3.2403917      37.671297      25.916581      168.36687    
-807597.97      3.3110847      36.775882      25.968228      167.79423    
-807632.11      3.2446537      31.953701      25.966368      167.22526    
-807664.25      2.7652462      32.350082      25.937731      166.66135    
-807660.09      3.0580734      34.325492      25.925525      166.10143    
-807652.23      3.9007568      35.601234      25.959678      165.5429     
-807655.78      2.7160019      31.789266      25.957961      164.98763    
-807641.19      3.1218339      31.357643      25.943277      164.43624    
-807606.33      3.2048845      35.831797      25.931789      163.88843    
-807582.6       3.142764       38.482881      25.877648      163.34631    
-807613.22      3.005087       35.653462      25.894191      162.8061     
-807641.57      2.978609       31.974656      25.87783       162.26943    
-807652.74      3.1303697      32.87601       25.910765      161.73371    
-807650.64      4.2267921      36.921601      25.938384      161.19923    
-807667.06      2.5358137      33.544026      25.903823      160.66897    
-807651.23      3.1201958      34.06102       25.901831      160.14125    
-807630.15      2.6443085      31.981804      25.929581      159.61459    
-807593.15      3.4924266      37.031251      25.968483      159.08845    
-807605.51      4.1887276      39.605941      25.866096      158.56942    
-807613.02      3.4338554      35.136388      25.841886      158.05368    
-807635.25      2.5768979      31.665979      25.88839       157.5379     
-807641.86      4.0886008      36.633827      25.961185      157.02093    
-807668.16      2.6878358      34.055537      25.932878      156.50732    
-807659.39      2.9220427      34.798741      25.879182      155.99813    
-807644.49      3.0652837      32.904093      25.880276      155.49082    
-807619.89      3.5458056      34.124223      25.945994      154.98255    
-807614.4       3.1888403      37.085045      25.924028      154.47713    
-807600.69      3.2239964      37.693192      25.901897      153.97449    
-807607.85      2.8781888      35.484113      25.964617      153.471      
-807630.31      2.870481       32.620627      25.974466      152.9689     
-807659.57      3.515911       32.477536      25.945308      152.46975    
-807663.03      3.2631872      34.336025      25.868428      151.97542    
-807650.83      3.3860322      35.489119      25.921151      151.48057    
-807643.98      3.1684287      32.802087      25.962875      150.98566    
-807632.14      2.9920513      32.761923      25.916257      150.49419    
-807609.14      3.406633       37.999155      25.879851      150.00568    
-807588.68      3.0982183      37.57089       25.930483      149.51667    
-807613.26      3.1818433      34.867571      25.959834      149.02802    
-807641.78      3.9633625      32.630522      25.923432      148.54222    
-807659.51      2.8371944      33.515222      25.895961      148.05885    
-807649.87      4.6959318      38.110142      25.908168      147.57639    
-807657.39      3.479568       34.981916      25.909645      147.09522    
-807648.75      2.9338704      33.683755      25.908805      146.61539    
-807629.26      3.0388117      34.300058      25.912815      146.1367     
-807590.7       3.9278935      37.99115       25.901911      145.65966    
-807597.79      3.4486846      39.685852      25.91402       145.18343    
-807618.5       3.9312994      36.036805      25.913499      144.70842    
-807643.68      3.4263533      33.286351      25.91872       144.23442    
-807644.41      4.1145953      36.792087      25.950903      143.76049    
-807661.12      4.2420791      34.722953      25.947724      143.28782    
-807658.35      2.880669       34.577433      25.927656      142.81698    
-807646.69      2.7865338      32.716426      25.901892      142.3481     
-807613.17      3.376135       34.68329       25.902271      141.88028    
-807604.11      2.8812417      36.261587      25.95564       141.41175    
-807604.1       3.3600268      37.436458      25.901329      140.94605    
-807619.4       2.6871929      33.554424      25.872994      140.48228    
-807633.38      3.1665843      33.225558      25.957306      140.01678    
-807654.3       2.9252865      33.037959      25.978707      139.55161    
-807663.71      3.0526088      34.559106      25.90752       139.08967    
-807653.06      4.910932       34.620427      25.876179      138.62964    
-807635.74      3.3120193      33.637668      25.94755       138.16832    
-807622.19      3.0463262      33.932888      25.947997      137.7079     
-807609.98      3.496356       38.15066       25.927938      137.249      
-807597.46      3.7319926      37.719765      25.913245      136.79143    
-807614.28      3.9333265      35.006871      25.939789      136.33392    
-807639.68      3.6463725      32.948104      25.930464      135.87755    
-807663.36      2.8249214      32.809208      25.912275      135.42254    
-807652.76      3.882372       36.380725      25.894055      134.96887    
-807651.04      3.625715       33.580806      25.901039      134.5158     
-807640.97      3.0668964      32.904714      25.918541      134.063      
-807629.17      4.2304945      34.43334       25.922492      133.61087    
-807596.97      3.3173299      36.48595       25.917983      133.15962    
-807599.66      3.7078785      37.770007      25.93307       132.70871    
-807623         3.5235311      33.731517      25.922342      132.25883    
-807649.01      3.1655206      32.257647      25.87573       131.81094    
-807651.37      3.2092094      33.931         25.890946      131.36334    
-807656.13      3.7266432      34.396697      25.881445      130.91667    
-807655.6       3.6814176      33.731061      25.902037      130.47013    
-807643.42      3.0711167      32.469817      25.924966      130.02365    
-807617.37      3.3288272      33.210193      25.934376      129.5776     
-807599.77      2.927048       36.383699      25.938186      129.13211    
-807608.41      3.241555       36.397966      25.830105      128.69004    
-807627.35      3.0430228      33.272117      25.863283      128.24772    
-807641.1       2.8184062      31.847965      25.898842      127.8051     
-807650.67      3.8171998      33.592246      25.919043      127.36259    
-807663.01      3.1679696      32.82439       25.890749      126.92137    
-807651.76      3.2532959      33.009917      25.924529      126.47991    
-807636.32      3.5225194      32.13413       25.940983      126.03864    
-807614.59      3.1830708      33.325587      25.924229      125.59835    
-807610.27      3.8820579      36.6284        25.91895       125.15876    
-807608.71      3.2853286      35.763313      25.93022       124.71946    
-807623.49      3.0690928      33.878256      25.930915      124.2807     
-807640.24      3.0502125      33.445064      25.951599      123.842      
-807658.58      2.770541       33.997939      25.952281      123.40382    
-807654.82      3.8264005      34.508655      25.929501      122.96671    
-807644.5       2.7804741      34.059434      25.943239      122.5298     
-807633.39      2.9921173      33.111739      25.963062      122.09297    
-807621.57      3.1585034      35.186822      25.975572      121.65637    
-807603.9       3.2913155      36.652019      25.915347      121.22162    
-807605.09      3.0910945      36.34946       25.95637       120.78646    
-807624.43      3.2883984      33.762324      25.988142      120.35109    
-807648.25      3.5773845      33.245323      25.925163      119.91758    
-807651.67      4.0688072      35.791746      25.886541      119.48536    
-807649.42      4.0893154      35.823765      25.936331      119.05253    
-807646.34      3.3574174      34.478995      25.925581      118.62038    
-807636.87      3.0562994      33.975363      25.929365      118.1886     
-807615.6       3.8509589      35.715693      25.945307      117.75694    
-807598.4       3.7834354      38.290998      25.963345      117.32534    
-807609.47      4.3351841      36.408645      25.926985      116.89492    
-807629.92      4.3599587      34.638378      25.910338      116.46526    
-807646.32      4.1485731      33.166563      25.921089      116.0358     
-807648.41      4.9004526      35.51236       25.979904      115.60557    
-807655.85      3.0388225      34.396097      25.926074      115.17683    
-807649.72      3.887381       34.24463       25.948138      114.74805    
-807630.9       2.8475697      34.111658      25.972679      114.3192     
-807609.19      3.0236858      35.764517      25.945044      113.89129    
-807605.96      3.6262209      38.171656      25.929666      113.46405    
-807612.77      3.5379054      36.329115      25.926341      113.03725    
-807630.45      2.7479176      33.977037      25.930478      112.61075    
-807640.6       3.7244295      34.829052      25.929332      112.18464    
-807656.62      2.5657477      34.711592      25.923464      111.759      
-807653.66      3.6389927      35.414667      25.962657      111.333      
-807645.69      3.0294741      33.206638      25.951228      110.90756    
-807626.26      3.2927754      33.677696      25.914976      110.48314    
-807615.5       3.0538295      35.676076      25.895226      110.05941    
-807607.45      3.6016915      36.971229      25.88597       109.63617    
-807615.85      3.6096586      34.586442      25.943102      109.21225    
-807627.51      3.3520886      33.82446       25.963015      108.78832    
-807648.2       3.6339594      33.772982      25.941927      108.36509    
-807655.01      3.4042849      34.822298      25.928355      107.94242    
-807651.39      3.4441129      34.331426      25.967314      107.5194     
-807639.85      3.2151962      34.101469      25.928074      107.09736    
-807630.45      2.9130693      33.083376      25.911796      106.67591    
-807617.21      2.8263618      35.118916      25.880617      106.25528    
-807603.59      3.200991       36.681149      25.911313      105.83444    
-807613.36      3.1926749      35.557248      25.921174      105.41372    
-807636.04      4.2452837      33.406095      25.93052       104.99314    
-807652.69      2.8961132      33.459945      25.915684      104.5731     
-807648.93      4.2310906      35.630994      25.937063      104.15299    
-807650.24      2.951895       33.319832      25.916895      103.7335     
-807644.5       4.0102768      32.772745      25.879055      103.31487    
-807631.15      3.3229872      33.022914      25.89391       102.89628    
-807605.01      4.6533744      35.931828      25.932253      102.47735    
-807605.63      3.5059749      36.715053      25.876183      102.05957    
-807620.51      4.235734       34.342736      25.915314      101.64143    
-807639.74      2.8675458      33.187921      25.933662      101.22328    
-807643.48      4.1860141      34.789603      25.98443       100.80463    
-807652.77      2.6726756      33.976186      25.932145      100.38703    
-807652.38      2.9696151      33.942976      25.905032      99.970083    
-807643.77      2.9535824      32.449349      25.906386      99.553362    
-807619.1       3.1980138      34.125055      25.910108      99.136828    
-807609.81      3.1196915      36.743948      25.975436      98.719596    
-807609.76      3.6454938      37.307238      25.940033      98.303122    
-807619.54      3.4815534      35.420334      25.919635      97.887179    
-807630.59      4.0745847      34.434906      25.918987      97.471478    
-807645.94      4.0866014      34.89913       25.949638      97.055583    
-807654.3       2.8931823      34.73637       25.907624      96.640505    
-807649.5       3.7469921      34.546969      25.893128      96.22585     
-807634.58      3.1677301      33.9933        25.863942      95.811812    
-807621.69      3.5215118      34.748962      25.938506      95.396973    
-807613.85      3.4427334      36.661985      25.907305      94.982777    
-807605.14      3.454611       37.587193      25.869372      94.569299    
-807617.21      2.6864101      35.193464      25.921798      94.155331    
-807634.89      3.0389767      34.368621      25.931774      93.741446    
-807651.85      3.1017714      34.168273      25.904502      93.328126    
-807650.16      3.448428       35.227452      25.890782      92.915186    
-807646.55      3.6889686      34.121446      25.897783      92.502356    
-807635.35      3.3962176      33.787973      25.883584      92.089903    
-807625.14      3.2073535      34.450535      25.921075      91.677171    
-807606.85      3.2177978      36.354475      25.905617      91.26483     
-807605.28      3.5486139      36.953937      25.896256      90.852799    
-807622.15      3.1881059      34.423212      25.959099      90.440184    
-807641.03      3.5288117      34.78611       25.931544      90.028104    
-807647.9       3.3851825      35.463245      25.92628       89.61628     
-807648.23      3.8101039      36.321448      25.953151      89.204322    
-807647.48      3.2384907      34.804701      25.93122       88.792816    
-807638.66      3.6119869      34.221664      25.95142       88.381258    
-807618.86      3.4126485      35.54589       25.945758      87.969954    
-807604.2       2.8787011      36.587922      25.933629      87.558973    
-807610.81      3.3301206      35.952121      25.9269        87.148251    
-807628.26      3.2497483      34.444958      25.928318      86.737689    
-807640.02      3.4361571      33.774846      25.928487      86.3273      
-807646.06      3.6986571      35.982735      25.955278      85.916785    
-807652.93      3.8058462      34.576489      25.947244      85.506535    
-807649.56      3.44294        33.63425       25.902501      85.096952    
-807632.97      3.8515578      34.123732      25.861886      84.68798     
-807615.77      4.0607697      34.882911      25.932991      84.278387    
-807610.51      3.0907291      36.016307      25.914784      83.869156    
-807616.54      3.0305104      34.80286       25.912186      83.460113    
-807625.49      2.9655445      33.939541      25.908646      83.051266    
-807638.59      3.3172959      33.354046      25.979857      82.641828    
-807651.78      2.624897       33.571259      25.98088       82.232547    
-807654.03      2.8948499      33.550751      25.934212      81.823911    
-807643.05      3.4565539      33.378689      25.985321      81.414909    
-807630.81      3.226579       33.428152      25.977231      81.006152    
-807619.75      3.039516       35.180264      25.942162      80.597906    
-807612.01      3.2475906      36.193896      25.936584      80.18987     
-807613.51      3.0848117      35.109137      25.996423      79.781391    
-807624.94      3.8639103      34.423106      25.990449      79.373129    
-807645.18      2.983774       33.215157      25.99092       78.965018    
-807652.15      2.9123671      33.534326      25.926632      78.557681    
-807648.34      3.1209642      33.554644      25.926229      78.150491    
-807642.05      3.2020579      32.669938      25.927116      77.743433    
-807633.79      3.5288381      32.513334      25.956624      77.336236    
-807619.75      3.4128795      34.634323      25.933606      76.929398    
-807605.53      3.1217968      36.182245      25.9606        76.522448    
-807612.9       2.9308997      34.679756      25.960247      76.115641    
-807634.17      2.7879228      33.580275      25.954558      75.709026    
-807644.49      3.2437002      34.477245      25.954789      75.302546    
-807646.61      3.5968765      35.348184      25.927698      74.896444    
-807648.67      3.8589373      34.700146      25.917955      74.490559    
-807644.3       3.7940176      34.485392      25.928942      74.084706    
-807629.94      3.3578998      34.23105       25.927529      73.678992    
-807611.2       3.2516069      35.158542      25.9979        73.272798    
-807607.32      3.6851567      36.965609      25.951759      72.867134    
-807618.95      3.5138815      35.138813      25.951453      72.461601    
-807632.96      4.3490649      34.208659      25.968365      72.056052    
-807640.51      4.1401876      34.84531       25.992227      71.650432    
-807647.55      4.3817732      35.680066      25.986519      71.244989    
-807648.87      3.6328527      35.556954      25.923511      70.840192    
-807641.81      3.0158951      33.924546      25.996155      70.434921    
-807621.33      3.9873004      34.962835      25.955087      70.030109    
-807612.88      3.4247006      35.403149      25.88988       69.625939    
-807610.81      3.4415592      36.518147      25.925291      69.221597    
-807619.46      3.391068       34.855605      25.921968      68.817396    
-807628.89      3.1027284      33.956162      25.926714      68.41327     
-807643.67      4.3366252      34.034886      25.926897      68.009254    
-807651.47      3.4703658      34.549455      25.914199      67.605447    
-807646.66      3.1518184      35.382571      25.904199      67.201824    
-807634.37      4.1332853      34.977483      25.957223      66.797908    
-807625.34      3.9042376      35.195828      25.958743      66.394093    
-807614.96      4.2515908      36.403979      25.931823      65.990588    
-807611.01      3.7089666      36.758876      25.933551      65.587177    
-807615.07      2.9842489      35.541332      25.920265      65.183968    
-807635.02      3.4637854      33.95271       25.948835      64.780658    
-807646.9       2.9132587      34.644492      25.926765      64.377611    
-807648.68      3.3424621      34.643097      25.969492      63.974364    
-807643.82      3.0400399      34.472397      25.942389      63.571414    
-807638.4       3.5277522      33.9158        25.935698      63.168613    
-807628.55      4.0368347      34.155032      25.949447      62.765818    
-807610.57      3.6279201      36.122477      25.943743      62.363164    
-807609.62      3.435746       35.66803       25.940378      61.960632    
-807621.23      3.511889       34.39944       25.979387      61.557939    
-807640.27      3.4066884      33.42002       25.92946       61.155679    
-807643.87      4.1910568      34.422746      25.93597       60.753472    
-807647.5       3.6883138      34.350292      25.931527      60.351388    
-807645.45      3.6532363      34.51          25.950128      59.94928     
-807640.93      3.6488821      33.678358      25.96208       59.547192    
-807621.82      4.2316744      34.722422      25.968262      59.145161    
-807610.03      4.11327        36.188139      25.993918      58.743066    
-807612.67      3.7193369      36.552225      25.987662      58.341108    
-807627.85      3.3910924      34.652389      25.936097      57.939563    
-807636.14      3.4023917      33.784698      25.936825      57.538104    
-807643.41      3.3002352      34.603979      25.966171      57.136558    
-807650.03      4.1172728      34.804561      25.953271      56.73518     
-807646.04      3.27324        34.536487      25.9331        56.334011    
-807633.64      3.1776702      33.31129       25.994395      55.932572    
-807618.23      4.1974071      34.529041      25.99608       55.531216    
-807614.22      2.974907       36.082534      25.960767      55.130154    
-807615.78      3.4972673      35.80023       25.928085      54.729364    
-807627.03      3.0361496      33.656107      25.949809      54.328536    
-807636.23      3.4323244      33.892334      25.955435      53.927762    
-807649.62      2.9334259      34.164597      25.929334      53.527216    
-807649.24      2.8265937      34.081886      25.885541      53.12699     
-807640.56      3.4516673      34.743966      25.924174      52.726632    
-807630.7       3.1249423      33.55529       25.935552      52.326292    
-807622.78      3.0736723      35.103314      25.95678       51.925921    
-807614.46      3.0299386      35.572408      25.957816      51.525625    
-807614.77      3.8949398      36.074933      25.913369      51.125641    
-807626.6       3.5017766      35.110686      25.927117      50.725662    
-807642.67      3.1662022      34.378629      25.973416      50.325525    
-807645.9       3.2128988      35.275275      25.918974      49.925742    
-807645.05      3.8377894      35.068853      25.923221      49.526012    
-807640.3       3.316698       33.841578      25.91486       49.126397    
-807632.63      3.0149894      33.659505      25.933001      48.726768    
-807621.08      3.4464964      33.7556        25.924292      48.327254    
-807610.31      2.9365712      34.772604      25.930794      47.927782    
-807616.72      3.1524449      34.322274      25.93148       47.52838     
-807630.58      3.6349538      33.721964      25.985238      47.128801    
-807642.42      3.2049931      33.369785      25.958239      46.729422    
-807645.26      3.3689648      34.107822      25.955891      46.330128    
-807645.97      3.5568005      33.973987      25.932499      45.931012    
-807641.91      3.0208879      33.528381      25.9449        45.531912    
-807630.12      3.4724054      33.506554      26.004233      45.132622    
-807614.35      3.3878547      34.70588       26.030514      44.733295    
-807610.77      3.3606402      35.288745      26.011981      44.334125    
-807620.06      3.5994393      34.481774      25.989856      43.935125    
-807633.2       3.8796838      33.359517      25.977605      43.536248    
-807638.46      4.0356343      33.528813      25.947589      43.137567    
-807647.05      5.2866533      33.787084      25.947791      42.738953    
-807647.5       3.2245111      33.486719      25.888934      42.340645    
-807639.7       3.4160672      33.143641      25.927686      41.942243    
-807624.73      4.114788       33.854756      25.912248      41.543966    
-807614.97      3.0402169      35.988343      25.917947      41.145729    
-807614.06      3.019455       35.596336      25.934354      40.747491    
-807619.21      2.9542387      34.975226      25.94757       40.349267    
-807629.35      3.2312829      33.57703       25.970406      39.951021    
-807640.45      3.7823243      33.869506      25.966812      39.552854    
-807645.69      3.1491382      34.036159      25.945445      39.154831    
-807646.35      2.7270026      32.809948      25.926629      38.756939    
-807635.48      3.6140662      33.496269      25.938291      38.359065    
-807626.64      3.4209491      33.451353      26.007733      37.961008    
-807619.86      3.4893401      33.735115      25.999393      37.563047    
-807615.85      2.8416193      34.652881      25.990696      37.165181    
-807619.1       3.8091895      34.01704       25.987261      36.767392    
-807632.88      2.815903       33.629114      25.982678      36.369681    
-807644.5       2.7961766      32.482098      25.967358      35.972084    
-807646.4       3.2419598      33.167687      25.92439       35.574688    
-807641.94      2.7258894      33.382994      25.999139      35.177108    
-807638.48      3.597961       31.872486      25.985832      34.779633    
-807629.71      2.9325734      32.62912       25.934293      34.382381    
-807617.03      2.9162824      34.166722      25.917422      33.985237    
-807614.01      3.5655972      34.654791      25.990625      33.587925    
-807625.02      3.3352465      33.36383       25.999455      33.190647    
-807637.94      3.2105217      32.967514      25.962155      32.793539    
-807642.64      3.06529        33.97653       25.954155      32.396513    
-807643.91      3.1368958      33.943778      25.93178       31.999606    
-807643.97      4.1290917      33.451875      25.980693      31.602615    
-807638.77      3.6837113      33.341875      25.987747      31.205661    
-807622.08      2.8672357      33.839191      26.000442      30.808731    
-807617.13      3.2545359      34.398632      26.07045       30.41167     
-807617.62      2.8813257      33.873868      25.896         30.015137    
-807629.51      4.250923       33.070136      25.942944      29.618529    
-807633.53      3.2612992      33.021435      25.925794      29.222017    
-807644.93      3.1366044      32.294785      25.922987      28.825564    
-807645.62      2.7593019      33.655256      25.925578      28.429153    
-807645.48      3.2049095      33.075086      25.949686      28.032734    
-807632.08      2.9504208      32.903057      25.897541      27.636492    
-807622.76      3.3103697      33.926328      25.853053      27.240403    
-807617.05      2.9446909      34.175956      25.84303       26.844381    
-807620.45      3.5543192      33.827336      25.876377      26.448324    
-807624.14      3.0832953      33.24247       25.865275      26.052336    
-807637.04      3.0891315      32.494019      25.873749      25.656372    
-807643.98      2.9881622      32.882531      25.901322      25.260392    
-807647.83      3.1058386      32.446452      25.852133      24.864562    
-807638.12      3.1264494      33.55443       25.8526        24.468773    
-807632.42      2.8086948      33.452632      25.883005      24.072962    
-807625.41      3.1436263      32.937987      25.885677      23.677188    
-807617.36      2.7277318      34.099725      25.880647      23.281467    
-807615.98      2.5810849      35.237342      25.925808      22.8857      
-807626.5       3.0503731      34.05944       25.920645      22.489988    
-807638.21      3.1499901      33.82578       25.941614      22.094282    
-807643.27      3.4560423      33.714801      25.907841      21.698683    
-807641.79      4.5876886      34.442204      25.950265      21.303051    
-807638.78      2.687508       33.371071      25.913341      20.907531    
-807632.35      3.0598772      34.046253      25.858777      20.512148    
-807622.79      2.8075528      34.137565      25.87416       20.116777    
-807614.38      2.8977641      35.186555      25.919936      19.72137     
-807618.63      3.423651       34.894218      25.907049      19.326027    
-807629.19      2.9485001      34.472791      25.873819      18.930777    
-807638.29      2.8316184      33.647137      25.803192      18.535676    
-807640.22      3.274905       34.823694      25.828317      18.14057     
-807641.02      3.4081031      34.745909      25.885401      17.745414    
-807640.6       3.2331823      33.874606      25.891762      17.350288    
-807628.9       3.4856229      34.259332      25.857362      16.95525     
-807619.1       2.6816809      35.30863       25.883286      16.560212    
-807613.05      2.8217958      36.059932      25.885948      16.165208    
-807622.46      2.8403111      35.669842      25.937239      15.770176    
-807626.82      3.4211994      34.896129      25.894754      15.375238    
-807636.08      4.5710128      35.245471      25.926474      14.9803      
-807640.33      3.5303841      36.561308      25.927071      14.5854      
-807643.94      4.3398345      34.846729      25.923273      14.190545    
-807634.61      3.0856591      35.55388       25.919655      13.795733    
-807627.02      3.7964397      34.805527      25.931348      13.400947    
-807617.02      3.0179226      35.522236      25.929601      13.006202    
-807618.2       3.5299899      35.497755      25.923555      12.611502    
-807619.13      2.8703313      34.70346       26.008787      12.216756    
-807627.96      2.7993887      34.396291      25.950133      11.82211     
-807638.58      2.7754638      33.267365      25.914677      11.427535    
-807645.24      2.7448001      34.155155      25.878884      11.033029    
-807641.73      2.8426567      34.337233      25.881021      10.638555    
-807634.54      3.6321017      34.320799      25.904869      10.244096    
-807628.23      3.8730328      35.071559      25.935651      9.8496488    
-807620.91      3.3440439      35.059659      25.885476      9.4552762    
-807615.99      3.012103       36.175228      25.861944      9.0609543    
-807622         3.6232964      34.858065      25.922306      8.666623     
-807632.18      3.5313346      34.825091      25.904677      8.272339     
-807639.59      3.4453723      34.359775      25.860725      7.8781166    
-807642.56      3.3120138      34.312547      25.913209      7.4838947    
-807639.85      2.9562319      34.392045      25.952889      7.0896853    
-807636.29      3.4649014      34.158589      25.878201      6.6955518    
-807628.56      3.0217233      34.447395      25.875638      6.3014514    
-807619.31      3.1454152      34.870134      25.900633      5.907371     
-807618.94      2.9317457      34.480782      25.920349      5.5133151    
-807625.8       2.7450357      33.863558      25.936717      5.1192865    
-807634.61      2.7319287      33.092313      25.856648      4.725322     
-807639.64      3.4795411      32.989373      25.873239      4.3313815    
-807642.14      3.2931625      33.631714      25.908553      3.9374606    
-807642.28      2.8182041      33.389923      25.909979      3.5435716    
-807634.59      2.9488858      33.642868      25.922105      3.149712     
-807626.69      2.7850134      33.523976      25.896633      2.7558906    
-807619.51      2.7702889      34.428849      25.929968      2.3620943    
-807621.65      2.7830762      34.750052      25.925724      1.9683314    
-807626.42      3.2922039      33.720972      25.910045      1.5746029    
-807634.94      3.0216506      33.385451      25.842849      1.1809118    
-807639.88      3.0245992      33.233787      25.846856      0.78724744   
-807643.67      3.8188834      33.744362      25.860291      0.39360983   
-807640.33      3.4173931      33.037097      25.867313      0            
Loop time of 196.798 on 32 procs for 5000 steps with 1080 atoms

Performance: 4.390 ns/day, 5.467 hours/ns, 25.407 timesteps/s, 27.439 katom-step/s
67.4% CPU use with 32 MPI tasks x 1 OpenMP threads

MPI task timing breakdown:
Section |  min time  |  avg time  |  max time  |%varavg| %total
---------------------------------------------------------------
Pair    | 101.95     | 145.05     | 192.17     | 304.0 | 73.71
Neigh   | 0          | 0          | 0          |   0.0 |  0.00
Comm    | 2.3142     | 49.405     | 92.504     | 520.8 | 25.10
Output  | 0.029444   | 0.030149   | 0.031953   |   0.3 |  0.02
Modify  | 1.9505     | 1.9887     | 2.0106     |   1.2 |  1.01
Other   |            | 0.3216     |            |       |  0.16

Nlocal:          33.75 ave          48 max          21 min
Histogram: 8 8 0 0 0 0 0 8 0 8
Nghost:        1106.25 ave        1119 max        1092 min
Histogram: 8 0 8 0 0 0 0 0 8 8
Neighs:              0 ave           0 max           0 min
Histogram: 32 0 0 0 0 0 0 0 0 0
FullNghs:       5494.5 ave        7896 max        3378 min
Histogram: 8 8 0 0 0 0 0 8 0 8

Total # of neighbors = 175824
Ave neighs/atom = 162.8
Neighbor list builds = 0
Dangerous builds = 0

reset_timestep 0


variable interval equal 1000
thermo 10

variable nintervals equal $(v_PERIOD/v_interval)
variable nintervals equal 100
variable efield equal 1e-2*36.36*cos((step/${PERIOD})*2*3.14)
variable efield equal 1e-2*36.36*cos((step/100000)*2*3.14)
fix born all addbornforce 0.0 0.0 v_efield

variable Px equal f_born[1]+c_polarization[1]
variable Py equal f_born[2]+c_polarization[2]
variable Pz equal (f_born[3]+c_polarization[3])/vol
variable pe equal pe

fix aveP all ave/time 1 $(v_interval/2) ${interval} v_efield v_Pz v_pe f_born file Pz.${MODEL}.${STRUCTURE}.${TEMP}.$L.${ITER}
fix aveP all ave/time 1 500 ${interval} v_efield v_Pz v_pe f_born file Pz.${MODEL}.${STRUCTURE}.${TEMP}.$L.${ITER}
fix aveP all ave/time 1 500 1000 v_efield v_Pz v_pe f_born file Pz.${MODEL}.${STRUCTURE}.${TEMP}.$L.${ITER}
fix aveP all ave/time 1 500 1000 v_efield v_Pz v_pe f_born file Pz.BaTiO3-E0.${STRUCTURE}.${TEMP}.$L.${ITER}
fix aveP all ave/time 1 500 1000 v_efield v_Pz v_pe f_born file Pz.BaTiO3-E0.BaTiO3-sc333.${TEMP}.$L.${ITER}
fix aveP all ave/time 1 500 1000 v_efield v_Pz v_pe f_born file Pz.BaTiO3-E0.BaTiO3-sc333.300.$L.${ITER}
fix aveP all ave/time 1 500 1000 v_efield v_Pz v_pe f_born file Pz.BaTiO3-E0.BaTiO3-sc333.300.2.${ITER}
fix aveP all ave/time 1 500 1000 v_efield v_Pz v_pe f_born file Pz.BaTiO3-E0.BaTiO3-sc333.300.2.2

thermo_style custom step time temp press pe f_born v_efield v_Pz spcpu cpuremain

# dump 4a all custom 1000 dump.hyst.${MODEL}.${STRUCTURE}.${TEMP}.$L.${ITER}.bin id type xu yu zu fx fy fz
# dump_modify 4a sort id

fix nvt all nvt temp ${TEMP} ${TEMP} $(100*dt)
fix nvt all nvt temp 300 ${TEMP} $(100*dt)
fix nvt all nvt temp 300 300 $(100*dt)
fix nvt all nvt temp 300 300 0.2000000000000000111

run $(v_PERIOD)
run 100000
WARNING: non-constant efield is experimental, strongly distrust scalar/vector output (src/fix_addbornforce.cpp:193)
Per MPI rank memory allocation (min/avg/max) = 3.516 | 3.516 | 3.516 Mbytes
   Step          Time           Temp          Press          PotEng         f_born        v_efield         v_Pz          S/CPU         CPULeft    
         0   0              291.47919      127366.18     -807640.32     -294.49841      0.3636         0.055386841    0              0            
        10   0.02           300.69623      131898.12     -807632.38     -303.83461      0.36359993     0.057142728    28.758742      3476.8747    
        20   0.04           298.15071      138802.15     -807624.74     -311.18288      0.36359971     0.058524766    28.835302      3471.9044    
        30   0.06           293.07464      142689.74     -807620.85     -314.25589      0.36359935     0.059102771    28.85745       3469.1267    
        40   0.08           301.22804      141576.29     -807622.35     -313.88353      0.36359885     0.059032821    28.85292       3467.7018    
        50   0.1            296.30681      137575.53     -807625.89     -309.68556      0.36359821     0.058243403    28.844974      3466.8987    
        60   0.12           294.65767      130924.4      -807635.03     -300.19568      0.36359742     0.056458738    28.869745      3465.7527    
        70   0.14           294.7414       125271.65     -807642.09     -292.98741      0.36359649     0.055103197    28.937678      3463.674     
        80   0.16           285.32498      124124.99     -807642.79     -290.90555      0.36359541     0.054711816    28.894219      3462.6778    
        90   0.18           297.65329      128565.91     -807637.83     -297.5501       0.36359419     0.055961672    28.799233      3463.0939    
       100   0.2            293.01522      133250.9      -807631.15     -303.55077      0.36359283     0.057090461    28.760226      3463.8268    
       110   0.22           316.17077      139762.61     -807627.24     -310.47064      0.36359132     0.05839216     28.748845      3464.4886    
       120   0.24           283.54408      142520.38     -807618.58     -314.51828      0.36358968     0.059153693    28.753561      3464.9347    
       130   0.26           309.24681      142500.14     -807621.62     -314.84889      0.36358788     0.059216165    28.802153      3464.8075    
       140   0.28           305.63625      135720.22     -807629        -306.812        0.36358595     0.057704909    28.831052      3464.4014    
       150   0.3            298.7155       130260.23     -807635.8      -298.75105      0.36358387     0.056189137    28.843109      3463.9063    
       160   0.32           298.40545      125390.74     -807641.96     -292.3274       0.36358165     0.054981311    28.837352      3463.4729    
       170   0.34           296.56399      124952.55     -807640.63     -293.07337      0.36357928     0.055121974    28.868185      3462.8326    
       180   0.36           302.48877      126963.36     -807638.73     -295.54816      0.36357677     0.055587821    28.853071      3462.3249    
       190   0.38           320.42238      134013.15     -807632.54     -303.93532      0.36357412     0.057165728    28.825921      3462.006     
       200   0.4            307.01951      140381.79     -807621.57     -312.83942      0.36357132     0.058840908    28.858497      3461.4887    
       210   0.42           307.54141      144029.14     -807617.86     -316.32701      0.36356838     0.05949736     28.859864      3460.9802    
       220   0.44           301.02065      141656.32     -807620.56     -312.39575      0.3635653      0.058758435    28.821726      3460.6944    
       230   0.46           311.18766      135812.44     -807628.32     -305.83981      0.36356207     0.057525839    28.82013       3460.4108    
       240   0.48           309.14031      130655.77     -807634.13     -299.54865      0.3635587      0.056343048    28.837602      3460.0355    
       250   0.5            303.12169      126047.28     -807639.42     -293.21358      0.36355519     0.055151998    28.844544      3459.6289    
       260   0.52           297.85209      125749.52     -807640.71     -291.0229       0.36355153     0.054740494    28.788781      3459.4844    
       270   0.54           305.31923      128080.25     -807636.64     -296.13912      0.36354773     0.055703419    28.725681      3459.6068    
       280   0.56           321.03132      135315.67     -807628.49     -306.40247      0.36354379     0.057634569    28.712444      3459.7527    
       290   0.58           319.69779      139122.51     -807622.72     -312.10165      0.3635397      0.05870725     28.737212      3459.7613    
       300   0.6            305.80362      143634.31     -807618.74     -313.98565      0.36353547     0.059062322    28.784325      3459.5569    
       310   0.62           315.10341      138790.1      -807623.53     -310.6655       0.3635311      0.058438488    28.806701      3459.2565    
       320   0.64           315.82963      136462.11     -807626.87     -307.42531      0.36352658     0.057829704    28.858695      3458.7583    
       330   0.66           313.29916      128085.5      -807635.29     -298.80771      0.36352192     0.05620937     28.888098      3458.1628    
       340   0.68           292.83097      127772.95     -807637.89     -293.29165      0.36351712     0.055172459    28.842644      3457.7417    
       350   0.7            293.31873      125824.71     -807640.67     -290.8522       0.36351217     0.054714308    28.812927      3457.4269    
       360   0.72           302.83265      131376.86     -807632.6      -300.3339       0.36350708     0.05649877     28.837643      3457.0279    
       370   0.74           315.1304       133888.62     -807629.05     -305.77902      0.36350185     0.057523933    28.857752      3456.5668    
       380   0.76           312.45843      141089.18     -807623.52     -311.00034      0.36349647     0.058507047    28.846619      3456.1465    
       390   0.78           305.28732      140757.07     -807621.27     -312.45979      0.36349095     0.0587825      28.864123      3455.6764    
       400   0.8            305.08021      141275.68     -807621.3      -312.53402      0.36348529     0.058797381    28.819086      3455.3473    
       410   0.82           301.37827      134291.21     -807627.99     -305.49591      0.36347948     0.057474211    28.850571      3454.9254    
       420   0.84           303.48077      130842.57     -807636        -297.80989      0.36347353     0.056029126    28.850484      3454.5073    
       430   0.86           298.39999      125669.41     -807640.74     -292.47579      0.36346744     0.055026505    28.848467      3454.0982    
       440   0.88           286.26051      128571.74     -807636.08     -295.54168      0.3634612      0.055604277    28.775769      3453.89      
       450   0.9            312.92379      129936.37     -807635.74     -299.75922      0.36345482     0.05639877     28.815525      3453.5695    
       460   0.92           309.61022      136063.63     -807629.23     -305.88743      0.3634483      0.057552807    28.806041      3453.2727    
       470   0.94           305.47257      139317.66     -807623.96     -310.72168      0.36344163     0.058463446    28.848467      3452.8656    
       480   0.96           304.94067      142540.47     -807620.15     -314.53535      0.36343482     0.059182111    28.870536      3452.406     
       490   0.98           300.00991      138898.75     -807623.62     -310.53886      0.36342786     0.058431259    28.864856      3451.965     
       500   1              305.94548      133950.92     -807631.37     -303.55119      0.36342077     0.05711757     28.858363      3451.5433    
       510   1.02           296.93554      128007.24     -807636.9      -9498.8243      0.36341353     0.055855546    28.704512      3451.4867    
       520   1.04           301.18205      126620.13     -807640.22     -9412.0013      0.36340614     0.055346129    28.706549      3451.4142    
       530   1.06           295.21287      126653.01     -807638.33     -9449.2687      0.36339862     0.055566427    28.66132       3451.4345    
       540   1.08           292.49842      130631.38     -807634.66     -9557.6169      0.36339095     0.056204754    28.613265      3451.549     
       550   1.1            309.66982      136833.13     -807629.14     -9813.8703      0.36338313     0.057712926    28.694273      3451.4683    
       560   1.12           289.52583      140804.1      -807620.28     -10011.651      0.36337518     0.058877314    28.752453      3451.2528    
       570   1.14           299.06821      142731.29     -807620.36     -10053.401      0.36336707     0.059124157    28.753463      3451.0305    
       580   1.16           298.47072      137551.76     -807627.16     -9836.401       0.36335883     0.057849291    28.762878      3450.7844    
       590   1.18           311.19778      134095.58     -807633.01     -9705.4679      0.36335044     0.057080573    28.77419       3450.5118    
       600   1.2            294.19472      126939.43     -807636.59     -9520.0571      0.36334191     0.055991434    28.732161      3450.3209    
       610   1.22           297.12917      126814.6      -807640.06     -9419.8772      0.36333324     0.055403557    28.694296      3450.1996    
       620   1.24           291.95502      125896.39     -807640.64     -9382.7421      0.36332442     0.055186484    28.699334      3450.0614    
       630   1.26           309.47428      131757.72     -807634.59     -9655.3094      0.36331546     0.056791044    28.755005      3449.8099    
       640   1.28           303.53638      136680.11     -807626.83     -9883.9924      0.36330636     0.058137579    28.769889      3449.5276    
       650   1.3            296.59037      141954.15     -807621.8      -10013.422      0.36329711     0.058900383    28.766663      3449.2492    
       660   1.32           303.60209      139719.98     -807625.2      -9937.6804      0.36328772     0.05845637     28.744031      3449.01      
       670   1.34           301.24836      138089.58     -807626.37     -9891.4294      0.36327819     0.058185835    28.760296      3448.7382    
       680   1.36           297.30308      132049.25     -807631.77     -9704.2395      0.36326851     0.05708622     28.777845      3448.4333    
       690   1.38           292.19324      127882.46     -807638.11     -9475.9182      0.36325869     0.055744602    28.725359      3448.2185    
       700   1.4            285.12179      125317.81     -807641.54     -9337.6076      0.36324873     0.05493246     28.715594      3448.0167    
       710   1.42           290.76607      127439.77     -807638.82     -9452.6993      0.36323863     0.055611084    28.741712      3447.7665    
       720   1.44           306.9699       131895.11     -807633.36     -9702.9285      0.36322838     0.057084816    28.768126      3447.4696    
       730   1.46           296.38425      137064.98     -807626.76     -9867.5188      0.36321798     0.058054804    28.795265      3447.1267    
       740   1.48           294.66351      141021.01     -807623.72     -9957.1695      0.36320745     0.058583956    28.793407      3446.7867    
       750   1.5            290.51148      139769.15     -807622.72     -9973.7352      0.36319677     0.058683147    28.764375      3446.4929    
       760   1.52           296.7519       137536.88     -807625.31     -9918.9135      0.36318595     0.058362328    28.733025      3446.2473    
       770   1.54           299.81343      130684.19     -807635.05     -9623.2304      0.36317498     0.056624255    28.718693      3446.0213    
       780   1.56           303.25755      128114.13     -807641.46     -9429.0695      0.36316387     0.055483486    28.728373      3445.7773    
       790   1.58           285.75706      125340.06     -807640.66     -9379.3888      0.36315262     0.05519286     28.719977      3445.5435    
       800   1.6            305.23574      129854.19     -807637.82     -9556.9443      0.36314122     0.056239447    28.735153      3445.2839    
       810   1.62           308.8319       131163.07     -807635.42     -9653.949       0.36312968     0.056812093    28.742098      3445.0119    
       820   1.64           289.40449      139185.26     -807625.62     -9877.8857      0.363118       0.058131798    28.772473      3444.6935    
       830   1.66           296.13735      139368.77     -807624.04     -9961.6124      0.36310618     0.058626443    28.786205      3444.3548    
       840   1.68           295.2761       142042.94     -807621.83     -10023.905      0.36309421     0.058994995    28.794802      3444.0036    
       850   1.7            303.99457      133988.6      -807630.44     -9788.7875      0.3630821      0.057613148    28.813037      3443.6267    
       860   1.72           287.3819       132108.98     -807633.59     -9606.491       0.36306984     0.056542127    28.798822      3443.2704    
       870   1.74           295.49218      125097.87     -807640.84     -9411.3851      0.36305745     0.055395659    28.777232      3442.944     
       880   1.76           287.12985      128151.79     -807638.01     -9459.7881      0.3630449      0.055682484    28.748769      3442.6558    
       890   1.78           283.08018      127665.11     -807636.69     -9482.5589      0.36303222     0.055818469    28.732005      3442.3888    
       900   1.8            304.00919      134570.43     -807632.74     -9695.1661      0.36301939     0.057071984    28.729935      3442.1228    
       910   1.82           298.57636      137276.96     -807626.22     -9878.8507      0.36300642     0.058155347    28.792063      3441.7733    
       920   1.84           301.24463      142067        -807621.02     -10047.694      0.36299331     0.059151442    28.742121      3441.4888    
       930   1.86           304.97554      137925.73     -807626.37     -9890.0902      0.36298005     0.058225742    28.711517      3441.2424    
       940   1.88           298.22666      136325.05     -807628.49     -9782.3732      0.36296665     0.057593708    28.764016      3440.9269    
       950   1.9            301.32712      129173.81     -807635.54     -9568.8084      0.36295311     0.056338448    28.814313      3440.5474    
       960   1.92           292.00327      128370.62     -807636.17     -9496.8834      0.36293942     0.055917082    28.802158      3440.1837    
       970   1.94           296.47212      126761.3      -807639.49     -9403.3105      0.36292559     0.05536824     28.802883      3439.8194    
       980   1.96           308.18104      129962.98     -807637.75     -9504.3461      0.36291162     0.055965309    28.781623      3439.4814    
       990   1.98           309.8816       134817.71     -807629.65     -9765.8416      0.3628975      0.057507334    28.803114      3439.1173    
      1000   2              310.51841      137810.69     -807625.07     -9912.9766      0.36288325     0.05837605     28.75042       3438.8166    
      1010   2.02           303.77707      140124.91     -807622.65     -310.98528      0.36286884     0.058605405    28.881886      3438.3597    
      1020   2.04           311.67296      137802.29     -807626.63     -307.96245      0.3628543      0.058038077    28.866474      3437.9229    
      1030   2.06           305.25801      135805.39     -807627.95     -305.56056      0.36283961     0.057587751    28.870728      3437.483     
      1040   2.08           302.64314      129253.17     -807634.2      -298.90443      0.36282478     0.056335601    28.908629      3437.0017    
      1050   2.1            305.77011      129107.04     -807638.5      -294.78428      0.3628098      0.055561354    28.899614      3436.5331    
      1060   2.12           300.99177      126810.16     -807639.38     -293.26874      0.36279469     0.055278006    28.834797      3436.1394    
      1070   2.14           308.06247      132205.64     -807633.28     -300.20312      0.36277943     0.056587442    28.842284      3435.7384    
      1080   2.16           307.14457      133079.5      -807629.2      -304.25015      0.36276402     0.057352732    28.818854      3435.364     
      1090   2.18           318.99427      140460.9      -807625.33     -309.57535      0.36274848     0.058359061    28.826484      3434.9819    
      1100   2.2            298.85665      138559.73     -807623.87     -308.32284      0.36273279     0.058125461    28.814957      3434.6129    
      1110   2.22           307.71301      140790.09     -807622.46     -310.8354       0.36271695     0.05860169     28.858485      3434.1977    
      1120   2.24           309.76972      132320.46     -807630.7      -303.0333       0.36270098     0.057133278    28.85417       3433.7882    
      1130   2.26           304.74785      131956.56     -807633.81     -299.07007      0.36268486     0.056388566    28.863855      3433.3698    
      1140   2.28           296.16699      126401.41     -807638.48     -293.38284      0.3626686      0.055318739    28.872347      3432.9436    
      1150   2.3            302.10344      129801.02     -807635.3      -297.37754      0.36265219     0.056074495    28.864414      3432.5271    
      1160   2.32           307.49715      129589.98     -807634.02     -299.64178      0.36263564     0.056504027    28.859428      3432.1169    
      1170   2.34           303.95807      135298.24     -807629.18     -304.05426      0.36261895     0.057338736    28.839751      3431.7278    
      1180   2.36           308.28243      136705.28     -807626.75     -307.32177      0.36260212     0.057957616    28.812405      3431.3669    
      1190   2.38           300.24519      140414.77     -807621.84     -311.34658      0.36258514     0.058719401    28.835691      3430.983     
      1200   2.4            299.97324      137574.63     -807625.16     -308.28563      0.36256802     0.058144857    28.88202       3430.5539    
      1210   2.42           300.57729      133989.98     -807630.85     -302.85923      0.36255076     0.057124119    28.902385      3430.1063    
      1220   2.44           303.09006      129161.9      -807636.76     -297.57538      0.36253335     0.056130194    28.858549      3429.7029    
      1230   2.46           295.26431      128278.24     -807637.37     -296.21597      0.3625158      0.055876481    28.79837       3429.3586    
      1240   2.48           290.25432      128503.67     -807636.55     -296.54706      0.36249811     0.055941664    28.777943      3429.0338    
      1250   2.5            296.12461      130268.59     -807635.16     -298.98389      0.36248028     0.056404132    28.79548       3428.692     
      1260   2.52           297.82418      134392.7      -807630.78     -303.89377      0.3624623      0.057333237    28.809374      3428.3369    
      1270   2.54           298.33043      138346.9      -807625.3      -309.72867      0.36244418     0.058436984    28.827975      3427.9646    
      1280   2.56           302.97421      139345.05     -807624.94     -310.85646      0.36242592     0.058652721    28.886373      3427.5385    
      1290   2.58           290.08056      136440.8      -807628.66     -305.46136      0.36240751     0.057637695    28.897607      3427.1035    
      1300   2.6            303.08221      134107.02     -807633.88     -302.1154       0.36238896     0.057009262    28.891543      3426.6753    
      1310   2.62           292.97241      128668.31     -807637.16     -297.59893      0.36237027     0.056159901    28.875805      3426.2625    
      1320   2.64           285.88881      129052.24     -807637.39     -296.25437      0.36235143     0.055909075    28.812487      3425.9077    
      1330   2.66           288.04901      126907.89     -807640.22     -293.81514      0.36233245     0.055451647    28.792393      3425.5709    
      1340   2.68           290.39942      132793.12     -807633.66     -300.65736      0.36231333     0.056745973    28.788549      3425.2374    
      1350   2.7            286.90847      135462.4      -807628.04     -305.9127       0.36229407     0.057740934    28.806441      3424.888     
      1360   2.72           291.68864      139769.46     -807624.73     -309.70262      0.36227466     0.058459411    28.871846      3424.4815    
      1370   2.74           295.74369      137496.81     -807627.23     -307.74435      0.36225511     0.058092904    28.87944       3424.0694    
      1380   2.76           299.88811      137797.08     -807628.38     -307.03936      0.36223542     0.057962973    28.883774      3423.6545    
      1390   2.78           300.27981      132159.51     -807632.84     -302.60203      0.36221558     0.057128422    28.864559      3423.2569    
      1400   2.8            295.33114      129323.92     -807636.91     -297.63972      0.3621956      0.056194683    28.813716      3422.9031    
      1410   2.82           290.34811      126867.6      -807640.43     -293.40244      0.36217548     0.055397759    28.762         3422.5931    
      1420   2.84           298.92997      129018.39     -807638.43     -296.47558      0.36215522     0.055981135    28.756397      3422.2872    
      1430   2.86           290.37548      132470.85     -807632.01     -301.68748      0.36213481     0.056968466    28.803543      3421.9415    
      1440   2.88           295.2024       137334.27     -807628.39     -305.82149      0.36211426     0.057752381    28.849391      3421.558     
      1450   2.9            303.00521      137766.66     -807627.93     -307.21807      0.36209357     0.05801943     28.927593      3421.1113    
      1460   2.92           294.22707      138751.87     -807624.95     -308.86004      0.36207273     0.058332879    28.930662      3420.6636    
      1470   2.94           304.68445      136113.85     -807628.15     -306.95058      0.36205176     0.057975609    28.917842      3420.2275    
      1480   2.96           297.18952      132009.43     -807633.37     -300.47523      0.36203064     0.056755881    28.931714      3419.7816    
      1490   2.98           303.17458      128376.59     -807639.23     -295.25574      0.36200937     0.055773264    28.849066      3419.4025    
      1500   3              283.17604      127767.76     -807637.04     -294.56682      0.36198796     0.055646418    28.80589       3419.0579    
      1510   3.02           289.69068      129362.46     -807634.69     -9526.786       0.36196642     0.056243931    28.685816      3418.8081    
      1520   3.04           303.25074      131832.38     -807633.77     -9611.3697      0.36194472     0.056746695    28.704086      3418.5426    
      1530   3.06           300.22281      135733.14     -807628.9      -9749.4304      0.36192289     0.057565295    28.761405      3418.2314    
      1540   3.08           301.23924      138802        -807624.56     -9889.1678      0.36190091     0.058393917    28.828701      3417.8678    
      1550   3.1            304.86332      138884.04     -807624.72     -9896.2474      0.36187879     0.058439293    28.791178      3417.5331    
      1560   3.12           313.15245      135816.79     -807630.03     -9756.6433      0.36185653     0.057618448    28.793881      3417.1962    
      1570   3.14           305.56776      132077.99     -807634.19     -9587.491       0.36183412     0.056623014    28.713481      3416.9201    
      1580   3.16           295.88244      129341.36     -807635.58     -9496.3475      0.36181157     0.056088223    28.707188      3416.6479    
      1590   3.18           288.39125      128831.78     -807635.47     -9463.0471      0.36178888     0.055895047    28.706952      3416.3749    
      1600   3.2            303.44397      129101.19     -807636.75     -9486.5206      0.36176605     0.056037234    28.774971      3416.0503    
      1610   3.22           309.16308      133064.38     -807632.69     -9638.3322      0.36174307     0.056937607    28.767588      3415.7309    
      1620   3.24           307.21967      136603.88     -807627.37     -9799.9565      0.36171995     0.057896088    28.804528      3415.384     
      1630   3.26           305.76246      139456.5      -807624        -9897.5386      0.36169669     0.058476343    28.760995      3415.0689    
      1640   3.28           308.00982      137367.61     -807627.47     -9795.9596      0.36167329     0.057879942    28.754271      3414.7582    
      1650   3.3            309.48675      134580.26     -807630.27     -9710.7989      0.36164974     0.057380502    28.723774      3414.4691    
      1660   3.32           300.85147      130811.21     -807633.72     -9561.4527      0.36162605     0.056501725    28.68746       3414.2054    
      1670   3.34           284.23652      130517.44     -807633.95     -9478.2215      0.36160222     0.056013577    28.687834      3413.9405    
      1680   3.36           301.56129      128053.57     -807638.55     -9407.1707      0.36157824     0.055597373    28.707534      3413.6605    
      1690   3.38           300.91412      130733.11     -807635.19     -9510.9717      0.36155413     0.056214598    28.762618      3413.3409    
      1700   3.4            308.10428      133474.89     -807630.52     -9694.7704      0.36152987     0.057304785    28.806661      3412.9902    
      1710   3.42           309.79558      137920.96     -807626.67     -9825.5792      0.36150546     0.058081902    28.759001      3412.6726    
      1720   3.44           299.56521      138375.33     -807624.99     -9832.9799      0.36148092     0.058129597    28.722862      3412.3798    
      1730   3.46           313.8351       137451.74     -807628.33     -9790.3322      0.36145623     0.05788143     28.723945      3412.0854    
      1740   3.48           301.25092      134465.95     -807628.85     -9719.2793      0.3614314      0.057465306    28.7776        3411.7539    
      1750   3.5            301.93506      131731.29     -807633.56     -9570.1463      0.36140643     0.056587466    28.71649       3411.4636    
      1760   3.52           302.63206      128495.08     -807639.22     -9391.1944      0.36138131     0.055533197    28.76047       3411.143     
      1770   3.54           298.3913       128002.7      -807637.61     -9425.3289      0.36135605     0.055738942    28.762531      3410.8207    
      1780   3.56           305.31334      130907.14     -807634.65     -9552.3375      0.36133065     0.056494008    28.811513      3410.4656    
      1790   3.58           304.34843      134764.06     -807630.12     -9695.0311      0.36130511     0.057341974    28.762618      3410.1428    
      1800   3.6            297.83192      137687.02     -807626.16     -9792.4074      0.36127942     0.057922031    28.767467      3409.8166    
      1810   3.62           292.2284       138431.87     -807624.29     -9827.6357      0.3612536      0.058134562    28.785956      3409.478     
      1820   3.64           305.30215      138132.09     -807625.97     -9832.8824      0.36122763     0.058169781    28.798503      3409.1312    
      1830   3.66           302.35554      133816.04     -807630.47     -9675.8412      0.36120151     0.057244888    28.784064      3408.7937    
      1840   3.68           300.31124      131071.74     -807635.53     -9502.6487      0.36117526     0.056224321    28.792694      3408.4505    
      1850   3.7            296.17174      127702.1      -807638.91     -9376.7626      0.36114886     0.055483546    28.797576      3408.1043    
      1860   3.72           298.38327      128675.52     -807637        -9446.2056      0.36112232     0.055898558    28.788758      3407.7635    
      1870   3.74           301.3028       129615.87     -807634.78     -9531.8478      0.36109564     0.056409519    28.813722      3407.4069    
      1880   3.76           303.92519      134435.36     -807630.72     -9671.7796      0.36106881     0.057241889    28.70564       3407.1187    
      1890   3.78           296.75784      137779.49     -807626.59     -9772.6694      0.36104184     0.057843319    28.691104      3406.8389    
      1900   3.8            293.61089      139833.51     -807622.37     -9894.7383      0.36101474     0.058570229    28.704731      3406.5499    
      1910   3.82           305.76694      137618.99     -807626.54     -9814.5031      0.36098748     0.058099676    28.731613      3406.2435    
      1920   3.84           308.87162      134628.66     -807632.15     -9646.0846      0.36096009     0.05710701     28.73686       3405.9335    
      1930   3.86           296.40762      129835.76     -807635.27     -9492.3205      0.36093255     0.056200979    28.763514      3405.6066    
      1940   3.88           304.38214      128557.21     -807637.98     -9439.6147      0.36090487     0.055893211    28.737287      3405.2956    
      1950   3.9            286.82725      128006.48     -807636.14     -9421.5034      0.36087705     0.055790273    28.739814      3404.9827    
      1960   3.92           311.28771      130005.93     -807637.23     -9496.318       0.36084909     0.056237652    28.713837      3404.6851    
      1970   3.94           307.91676      133786.83     -807631.31     -9669.3804      0.36082098     0.057266996    28.698201      3404.3965    
      1980   3.96           293.28299      137770.6      -807625.07     -9805.3636      0.36079273     0.058076904    28.706031      3404.1026    
      1990   3.98           297.31935      138482.28     -807624.69     -9836.3781      0.36076434     0.058265188    28.785603      3403.7607    
      2000   4              305.34811      137660.87     -807628.27     -9755.7256      0.36073581     0.057792018    28.789285      3403.4165    
      2010   4.02           302.19817      133313.81     -807631.44     -301.20992      0.36070713     0.057103413    28.846212      3403.039     
      2020   4.04           291.14616      131582.28     -807633.48     -297.60059      0.36067831     0.056423663    28.873569      3402.6458    
      2030   4.06           300.42331      128284.93     -807639.19     -293.13122      0.36064935     0.055580754    28.871654      3402.2541    
      2040   4.08           295.71751      129019.95     -807637.13     -294.52396      0.36062025     0.055849338    28.861586      3401.8687    
      2050   4.1            301.77457      129949.49     -807634.72     -297.81605      0.36059101     0.056478184    28.865176      3401.4817    
      2060   4.12           305.26054      135130.71     -807630.18     -302.80825      0.36056162     0.057429591    28.808614      3401.1273    
      2070   4.14           293.23387      138008.94     -807625.26     -306.08724      0.36053209     0.058056227    28.83212       3400.7597    
      2080   4.16           304.26351      138992.89     -807626.12     -306.7447       0.36050242     0.058185718    28.873208      3400.369     
      2090   4.18           303.33419      136308.57     -807628.33     -304.36026      0.36047261     0.057738193    28.895852      3399.966     
      2100   4.2            287.24663      133359.98     -807630.29     -300.15446      0.36044265     0.056945071    28.882923      3399.5708    
      2110   4.22           294.32468      129793.01     -807635.99     -295.43443      0.36041256     0.056054272    28.859055      3399.1893    
      2120   4.24           295.79873      127915.51     -807638.78     -292.81783      0.36038232     0.055562472    28.854368      3398.8108    
      2130   4.26           288.87714      129542.29     -807636.22     -294.38283      0.36035193     0.055864142    28.788521      3398.4689    
      2140   4.28           297.03063      131234.03     -807633.72     -298.05763      0.36032141     0.056566289    28.817456      3398.1111    
      2150   4.3            303.26164      136083.25     -807629.65     -302.89433      0.36029075     0.057489106    28.870321      3397.7245    
      2160   4.32           300.2754       137324.41     -807627.07     -305.09354      0.36025994     0.057911467    28.870624      3397.338     
      2170   4.34           306.62595      138992.9      -807625.77     -307.20574      0.36022899     0.058317404    28.846508      3396.965     
      2180   4.36           306.79742      135361.93     -807630.12     -302.93274      0.36019789     0.057511218    28.868045      3396.5807    
      2190   4.38           294.49192      133329.93     -807632.06     -299.15641      0.36016666     0.056799212    28.844573      3396.2092    
      2200   4.4            295.86494      127605.04     -807637.84     -293.60392      0.36013528     0.055749848    28.794026      3395.8651    
      2210   4.42           295.1535       128930.11     -807637.17     -294.09631      0.36010377     0.055848233    28.79885       3395.5183    
      2220   4.44           293.69291      128759.17     -807636.69     -294.40766      0.36007211     0.055912273    28.765952      3395.1891    
      2230   4.46           303.34264      133389.66     -807632.59     -299.75598      0.3600403      0.056933024    28.790958      3394.8464    
      2240   4.48           294.30222      135415.79     -807628.46     -302.68223      0.36000836     0.057493912    28.834379      3394.4808    
      2250   4.5            300.46196      139160.61     -807624.84     -307.04109      0.35997627     0.058327067    28.868999      3394.0974    
      2260   4.52           304.14727      137244.61     -807627.46     -304.95378      0.35994404     0.057935738    28.873412      3393.712     
      2270   4.54           300.63774      135851.41     -807630.06     -301.7172       0.35991167     0.057326002    28.865816      3393.3309    
      2280   4.56           299.44951      130505.69     -807634.66     -296.90666      0.35987916     0.0564171      28.84333       3392.9616    
      2290   4.58           299.41347      128300.04     -807638.41     -293.07718      0.35984651     0.05569449     28.862656      3392.5826    
      2300   4.6            293.55145      127870.18     -807638.29     -292.28817      0.35981371     0.055549613    28.845044      3392.213     
      2310   4.62           306.47694      129203.81     -807637.71     -294.66344      0.35978077     0.056006163    28.82862       3391.8518    
      2320   4.64           299.15179      133098.28     -807631.62     -299.63029      0.35974769     0.05695544     28.864827      3391.4725    
      2330   4.66           298.366        136528.06     -807626.87     -304.20501      0.35971447     0.05783037     28.901883      3391.0748    
      2340   4.68           292.95066      139800.75     -807623.47     -306.7459       0.35968111     0.05831881     28.88149       3390.6878    
      2350   4.7            296.5397       137783.29     -807625.1      -305.54908      0.3596476      0.058096682    28.829531      3390.327     
      2360   4.72           309.61715      134156.56     -807631.33     -301.03275      0.35961396     0.057243309    28.80443       3389.9788    
      2370   4.74           301.9177       130886.46     -807634.57     -296.59588      0.35958017     0.056404908    28.820989      3389.6225    
      2380   4.76           299.33856      128769.13     -807637.42     -293.26152      0.35954624     0.055776062    28.811188      3389.2711    
      2390   4.78           298.64057      127870.96     -807638.49     -292.00248      0.35951216     0.055541867    28.812104      3388.9192    
      2400   4.8            304.73493      129858.13     -807636.27     -294.98504      0.35947795     0.056114521    28.822927      3388.5621    
      2410   4.82           293.40916      133869.38     -807630.09     -299.58269      0.35944359     0.056994571    28.798526      3388.217     
      2420   4.84           307.80501      137163.09     -807626.67     -304.86587      0.35940909     0.058005245    28.807513      3387.8675    
      2430   4.86           305.2698       137351.39     -807626.32     -304.77891      0.35937446     0.057994288    28.830669      3387.5068    
      2440   4.88           302.70936      137903.04     -807626.38     -304.19369      0.35933967     0.057888534    28.804575      3387.1588    
      2450   4.9            300.22858      133097.39     -807630.05     -300.14793      0.35930475     0.057124171    28.838665      3386.7945    
      2460   4.92           311.95963      130779.41     -807634.74     -296.91602      0.35926969     0.05651459     28.860259      3386.42      
      2470   4.94           297.20872      126671.49     -807638.3      -291.32205      0.35923448     0.055455275    28.844498      3386.0533    
      2480   4.96           306.65769      129765.41     -807638.08     -292.65284      0.35919913     0.055714082    28.846468      3385.6857    
      2490   4.98           293.3881       130567.77     -807633.14     -295.817        0.35916364     0.056322027    28.870664      3385.307     
      2500   5              308.45864      135746.42     -807630.28     -300.62614      0.35912801     0.057243342    28.856182      3384.9353    
[...]
     98740   197.48         311.76456      129539.38     -807636.35     -9532.7909      0.36236891     0.056216871    30.007571      45.263979    
     98750   197.5          297.30892      132671.93     -807632.37     -9589.4836      0.36238762     0.056548282    29.999706      44.904413    
     98760   197.52         312.41882      131307.74     -807633.32     -9627.3403      0.36240618     0.056768612    30.009156      44.544851    
     98770   197.54         311.41654      134203.4      -807630.62     -9706.3292      0.36242459     0.05723147     30.005395      44.185296    
     98780   197.56         306.26946      134608.23     -807630.15     -9698.0635      0.36244287     0.057179849    29.930749      43.825755    
     98790   197.58         302.48886      136849.82     -807626.97     -9779.2598      0.362461       0.057655699    29.950169      43.466217    
     98800   197.6          307.09986      134794.06     -807628.27     -9763.5612      0.36247899     0.057560288    29.993792      43.106679    
     98810   197.62         308.09166      134855.77     -807629.63     -9722.204       0.36249683     0.057313648    30.008747      42.747143    
     98820   197.64         307.05311      131482.97     -807633.64     -9589.5891      0.36251453     0.056529106    30.010376      42.387613    
     98830   197.66         302.33128      132396.94     -807632.53     -9604.2426      0.36253209     0.056612744    30.004572      42.028089    
     98840   197.68         306.61784      131000.45     -807633.18     -9607.3656      0.36254951     0.056628432    30.005144      41.66857     
     98850   197.7          311.9444       133575.63     -807632.68     -9648.0791      0.36256678     0.056865699    29.995363      41.309058    
     98860   197.72         296.87262      134134.23     -807630.13     -9667.6172      0.36258391     0.056978165    29.962334      40.949555    
     98870   197.74         307.7454       135771.05     -807628.77     -9761.0396      0.3626009      0.057526074    29.988446      40.590054    
     98880   197.76         304.85985      135383.28     -807628.21     -9770.7351      0.36261774     0.057580539    30.007867      40.230556    
     98890   197.78         299.57894      135053.27     -807628.48     -9743.1433      0.36263445     0.057415292    29.999737      39.871065    
     98900   197.8          312.56637      133354.18     -807633        -9660.4658      0.362651       0.056925483    29.988955      39.51158     
     98910   197.82         300.85193      132568.69     -807632.95     -9612.4416      0.36266742     0.05663993     29.988293      39.1521      
     98920   197.84         307.35493      131532.59     -807633.94     -9616.5356      0.36268369     0.056661512    29.986189      38.792626    
     98930   197.86         308.37644      131296.17     -807633.97     -9625.3798      0.36269982     0.0567111      29.992294      38.433156    
     98940   197.88         298.0033       133997.4      -807631.8      -9654.7165      0.36271581     0.05688144     29.987633      38.073692    
     98950   197.9          304.16562      133199.52     -807631.57     -9695.293       0.36273165     0.057118005    29.999923      37.714232    
     98960   197.92         304.99406      136786.15     -807628.76     -9793.7261      0.36274735     0.057695408    30.009474      37.354776    
     98970   197.94         292.51191      135026.58     -807628.64     -9752.6703      0.36276291     0.057451081    30.02112       36.995324    
     98980   197.96         305.7961       136338.16     -807630.14     -9763.6468      0.36277832     0.057513298    30.010115      36.635879    
     98990   197.98         301.97837      131412.6      -807634.11     -9628.9608      0.36279359     0.056717535    30.011204      36.276438    
     99000   198            291.2099       134093.28     -807630.83     -9687.7211      0.36280872     0.057061272    29.999759      35.917005    
     99010   198.02         297.45687      130627.01     -807635.32     -299.40172      0.3628237      0.056429495    30.086765      35.557567    
     99020   198.04         294.59967      133124.36     -807632.46     -301.89511      0.36283855     0.056897106    30.062085      35.198137    
     99030   198.06         293.64997      131109.33     -807633.9      -300.55281      0.36285324     0.056641833    30.064698      34.838712    
     99040   198.08         299.64205      136012.25     -807630.52     -304.77692      0.3628678      0.057435599    30.071719      34.479292    
     99050   198.1          292.51966      133801.76     -807629.75     -304.7894       0.36288221     0.05743567     30.075326      34.119877    
     99060   198.12         296.93843      135907.39     -807629.81     -305.314        0.36289648     0.057532267    30.075231      33.760468    
     99070   198.14         294.65441      133493.72     -807631.99     -302.95507      0.36291061     0.057085536    30.101066      33.401061    
     99080   198.16         301.29323      133933.48     -807632.34     -303.54054      0.36292459     0.057193651    30.102458      33.041659    
     99090   198.18         292.8277       131172.87     -807633.1      -301.75617      0.36293843     0.056855269    30.098927      32.682264    
     99100   198.2          290.4707       132037.8      -807633.52     -300.95434      0.36295213     0.056702053    30.087909      32.322875    
     99110   198.22         294.22833      131689.04     -807634.57     -300.46446      0.36296568     0.056607643    30.05973       31.963494    
     99120   198.24         305.64782      132607.83     -807632.81     -303.83049      0.36297909     0.057239689    30.088971      31.604116    
     99130   198.26         294.00276      134552.73     -807630.33     -304.70638      0.36299236     0.057402603    30.066175      31.244745    
     99140   198.28         297.80038      134667.62     -807631.08     -304.42289      0.36300548     0.057347124    30.05932       30.885381    
     99150   198.3          293.55927      134846.34     -807630.1      -304.77485      0.36301846     0.057411372    30.095397      30.526018    
     99160   198.32         302.11794      133912.67     -807631.57     -304.51608      0.3630313      0.057360599    30.077057      30.166663    
     99170   198.34         289.5791       134506.34     -807630.47     -303.73099      0.36304399     0.057210713    30.069263      29.807313    
     99180   198.36         301.55998      131039.52     -807635.79     -300.02789      0.36305655     0.056511244    30.051567      29.447971    
     99190   198.38         290.06085      132404.82     -807632.99     -301.03599      0.36306895     0.056699186    30.061857      29.088633    
     99200   198.4          296.54425      131563.8      -807633.22     -301.61785      0.36308122     0.056806858    30.031894      28.729304    
     99210   198.42         302.8858       134161.31     -807631.6      -303.72932      0.36309334     0.057202625    30.049466      28.369978    
     99220   198.44         294.60618      133486.28     -807630.96     -302.94606      0.36310532     0.057053227    30.07009       28.010655    
     99230   198.46         298.9421       136441.97     -807628.49     -305.52583      0.36311715     0.057537195    30.086632      27.651337    
     99240   198.48         301.74906      135181.03     -807627.26     -306.60739      0.36312885     0.057739017    30.091039      27.292023    
     99250   198.5          304.70381      135782.16     -807628.44     -305.15023      0.3631404      0.057462783    30.100876      26.932715    
     99260   198.52         306.70472      132346.87     -807632.75     -300.63412      0.3631518      0.056610578    30.091545      26.573412    
     99270   198.54         307.78063      132767.25     -807631.12     -302.0179       0.36316306     0.056869385    30.091039      26.214115    
     99280   198.56         317.9935       131040.72     -807632.64     -301.70587      0.36317418     0.05680889     30.081107      25.854824    
     99290   198.58         301.71761      132978.45     -807629.75     -302.14859      0.36318516     0.056890531    30.100205      25.495537    
     99300   198.6          307.2627       132571.76     -807631.7      -300.88394      0.36319599     0.056650726    30.065739      25.136258    
     99310   198.62         316.47736      135426.6      -807628.97     -304.81225      0.36320668     0.057388662    30.081158      24.776984    
     99320   198.64         309.50313      135659.54     -807625.72     -307.11755      0.36321723     0.057821016    30.064269      24.417716    
     99330   198.66         322.5117       135599.9      -807629.02     -305.5565       0.36322763     0.057525468    30.10549       24.05845     
     99340   198.68         314.38111      133714.2      -807630.97     -302.54374      0.36323789     0.056956665    30.084483      23.699192    
     99350   198.7          306.90684      134226.98     -807629.34     -303.21645      0.36324801     0.057081718    30.076703      23.339939    
     99360   198.72         306.05077      132819.6      -807629.63     -302.94816      0.36325798     0.057029645    30.065702      22.980693    
     99370   198.74         309.82661      131965.1      -807632.09     -301.09349      0.36326781     0.056678973    30.071523      22.621451    
     99380   198.76         303.48973      131607.61     -807632.57     -299.89809      0.3632775      0.05645244     30.071593      22.262215    
     99390   198.78         303.6398       133692.75     -807629.44     -303.23296      0.36328704     0.057078693    30.093487      21.902983    
     99400   198.8          316.41884      134577.43     -807628.82     -305.86609      0.36329644     0.057572847    30.082125      21.543756    
     99410   198.82         313.70679      135405.23     -807629.44     -305.05484      0.3633057      0.057418682    30.063448      21.184537    
     99420   198.84         299.35324      135985.76     -807628.66     -304.07163      0.36331481     0.057232183    30.055976      20.825323    
     99430   198.86         294.13649      133881.42     -807628.51     -303.78883      0.36332378     0.057177543    30.062943      20.466115    
     99440   198.88         311.68024      134290.69     -807629.74     -305.20187      0.36333261     0.057442102    30.023494      20.106914    
     99450   198.9          296.3213       131346.05     -807632.05     -301.0784       0.36334129     0.05666467     30.038277      19.747717    
     99460   198.92         302.0266       133291.3      -807632.83     -301.20164      0.36334983     0.056686532    30.058115      19.388524    
     99470   198.94         293.1147       131803.61     -807632.11     -301.04338      0.36335823     0.056655438    30.084242      19.029336    
     99480   198.96         312.43139      135081.4      -807630.11     -305.86495      0.36336648     0.057561534    30.07973       18.670153    
     99490   198.98         299.85718      133296.3      -807630.47     -304.15979      0.3633746      0.057239358    30.092532      18.310974    
     99500   199            296.11733      136078.3      -807629.5      -304.69964      0.36338256     0.057339694    30.102224      17.951801    
     99510   199.02         294.71176      133221.79     -807629.85     -9742.5681      0.36339039     0.057292471    30.006964      17.592638    
     99520   199.04         298.29962      135344.31     -807628.4      -9809.0421      0.36339807     0.057682162    30.010027      17.23348     
     99530   199.06         298.93625      131709.38     -807632.6      -9683.3696      0.3634056      0.056941962    30.015475      16.874327    
     99540   199.08         294.40449      132492.16     -807633.12     -9646.9966      0.363413       0.05672692     29.987809      16.51518     
     99550   199.1          299.73992      130573.83     -807634.29     -9640.5444      0.36342025     0.056687848    29.966865      16.15604     
     99560   199.12         305.5064       133215.05     -807632.24     -9733.85        0.36342736     0.05723538     29.989084      15.796904    
     99570   199.14         290.57867      133243.81     -807630.98     -9714.4241      0.36343432     0.057120061    30.018911      15.437772    
     99580   199.16         299.80965      134196.91     -807632.23     -9716.8999      0.36344114     0.057133546    29.994336      15.078646    
     99590   199.18         292.82911      135031.2      -807629.57     -9774.2257      0.36344782     0.057469555    30.002777      14.719525    
     99600   199.2          296.53988      133999.86     -807629.51     -9795.6348      0.36345435     0.057594399    30.00465       14.360408    
     99610   199.22         296.31902      133604.54     -807631.6      -9726.3646      0.36346074     0.057186112    30.001532      14.001298    
     99620   199.24         301.63496      130935.83     -807635.53     -9626.3572      0.36346699     0.056597147    30.014374      13.642191    
     99630   199.26         290.55753      133893.59     -807631.77     -9698.9594      0.3634731      0.057023046    30.008285      13.283091    
     99640   199.28         283.60102      132197.8      -807631.52     -9679.5886      0.36347906     0.056908226    30.014186      12.923995    
     99650   199.3          300.05119      133569.27     -807632.39     -9720.4395      0.36348487     0.057147482    30.02423       12.564904    
     99660   199.32         299.65282      132014.56     -807634.24     -9661.5682      0.36349055     0.056800485    30.007147      12.205819    
     99670   199.34         294.51967      135194.42     -807629.21     -9798.7599      0.36349608     0.05760616     30.010512      11.846739    
     99680   199.36         284.90832      134194        -807628        -9794.8442      0.36350147     0.057582287    30.022449      11.487664    
     99690   199.38         304.44393      134425.81     -807632.05     -9747.42        0.36350671     0.05730266     30.02345       11.128594    
     99700   199.4          293.08808      132757.74     -807632.55     -9681.1328      0.36351181     0.056912176    30.012569      10.769529    
     99710   199.42         297.29857      133106.04     -807631.73     -9722.5933      0.36351677     0.057155129    30.008361      10.41047     
     99720   199.44         303.68709      131936.14     -807633.11     -9702.6944      0.36352158     0.057037397    30.022833      10.051415    
     99730   199.46         293.70891      132474.12     -807633.44     -9642.7619      0.36352625     0.056684354    29.988293      9.6923672    
     99740   199.48         299.53752      132553.55     -807633.43     -9666.0354      0.36353078     0.056820458    30.002594      9.3333237    
     99750   199.5          292.01996      133738.51     -807629.82     -9744.7066      0.36353516     0.057282226    29.983639      8.9742859    
     99760   199.52         306.54253      134122.92     -807630.71     -9773.5689      0.3635394      0.057451216    29.990491      8.6152531    
     99770   199.54         291.57058      134078.94     -807629.52     -9736.1916      0.3635435      0.057230859    30.003525      8.256225     
     99780   199.56         300.1199       134670.25     -807630.29     -9741.0781      0.36354745     0.057258961    30.00538       7.8972021    
     99790   199.58         297.88535      134484.89     -807629.95     -9735.3458      0.36355126     0.057224666    29.988249      7.5381847    
     99800   199.6          309.08129      133086.61     -807631.7      -9718.8122      0.36355493     0.057126905    29.978837      7.1791726    
     99810   199.62         305.1786       131571.85     -807632.9      -9653.6454      0.36355845     0.056743306    29.994612      6.8201653    
     99820   199.64         303.0855       132490.68     -807632.09     -9660.9496      0.36356183     0.056785711    30.017382      6.4611627    
     99830   199.66         311.54456      132399.61     -807631.94     -9697.2263      0.36356507     0.056998433    29.998986      6.1021656    
     99840   199.68         297.32817      134525.86     -807628.02     -9753.6686      0.36356816     0.057329703    30.015966      5.7431733    
     99850   199.7          305.57372      134765.98     -807630.57     -9702.014       0.36357111     0.057025626    29.984349      5.3841868    
     99860   199.72         312.28217      134351.75     -807630.39     -9731.6635      0.36357392     0.057199456    30.01043       5.0252049    
     99870   199.74         305.67985      134651.41     -807628.02     -9775.2663      0.36357658     0.057455318    30.008071      4.6662283    
     99880   199.76         299.83305      134603.85     -807628.1      -9744.5115      0.3635791      0.057274156    30.009191      4.3072567    
     99890   199.78         313.56855      132655.31     -807632.56     -9660.4782      0.36358148     0.056779872    30.032134      3.9482901    
     99900   199.8          303.82709      133671.09     -807630.53     -9680.5766      0.36358371     0.056897652    30.015557      3.5893288    
     99910   199.82         304.57422      132813.77     -807629.7      -9711.9055      0.3635858      0.05708146     30.019339      3.2303727    
     99920   199.84         308.80153      134277.64     -807630.21     -9714.1916      0.36358775     0.057094591    29.977977      2.8714221    
     99930   199.86         307.61561      133916.19     -807631.76     -9661.0281      0.36358955     0.056781844    29.989385      2.5124765    
     99940   199.88         317.4527       135070.72     -807630.74     -9738.7683      0.36359121     0.057238494    30.003066      2.1535359    
     99950   199.9          302.00075      134668.13     -807627.28     -9785.2346      0.36359273     0.057511354    30.017451      1.7946003    
     99960   199.92         310.91037      134733.13     -807629.31     -9760.8569      0.3635941      0.057367862    30.021567      1.4356699    
     99970   199.94         314.00509      132538.64     -807632.94     -9662.4747      0.36359533     0.056789444    30.017023      1.0767447    
     99980   199.96         300.98007      134023.9      -807629.58     -9715.2591      0.36359641     0.057099504    29.996447      0.7178247    
     99990   199.98         302.37671      132851.04     -807629.59     -9727.7133      0.36359736     0.057172553    29.987526      0.35890981   
    100000   200            307.02494      132887.82     -807631.6      -9685.1982      0.36359816     0.056922554    30.008159      0            
Loop time of 3589.07 on 32 procs for 100000 steps with 1080 atoms

Performance: 4.815 ns/day, 4.985 hours/ns, 27.862 timesteps/s, 30.091 katom-step/s
63.3% CPU use with 32 MPI tasks x 1 OpenMP threads

MPI task timing breakdown:
Section |  min time  |  avg time  |  max time  |%varavg| %total
---------------------------------------------------------------
Pair    | 2542.7     | 2808.3     | 3034.2     | 223.2 | 78.24
Neigh   | 0.0012513  | 0.0013553  | 0.0015438  |   0.2 |  0.00
Comm    | 480.18     | 706.51     | 972.09     | 445.1 | 19.69
Output  | 2.4444     | 2.4518     | 2.4626     |   0.3 |  0.07
Modify  | 65.112     | 65.711     | 66.148     |   3.6 |  1.83
Other   |            | 6.134      |            |       |  0.17

Nlocal:          33.75 ave          41 max          27 min
Histogram: 2 3 4 2 2 9 3 5 1 1
Nghost:        1029.44 ave        1050 max        1019 min
Histogram: 7 2 9 4 4 2 1 0 1 2
Neighs:              0 ave           0 max           0 min
Histogram: 32 0 0 0 0 0 0 0 0 0
FullNghs:      5384.06 ave        6428 max        4353 min
Histogram: 3 2 4 2 3 8 3 3 2 2

Total # of neighbors = 172290
Ave neighs/atom = 159.52778
Neighbor list builds = 3
Dangerous builds = 0

Total wall time: 1:03:20
