
units		metal
atom_style	atomic

read_data ${STRUCTURE}.data
read_data BaTiO3-sc333.data
Reading data file ...
  orthogonal box = (0 0 0) to (11.898253 11.898253 12.912076)
  2 by 4 by 4 MPI processor grid
  reading atoms ...
  135 atoms
  read_data CPU = 0.012 seconds
replicate $L $L $L
replicate 2 $L $L
replicate 2 2 $L
replicate 2 2 2
Replication is creating a 2x2x2 = 8 times larger system...
  orthogonal box = (0 0 0) to (23.796507 23.796507 25.824152)
  2 by 4 by 4 MPI processor grid
  1080 atoms
  replicate CPU = 0.004 seconds

pair_style allegro
pair_coeff	* * ${MODEL}.pth Ba Ti O
pair_coeff	* * BaTiO3-E0.pth Ba Ti O
mass 1 137.3
mass 2 47.9
mass 3 15.9994

timestep 0.002
compute polarization all allegro polarization 3
compute allegro will evaluate the quantity polarization of length 3 (src/compute_allegro.cpp:53)
compute polarizability all allegro polarizability 9
compute allegro will evaluate the quantity polarizability of length 9 (src/compute_allegro.cpp:53)

thermo_style custom pe fmax fnorm spcpu cpuremain

variable efield equal 1e-2*36.36
fix born all addbornforce 0.0 0.0 ${efield}
fix born all addbornforce 0.0 0.0 0.3636

thermo 10
min_style fire
#minimize 0.0 1e-6 100 100
velocity all create ${TEMP} ${SEED} dist gaussian rot yes mom yes
velocity all create 290 ${SEED} dist gaussian rot yes mom yes
velocity all create 290 21092 dist gaussian rot yes mom yes
fix nvt all nvt temp ${TEMP} ${TEMP} $(100*dt)
fix nvt all nvt temp 290 ${TEMP} $(100*dt)
fix nvt all nvt temp 290 290 $(100*dt)
fix nvt all nvt temp 290 290 0.2000000000000000111
run 5000
Neighbor list info ...
  update: every = 1 steps, delay = 0 steps, check = yes
  max neighbors/atom: 2000, page size: 100000
  master list distance cutoff = 8
  ghost atom cutoff = 8
  binsize = 8, bins = 3 3 4
  1 neighbor lists, perpetual/occasional/extra = 1 0 0
  (1) pair allegro/kk, perpetual
      attributes: full, newton on, kokkos_device
      pair build: full/bin/kk/device
      stencil: full/bin/3d
      bin: kk/device
Per MPI rank memory allocation (min/avg/max) = 3.516 | 3.516 | 3.516 Mbytes
    PotEng          Fmax          Fnorm          S/CPU         CPULeft    
-807708.29      1.5958546      37.041334      0              0            
-807647.47      3.5456855      45.371048      2.4847555      2008.2468    
-807637.86      2.4593715      34.936557      25.974509      1097.9745    
-807607.65      3.4439235      37.708556      25.998794      794.23396    
-807604.41      4.2736152      50.361996      25.944899      642.27052    
-807568.74      3.7303927      40.875596      25.945769      550.93701    
-807603.65      2.8280814      39.235866      26.030074      489.81679    
-807647.39      3.7919427      34.865534      26.01909       446.06109    
-807685.32      2.7263121      34.461813      25.974881      413.18848    
-807667.67      3.6072635      34.990495      25.969614      387.53961    
-807655.54      4.9609503      34.501477      26.011924      366.9128     
-807661.22      3.0942684      27.432072      25.991238      349.98003    
-807629.54      4.5614026      31.209737      26.004866      335.79706    
-807587.86      3.6333831      38.796477      25.986091      323.74734    
-807572.51      3.0401083      36.564166      26.019639      313.3468     
-807635.25      3.040412       31.916499      26.006104      304.28823    
-807656.33      3.3196832      29.12644       25.971885      296.32924    
-807666.73      2.6328814      33.125481      25.979636      289.25804    
-807649.27      4.4910654      43.697271      26.00805       282.9185     
-807682.41      2.7687843      35.681292      25.980042      277.21631    
-807641.59      3.6916989      38.9351        25.959039      272.0533     
-807618.11      3.011286       38.57992       26.001433      267.33102    
-807565.06      4.2023937      44.798456      26.014538      262.99884    
-807608.88      4.060615       49.163736      25.965277      259.02507    
-807614.06      3.5444305      38.864923      25.959312      255.35212    
-807644.93      2.8497542      35.275391      26.016088      251.92622    
-807644.87      4.1386559      45.184996      25.993314      248.74041    
-807683.68      2.9229328      37.638774      25.961374      245.77039    
-807662.62      3.0734172      34.753197      25.927174      242.99356    
-807641.03      3.20725        31.247146      26.021956      240.35882    
-807609.07      3.7297564      32.976936      26.007818      237.87738    
-807609.54      3.6253899      41.569692      25.991238      235.53494    
-807598.55      2.782084       35.052462      25.915437      233.33132    
-807615.34      2.455247       31.155842      26.001891      231.21971    
-807645.97      2.562907       28.533248      26.026028      229.20479    
-807675.64      2.2756618      30.77911       26.002089      227.28776    
-807677.64      2.274348       30.78329       25.952899      225.46526    
-807648.96      3.8799714      35.353933      26.021715      223.7077     
-807649.77      2.7107938      28.981916      26.027935      222.02129    
-807622.84      3.6888823      33.105297      25.997618      220.40696    
-807603.27      3.8259681      41.716135      25.945341      218.86303    
-807577.48      3.6191162      38.925051      26.001575      217.36628    
-807630.05      2.4495462      33.78379       26.012959      215.92065    
-807652.31      3.2397922      33.916106      25.972228      214.53078    
-807675.8       2.6020085      33.791639      25.978953      213.18557    
-807644.84      4.5998997      45.246936      26.005598      211.87904    
-807669.89      2.7896125      34.192413      25.962188      210.61894    
-807643.58      3.4328627      35.619252      25.936012      209.39982    
-807625.3       3.4107369      37.746383      25.986827      208.20834    
-807568.82      3.6922935      42.20899       26.012335      207.0463     
-807608.32      3.4717409      42.592552      25.999483      205.91708    
-807626.25      4.1821216      35.079477      25.992021      204.81804    
-807659.19      2.8698486      31.944467      26.025815      203.74216    
-807645.54      4.0223499      41.341594      26.053931      202.68888    
-807675.95      2.546075       33.326335      26.011097      201.66562    
-807665.32      2.9135782      31.67212       25.965102      200.6711     
-807644.73      3.5557683      29.478983      26.022561      199.6916     
-807602.6       2.9956932      33.134585      26.018537      198.73345    
-807601.88      3.2490891      36.888806      26.074699      197.78877    
-807609.78      3.97979        35.362642      25.990903      196.87236    
-807627.58      3.0066984      28.912057      25.986738      195.97413    
-807642.91      3.4152913      30.519287      26.022514      195.08892    
-807668.49      2.827848       31.084247      26.008017      194.22138    
-807678.3       2.6704251      32.725837      25.953924      193.37473    
-807648.57      4.0662651      35.301875      25.963111      192.54158    
-807638.35      2.7886179      31.216485      25.998836      191.71866    
-807613.26      4.0344758      34.09707       25.99843       190.90907    
-807606.69      3.7295181      43.957665      25.963864      190.11547    
-807585.97      3.6056036      38.823111      25.980806      189.33229    
-807624.12      3.0458763      34.733297      26.034504      188.5557     
-807647.7       3.6242622      36.598173      26.030722      187.79066    
-807676.65      2.9998015      35.379657      25.939024      187.04456    
-807649.16      4.9151921      42.343693      25.961501      186.30648    
-807657.29      2.8842705      33.979146      26.012118      185.5737     
-807639.73      3.8791555      34.519633      26.001641      184.85122    
-807625.02      3.4714652      38.434038      25.997453      184.1381     
-807575.74      3.5197838      39.693131      26.029009      183.43102    
-807600.26      2.8616308      38.649568      26.074091      182.72868    
-807631.35      3.02379        30.868402      26.28455       182.0179     
-807663.04      2.4471219      30.745182      26.270121      181.3166     
-807653.23      4.0372643      35.300838      26.296763      180.62129    
-807664.31      3.4915591      32.874094      26.227659      179.93894    
-807664.93      2.75281        30.172899      26.2541        179.26198    
-807644.94      5.2279534      29.478708      26.270709      178.59093    
-807602.73      3.140884       33.738274      26.336746      177.92208    
-807590.29      5.0829819      37.782003      26.339227      177.25986    
-807611.6       3.8640438      37.257443      26.268111      176.60915    
-807632.71      4.4414243      30.912256      26.297478      175.96264    
-807645.01      3.3735278      32.419294      26.328494      175.32008    
-807659.33      4.0227002      34.377199      26.346947      174.68219    
-807673.46      2.8334276      33.776909      26.282794      174.05427    
-807652.88      4.7622935      33.368734      26.305677      173.4303     
-807632.17      3.1127735      31.354481      26.363339      172.80794    
-807605.7       3.7733655      34.13506       26.35542       172.1913     
-807607.99      3.9278725      41.921178      26.328431      171.58139    
-807599.92      3.2658001      35.305218      26.32663       170.97644    
-807626.39      2.4437654      33.125509      26.350046      170.37476    
-807645.94      3.9565067      35.060163      26.347616      169.7778     
-807674.02      2.7465644      34.356639      26.295918      169.18834    
-807656.61      3.7161759      36.674636      26.253209      168.60561    
-807649.86      2.856263       33.229956      26.316604      168.02325    
-807633.41      3.7764546      33.110264      26.332542      167.44399    
-807623.8       3.6555805      36.414981      26.305291      166.87017    
-807590.61      3.1478369      36.378446      26.258212      166.30275    
-807601.75      3.0609627      36.431337      26.275974      165.73792    
-807631.53      3.1962887      31.227393      26.265885      165.17717    
-807663.74      2.7060411      30.955599      26.324433      164.61666    
-807658.86      3.0247275      33.377569      26.241917      164.06391    
-807656.06      3.3826855      33.598453      26.292939      163.51165    
-807658.4       2.684514       29.793342      26.287195      162.96285    
-807641.83      2.9447521      29.600438      26.267538      162.41813    
-807609.84      2.9145328      33.171403      26.32799       161.87329    
-807589.63      3.8605115      35.832253      26.344107      161.33059    
-807615.2       3.7064876      34.67275       26.303512      160.79279    
-807639.42      3.7337329      30.843932      26.226434      160.26154    
-807653.03      2.6382173      31.455336      26.28733       159.72994    
-807652.72      3.8053292      35.939343      26.31186       159.19977    
-807667.33      2.4912824      33.502177      26.220143      158.67652    
-807652.4       3.9396346      33.722507      26.275969      158.15304    
-807632.14      2.9674552      32.280304      26.322734      157.62981    
-807597.26      3.9878397      36.301574      26.347558      157.10783    
-807605.43      4.3611081      40.081064      26.31688       156.58959    
-807610.3       4.2156623      35.462022      26.20543       156.07863    
-807634.36      2.9620376      32.460283      26.271934      155.56681    
-807642.31      4.449787       36.241991      26.315158      155.05521    
-807668.66      2.5046288      33.394542      26.309617      154.54595    
-807659.14      3.3062023      34.564151      26.242797      154.04162    
-807647.83      2.6750835      31.355255      26.28194       153.53756    
-807621.11      3.0613635      32.916114      26.29487       153.03489    
-807615.77      3.3077665      35.803074      26.297845      152.53399    
-807598.56      3.3455462      37.102368      26.217757      152.03825    
-807605.59      2.6894253      35.708779      26.278197      151.54179    
-807629.92      3.2818328      32.096901      26.272247      151.04733    
-807659.37      3.0011936      32.911889      26.230648      150.55624    
-807664.19      3.1806745      33.638879      26.247891      150.06611    
-807650.5       4.0486965      35.86341       26.259392      149.57714    
-807646.49      4.1742848      32.33383       26.297304      149.08829    
-807634.82      2.7540197      31.776163      26.322057      148.60009    
-807610.58      3.1843114      36.537116      26.330426      148.11313    
-807588.31      3.3552996      37.028474      26.33136       147.62768    
-807613.37      4.078185       34.847142      26.343855      147.14328    
-807640.84      3.3837337      31.747117      26.325236      146.66105    
-807659.24      2.8260275      32.290227      26.322661      146.18036    
-807649.94      3.8016591      36.891881      26.272522      145.70288    
-807658.89      2.8304049      33.210599      26.260519      145.22718    
-807649.67      3.3239938      33.40717       26.30865       144.75108    
-807631.03      2.6815907      33.343448      26.299647      144.27661    
-807594.4       3.4093364      36.601436      26.298932      143.80345    
-807603.01      3.6595325      38.386627      26.259661      143.3329     
-807618.17      3.0299284      34.308989      26.285409      142.86268    
-807643.83      2.3878204      31.210335      26.263934      142.39437    
-807645.18      3.8985848      35.092296      26.31363       141.92557    
-807663.18      2.720674       32.863454      26.272628      141.45929    
-807658.88      3.6843925      33.063588      26.230783      140.9955     
-807648.18      2.9498317      30.614713      26.26909       140.53154    
-807617.2       3.3139944      32.761409      26.327661      140.06677    
-807608.58      3.2811957      35.23724       26.30849       139.6037     
-807607.52      3.2111404      35.38179       26.256936      139.14332    
-807618.42      3.1044275      32.597164      26.275511      138.68336    
-807633.47      3.1280392      32.205996      26.310424      138.22332    
-807657.43      2.7689643      32.422056      26.262508      137.76574    
-807664.85      2.4084916      33.454346      26.246953      137.3096     
-807653.71      4.1270285      33.549347      26.290332      136.85308    
-807639.51      3.0607327      32.346869      26.325638      136.39643    
-807625.5       3.4479636      33.013962      26.306147      135.9413     
-807611.35      3.8033901      37.246449      26.28747       135.48762    
-807599.04      3.0562011      36.389941      26.282635      135.03497    
-807615.73      3.3266669      33.829888      26.30476       134.58255    
-807643.2       3.3211979      31.067184      26.303996      134.131      
-807661.46      3.1875986      32.606134      26.276679      133.68108    
-807654.95      3.2763705      34.462791      26.271264      133.23212    
-807652.81      3.1137127      32.752681      26.312842      132.7828     
-807644.73      2.8979044      31.256882      26.302223      132.33459    
-807629.8       2.9504537      32.77619       26.294031      131.88738    
-807597.12      3.3417489      35.992861      26.264763      131.44174    
-807602.99      2.8524937      35.98784       26.279268      130.99645    
-807623.08      3.8918347      33.010868      26.271322      130.5521     
-807650.03      2.9856205      31.139757      26.267616      130.10858    
-807649.15      4.1726261      35.148404      26.269534      129.6657     
-807656.88      3.202925       33.872787      26.299831      129.22274    
-807656.22      3.9954882      33.282104      26.263983      128.7814     
-807643.22      2.8477069      32.538048      26.273385      128.34049    
-807615.66      2.806236       33.988615      26.319962      127.89906    
-807600.76      3.3117095      36.727124      26.26896       127.45958    
-807608.84      3.7969491      36.329742      26.266334      127.02081    
-807627.22      3.4244726      32.631061      26.237767      126.58337    
-807640.69      3.2199529      31.735305      26.281719      126.14546    
-807650.67      3.407827       33.761146      26.301981      125.70767    
-807661.01      2.5220365      32.714934      26.266165      125.27136    
-807652.17      2.8868551      32.505523      26.294871      124.83495    
-807634.83      2.8133212      31.764446      26.2949        124.39913    
-807613.65      2.8154034      33.643106      26.318095      123.96335    
-807609.98      3.3761007      36.772547      26.27937       123.52905    
-807606.71      3.0569102      36.11441       26.2579        123.0958     
-807622.09      2.957948       33.889824      26.29168       122.66232    
-807639.53      3.1690132      34.091491      26.302286      122.22914    
-807659.71      2.4673484      33.794808      26.284768      121.7969     
-807653.97      3.6704836      35.81585       26.304078      121.36476    
-807647.57      3.0590943      33.555675      26.317959      120.93283    
-807631.95      2.6755263      33.445789      26.323088      120.50132    
-807623.99      3.0550057      34.788267      26.297151      120.07088    
-807602.7       2.8363941      35.954632      26.268686      119.64155    
-807605.86      3.1938569      35.377612      26.28748       119.21231    
-807625.87      3.309681       32.038228      26.300068      118.78328    
-807649.76      2.6367458      32.245419      26.261536      118.35553    
-807653.35      3.9013882      33.628572      26.278251      117.9279     
-807651.74      3.8095674      34.026179      26.337052      117.49951    
-807649.18      2.9473123      32.441767      26.309651      117.07216    
-807637.61      3.0779597      32.962872      26.312431      116.6452     
-807618.4       3.1850514      33.4839        26.257721      116.21979    
-807600.95      3.6015664      36.200069      26.30707       115.79382    
-807613.3       3.3062413      34.590274      26.304692      115.36833    
-807632.84      3.8761144      32.617084      26.30229       114.94331    
-807647.3       2.961026       32.431171      26.329531      114.51819    
-807648.13      3.8258807      35.21273       26.321748      114.09364    
-807657.28      2.9561578      33.695175      26.318927      113.66956    
-807649.1       3.1881071      33.276588      26.297184      113.2463     
-807633.47      3.496326       33.209883      26.303866      112.82331    
-807608.94      3.6563185      34.916214      26.307186      112.40065    
-807610.39      2.9370871      36.008693      26.327647      111.97801    
-807615.85      3.4156086      34.471907      26.30344       111.55619    
-807632.31      2.5529889      32.251301      26.311982      111.1346     
-807641.42      3.7505345      34.111413      26.325416      110.71314    
-807659.43      2.9404971      33.311227      26.314665      110.29224    
-807655.26      2.8343831      33.490205      26.269192      109.87252    
-807645.91      3.7137126      33.072987      26.262398      109.45327    
-807624.89      3.8935083      34.238251      26.277412      109.03409    
-807618.52      3.5925467      35.547412      26.283538      108.61515    
-807606.44      3.6700032      36.368874      26.310067      108.19608    
-807613.32      3.4813423      35.187677      26.318588      107.77722    
-807629.84      2.9192887      32.793421      26.312054      107.3588     
-807650.56      2.7098797      33.131485      26.286071      106.94115    
-807658.28      3.1374677      33.253948      26.248243      106.52445    
-807651.07      3.3180579      33.559783      26.274962      106.10762    
-807643.43      2.978802       32.220878      26.311827      105.69049    
-807631.53      2.5419373      32.986648      26.276664      105.27425    
-807616.62      2.5324676      33.750804      26.268314      104.85845    
-807601.86      2.9341182      35.571706      26.305427      104.44235    
-807615.99      3.5542767      34.168633      26.328727      104.02617    
-807636.14      2.9936493      32.474238      26.296972      103.61081    
-807651         3.8896443      33.005169      26.243553      103.19658    
-807650.2       3.7063475      34.189797      26.258757      102.78238    
-807651.57      3.4888044      34.158051      26.28803       102.36801    
-807645.6       3.0735841      32.89442       26.301281      101.95371    
-807628.45      3.6635238      33.761772      26.299546      101.53972    
-807608.31      4.4549975      34.394273      26.312368      101.12582    
-807606.54      3.5611964      35.866885      26.302996      100.71232    
-807619.49      3.9164775      33.986399      26.260784      100.29973    
-807637.87      3.1764768      32.254712      26.266715      99.887302    
-807645         3.9430114      33.842874      26.295055      99.474716    
-807654.53      2.8780293      33.636735      26.271558      99.062728    
-807653.2       3.5388892      33.238648      26.223385      98.651684    
-807644.25      4.4125922      32.877979      26.23422       98.240721    
-807622.43      3.4393322      33.412461      26.284184      97.829286    
-807611.74      4.2540905      35.49073       26.318042      97.417621    
-807608.66      4.2487311      36.386084      26.294354      97.006533    
-807621.2       3.5414295      34.029586      26.251636      96.596275    
-807631.16      4.1754285      34.263758      26.238176      96.186431    
-807650.03      3.2559878      33.478693      26.234743      95.776855    
-807656.42      3.744439       34.21323       26.256657      95.367204    
-807651.88      3.6843809      33.502404      26.265062      94.957661    
-807636.14      4.0273962      34.345942      26.295494      94.547935    
-807627.31      3.0307894      32.805089      26.321617      94.138092    
-807615.11      3.5096324      34.724208      26.301604      93.728736    
-807607.1       3.473558       36.403425      26.317432      93.319398    
-807618.93      3.3151804      33.915399      26.30794       92.910401    
-807639.44      3.1527727      31.794595      26.324593      92.501411    
-807654.19      2.6729439      32.865162      26.295591      92.093004    
-807653.02      3.3189268      33.960354      26.278458      91.685022    
-807649.21      4.0340746      32.994786      26.315792      91.27678     
-807639.7       2.6428567      32.273966      26.32033       90.868692    
-807630.1       3.3057761      32.585631      26.289372      90.461189    
-807608.54      3.2085685      34.794623      26.249615      90.054369    
-807610.48      3.2165123      33.922414      26.241307      89.647838    
-807624.02      3.6119392      33.599362      26.243923      89.241463    
-807645.01      3.3708952      32.220235      26.256243      88.835124    
-807648.74      3.2799907      32.90844       26.258988      88.428939    
-807652.24      3.2139336      33.227729      26.285767      88.022624    
-807651.16      2.8412834      32.637646      26.294407      87.616396    
-807639.81      2.9291028      32.029912      26.275839      87.210565    
-807621.26      3.1476321      32.610826      26.294267      86.804706    
-807609.51      2.7153915      34.562726      26.30852       86.398868    
-807613.39      3.0459001      34.395447      26.297107      85.993341    
-807627.96      3.3754578      32.618232      26.279987      85.588181    
-807640.34      3.1548116      32.047196      26.30606       85.182909    
-807649.7       3.0794856      33.015025      26.324801      84.777608    
-807654.63      3.3939419      33.575373      26.323693      84.372497    
-807648.85      3.0255475      33.102118      26.287306      83.967953    
-807634.84      3.5148319      32.378569      26.28943       83.563553    
-807619.58      3.0393951      33.617577      26.298822      83.15922     
-807611.01      3.4346568      35.685073      26.290574      82.755141    
-807614.66      3.504876       35.36348       26.293736      82.351191    
-807625.84      4.1692194      33.238027      26.296083      81.947378    
-807641.14      2.8298179      32.882558      26.304334      81.543642    
-807652.78      3.2797721      33.480477      26.269471      81.14042     
-807652.51      3.8140208      33.836509      26.268792      80.737358    
-807644.46      2.7869655      33.612104      26.274374      80.334391    
-807632.67      2.6533619      32.399089      26.294296      79.931378    
-807620.48      2.66591        33.913823      26.283649      79.528621    
-807609.85      3.633314       35.353905      26.253586      79.126307    
-807613.58      2.973568       34.794089      26.223231      78.724429    
-807627.93      3.1486737      32.931525      26.242225      78.322505    
-807646.16      2.9578279      32.738487      26.29602       77.920208    
-807650.99      3.5190967      33.669908      26.273221      77.518271    
-807649.56      2.8550945      34.309536      26.244298      77.116745    
-807642.99      3.0035389      33.413471      26.257158      76.715233    
-807635.01      3.1061631      32.475341      26.233249      76.314077    
-807616.08      3.1465248      34.250353      26.27814       75.912642    
-807609.08      2.9088824      35.723883      26.309211      75.511062    
-807614.42      4.3942999      35.078044      26.275386      75.109924    
-807634.83      3.4454346      32.111358      26.31364       74.708579    
-807643.97      3.7770407      33.546704      26.307892      74.307421    
-807650.86      2.8874628      33.436164      26.313751      73.906348    
-807649.97      3.9366085      34.101408      26.295446      73.505567    
-807644.73      3.3422372      32.695451      26.272368      73.105114    
-807629.07      2.8846447      32.950991      26.28115       72.704713    
-807614.81      2.8251599      33.857666      26.272976      72.304506    
-807610.32      2.7549256      34.670712      26.270724      71.904442    
-807620.78      2.4684049      33.231331      26.282573      71.504401    
-807633.58      2.7991827      32.5049        26.325169      71.104134    
-807644.83      3.0329276      32.921495      26.31617       70.704068    
-807651.5       3.0680616      33.894852      26.305958      70.304209    
-807651.16      3.2993155      34.007893      26.237056      69.905024    
-807641.39      2.986767       33.1546        26.263713      69.505739    
-807626.08      3.5662933      33.421209      26.279514      69.106444    
-807616.28      3.1193431      34.865225      26.266334      68.707367    
-807611.42      3.3015925      35.059636      26.298986      68.308151    
-807621.9       3.5042043      33.604996      26.293635      67.909092    
-807634.31      3.3245816      31.690706      26.294012      67.510144    
-807648.55      2.2803372      31.87793       26.305987      67.111219    
-807652.09      3.8621862      32.689679      26.300764      66.712448    
-807651.07      2.8278343      31.889049      26.279563      66.313944    
-807638.53      3.0739746      32.584332      26.273501      65.915594    
-807629.65      3.11607        32.779675      26.246093      65.517549    
-807615.73      2.5375107      34.115909      26.298817      65.119227    
-807613.99      2.7171488      34.441071      26.293143      64.721053    
-807620.46      2.839231       33.442005      26.315379      64.322829    
-807639.09      3.1901946      32.785517      26.296989      63.924841    
-807647.32      3.9081586      33.285894      26.293841      63.52698     
-807652.55      3.4208384      32.907533      26.307938      63.129125    
-807646.97      3.7839233      33.283671      26.299289      62.731434    
-807641.01      2.9240696      31.948188      26.29655       62.333863    
-807625.53      3.1982383      33.229878      26.294077      61.93641     
-807615.71      2.7702877      34.045048      26.300574      61.539015    
-807613.03      3.3088588      34.219653      26.296545      61.141745    
-807625.88      2.9130192      32.663274      26.288434      60.744627    
-807640.4       3.5899672      31.916489      26.271446      60.347714    
-807648.22      3.3941064      32.908989      26.27241       59.95089     
-807650.49      2.9884181      32.756027      26.264015      59.554211    
-807649.09      2.791053       32.240899      26.268371      59.157597    
-807638.3       2.8029676      32.812304      26.268356      58.761074    
-807624.68      2.9900535      32.763694      26.255529      58.36472     
-807614.11      3.535105       34.564596      26.259906      57.968427    
-807616.16      3.3032887      34.088656      26.289419      57.572044    
-807628.81      2.9988112      32.62081       26.31715       57.175586    
-807638.55      3.2420867      33.231963      26.301636      56.779312    
-807648.87      2.9830409      33.350079      26.260373      56.38337     
-807650.19      3.7639006      34.252225      26.256059      55.987539    
-807647.54      3.3824739      33.300373      26.284564      55.591626    
-807633.77      3.1068346      32.676643      26.280333      55.195824    
-807622.53      2.5717678      33.418693      26.286455      54.800073    
-807613.69      2.6952956      34.250015      26.271841      54.404488    
-807616.7       2.5851717      33.795499      26.270703      54.008992    
-807626.76      2.6555116      32.53365       26.270424      53.613579    
-807640.88      2.7836792      32.779885      26.262844      53.218288    
-807649.15      3.1192479      33.33326       26.294251      52.822909    
-807650.19      2.8320266      33.226581      26.274396      52.427717    
-807641.79      3.3670649      34.002926      26.270578      52.032625    
-807634.71      2.946271       33.12929       26.307696      51.637419    
-807618.42      3.2434649      34.563289      26.299356      51.242337    
-807613.15      3.3868218      35.320249      26.262897      50.847521    
-807614.84      3.6526254      35.386791      26.27146       50.452737    
-807629.46      4.1161623      33.408718      26.287797      50.057949    
-807641.28      3.3672767      32.932786      26.272742      49.663311    
-807650.15      2.6924503      32.776843      26.28536       49.268687    
-807648.09      3.0683747      33.621234      26.278842      48.87417     
-807641.56      3.8310263      32.485574      26.283208      48.479706    
-807632.21      2.6891212      31.81041       26.274531      48.085358    
-807620.47      2.7318622      33.672475      26.272203      47.691094    
-807613.27      2.7450655      34.13238       26.270843      47.296907    
-807617.55      3.2883581      33.900265      26.235006      46.902956    
-807631.08      3.139861       32.80496       26.249897      46.509005    
-807642.06      3.6218625      33.652548      26.275264      46.115008    
-807648         3.899664       33.830953      26.307658      45.720938    
-807645.94      3.5601581      34.549991      26.275201      45.327082    
-807641.43      2.7358755      32.776215      26.223081      44.933522    
-807629.56      2.8140933      33.695879      26.232968      44.539982    
-807620.38      2.7524291      34.358166      26.258201      44.146399    
-807612.66      2.9959764      34.679163      26.285982      43.752765    
-807621.2       3.6534073      34.381121      26.301893      43.359134    
-807633.29      3.0861997      31.812256      26.302385      42.96557     
-807645.15      3.1664553      32.076237      26.282865      42.572153    
-807647.8       4.6610914      33.227437      26.283637      42.178798    
-807648.99      2.9577468      32.414631      26.286219      41.785499    
-807640.88      3.5155614      32.675183      26.275881      41.392306    
-807629.97      3.3304853      32.827845      26.241795      40.999308    
-807616.98      3.9174074      34.594176      26.259034      40.606304    
-807616.56      3.4500942      34.516308      26.247635      40.213405    
-807623.45      3.4458874      33.836037      26.25588       39.820535    
-807635.5       2.7430793      33.22924       26.294778      39.427583    
-807643.85      3.2347639      33.408506      26.305053      39.034656    
-807650.48      3.007556       32.913225      26.307493      38.641785    
-807646.96      3.45858        33.570739      26.273736      38.249096    
-807639.25      2.9844593      32.715915      26.245798      37.856565    
-807627.82      3.8675215      33.399895      26.248097      37.464082    
-807618.71      3.8126615      33.694234      26.279228      37.071551    
-807616.96      3.8330869      34.683757      26.266607      36.679121    
-807627.48      3.9929273      32.342788      26.306217      36.286618    
-807635.94      3.4661716      32.795288      26.30126       35.894191    
-807646.38      3.7196127      32.299951      26.295405      35.501843    
-807649.9       3.661806       32.697392      26.285437      35.109586    
-807645.45      3.7953786      33.078245      26.293073      34.717362    
-807637.02      3.2363964      32.730835      26.285838      34.325218    
-807627.05      2.8665447      32.79257       26.31213       33.933051    
-807618.9       3.1238114      34.160621      26.294246      33.540996    
-807617.65      3.0152437      34.369756      26.303661      33.14897     
-807625.32      2.861455       33.780827      26.326648      32.756933    
-807637.86      3.0120209      33.081571      26.309089      32.365006    
-807645.39      3.2783156      33.658755      26.272607      31.973239    
-807645.29      3.6212112      33.902182      26.233204      31.581635    
-807643.52      2.5860916      32.591036      26.248944      31.190038    
-807634.15      3.3835975      33.518695      26.205016      30.798611    
-807625.85      3.0684357      32.997746      26.193041      30.407262    
-807614.94      3.0158952      33.792819      26.254075      30.015797    
-807616.23      3.533842       34.437443      26.267735      29.624347    
-807627.51      3.0710535      33.534978      26.257277      29.232974    
-807640.32      2.9036289      32.690517      26.257301      28.841651    
-807644.08      3.2252035      33.943431      26.259164      28.450371    
-807645.77      2.6272779      33.635029      26.265344      28.059126    
-807643.91      3.4495534      33.333814      26.248656      27.66797     
-807633.51      2.819371       33.547873      26.218605      27.276932    
-807619.99      3.4698231      34.015076      26.264333      26.885833    
-807614.78      2.6071746      35.696957      26.307706      26.494682    
-807620.64      3.1323003      33.572651      26.315379      26.103566    
-807628.79      2.6812206      33.500976      26.282629      25.712572    
-807638.66      2.6720258      33.101786      26.260286      25.321676    
-807646.36      2.7807472      33.032223      26.263557      24.930819    
-807647.45      4.0487954      33.348374      26.258413      24.540018    
-807640.78      3.1102482      32.759624      26.228182      24.149326    
-807631.02      3.3441171      32.586782      26.230551      23.758671    
-807623.03      2.9287657      32.39851       26.275346      23.367971    
-807616.82      3.4388695      33.935123      26.26773       22.977331    
-807620.77      2.4832972      32.858577      26.280091      22.586713    
-807629.99      2.8248783      32.965333      26.232795      22.196229    
-807641.18      2.9253719      32.571813      26.250552      21.805754    
-807646.86      3.4412939      33.259047      26.212246      21.415391    
-807646.3       3.0619699      32.874162      26.213071      21.025066    
-807639.91      2.7469746      32.789568      26.243662      20.634728    
-807631.58      3.0909887      32.321501      26.293208      20.244348    
-807622.6       2.7362794      33.630896      26.300206      19.854001    
-807618.23      2.6171933      32.810826      26.263856      19.463757    
-807621.82      2.8842981      33.11362       26.24016       19.073594    
-807633.67      2.6767372      31.59347       26.245057      18.683462    
-807642.74      3.0333422      31.803298      26.233531      18.293389    
-807646.36      2.2493254      32.089354      26.231435      17.903357    
-807645.51      3.3315169      32.158207      26.226424      17.513371    
-807639.5       3.0780309      32.741344      26.288849      17.123337    
-807631.44      3.0656493      32.498945      26.296299      16.733334    
-807620.71      2.7895925      34.063862      26.325211      16.343335    
-807619.56      2.6119029      33.906464      26.308721      15.953402    
-807625.04      3.3046412      33.249676      26.272959      15.563557    
-807634.65      2.9916113      32.790337      26.258379      15.173769    
-807641.52      2.7834026      32.750221      26.247842      14.784033    
-807646.78      3.3795649      32.276119      26.228509      14.394357    
-807644.88      2.7193355      31.96768       26.242935      14.004701    
-807638.3       3.2493128      32.279248      26.276359      13.615046    
-807628.77      3.1880096      33.05093       26.261967      13.225444    
-807620.28      3.478691       34.292727      26.201827      12.835943    
-807619.37      3.1587598      34.667398      26.211329      12.446465    
-807626.49      4.9252544      33.312684      26.240632      12.056993    
-807634.84      3.2478334      32.214362      26.277198      11.667523    
-807640.18      3.8028866      32.884071      26.241709      11.278123    
-807647.63      3.5104882      31.975214      26.240218      10.888759    
-807642.05      3.0561903      33.258137      26.232252      10.499437    
-807636.25      2.7097651      32.195797      26.273928      10.110115    
-807625.78      3.8615717      33.873508      26.298752      9.7208119    
-807620.57      3.2469651      34.840404      26.262362      9.3315731    
-807618.54      3.4038773      35.450439      26.237391      8.9423872    
-807625.18      3.1056317      34.183544      26.244138      8.5532305    
-807635.37      3.0511614      33.362981      26.264227      8.164095     
-807641.9       3.678314       33.762534      26.237972      7.7750102    
-807643.98      3.2772264      33.723588      26.226573      7.3859651    
-807641.13      3.8534536      32.632171      26.278268      6.9969242    
-807634.42      2.6363389      32.452793      26.239777      6.6079381    
-807626.35      3.6199276      33.700055      26.208965      6.2189994    
-807618.97      2.997163       34.005949      26.218568      5.8300868    
-807618.16      3.9862222      35.402306      26.270922      5.4411832    
-807627.45      3.0513429      34.141511      26.292587      5.0523051    
-807635.75      3.5716724      34.127685      26.293707      4.6634617    
-807641.03      3.202211       33.710003      26.293504      4.2746532    
-807643.33      4.0116785      34.433769      26.279664      3.8858834    
-807641.47      3.0716681      33.459265      26.249788      3.4971552    
-807633.11      3.0584807      33.602731      26.288011      3.1084495    
-807623.93      3.0408807      34.078579      26.289005      2.7197773    
-807619.64      2.8320633      33.906047      26.261978      2.3311434    
-807621.64      3.1631777      33.820917      26.278458      1.9425389    
-807629.24      2.7619456      33.114736      26.294272      1.553965     
-807637.32      3.0897893      32.475621      26.277151      1.1654259    
-807643.1       3.3310705      33.601572      26.276968      0.7769188    
-807644.89      2.746845       33.384776      26.250062      0.38844435   
-807639.09      4.0984357      33.761961      26.225613      0            
Loop time of 194.215 on 32 procs for 5000 steps with 1080 atoms

Performance: 4.449 ns/day, 5.395 hours/ns, 25.745 timesteps/s, 27.804 katom-step/s
66.5% CPU use with 32 MPI tasks x 1 OpenMP threads

MPI task timing breakdown:
Section |  min time  |  avg time  |  max time  |%varavg| %total
---------------------------------------------------------------
Pair    | 104.62     | 145.38     | 190.1      | 309.4 | 74.86
Neigh   | 0          | 0          | 0          |   0.0 |  0.00
Comm    | 1.8591     | 46.542     | 87.279     | 546.8 | 23.96
Output  | 0.026137   | 0.026862   | 0.027758   |   0.2 |  0.01
Modify  | 1.9103     | 1.9459     | 1.984      |   2.0 |  1.00
Other   |            | 0.3156     |            |       |  0.16

Nlocal:          33.75 ave          48 max          21 min
Histogram: 8 8 0 0 0 0 0 8 0 8
Nghost:        1106.25 ave        1119 max        1092 min
Histogram: 8 0 8 0 0 0 0 0 8 8
Neighs:              0 ave           0 max           0 min
Histogram: 32 0 0 0 0 0 0 0 0 0
FullNghs:       5494.5 ave        7896 max        3378 min
Histogram: 8 8 0 0 0 0 0 8 0 8

Total # of neighbors = 175824
Ave neighs/atom = 162.8
Neighbor list builds = 0
Dangerous builds = 0

reset_timestep 0


variable interval equal 1000
thermo 10

variable nintervals equal $(v_PERIOD/v_interval)
variable nintervals equal 100
variable efield equal 1e-2*36.36*cos((step/${PERIOD})*2*3.14)
variable efield equal 1e-2*36.36*cos((step/100000)*2*3.14)
fix born all addbornforce 0.0 0.0 v_efield

variable Px equal f_born[1]+c_polarization[1]
variable Py equal f_born[2]+c_polarization[2]
variable Pz equal (f_born[3]+c_polarization[3])/vol
variable pe equal pe

fix aveP all ave/time 1 $(v_interval/2) ${interval} v_efield v_Pz v_pe f_born file Pz.${MODEL}.${STRUCTURE}.${TEMP}.$L.${ITER}
fix aveP all ave/time 1 500 ${interval} v_efield v_Pz v_pe f_born file Pz.${MODEL}.${STRUCTURE}.${TEMP}.$L.${ITER}
fix aveP all ave/time 1 500 1000 v_efield v_Pz v_pe f_born file Pz.${MODEL}.${STRUCTURE}.${TEMP}.$L.${ITER}
fix aveP all ave/time 1 500 1000 v_efield v_Pz v_pe f_born file Pz.BaTiO3-E0.${STRUCTURE}.${TEMP}.$L.${ITER}
fix aveP all ave/time 1 500 1000 v_efield v_Pz v_pe f_born file Pz.BaTiO3-E0.BaTiO3-sc333.${TEMP}.$L.${ITER}
fix aveP all ave/time 1 500 1000 v_efield v_Pz v_pe f_born file Pz.BaTiO3-E0.BaTiO3-sc333.290.$L.${ITER}
fix aveP all ave/time 1 500 1000 v_efield v_Pz v_pe f_born file Pz.BaTiO3-E0.BaTiO3-sc333.290.2.${ITER}
fix aveP all ave/time 1 500 1000 v_efield v_Pz v_pe f_born file Pz.BaTiO3-E0.BaTiO3-sc333.290.2.6

thermo_style custom step time temp press pe f_born v_efield v_Pz spcpu cpuremain

# dump 4a all custom 1000 dump.hyst.${MODEL}.${STRUCTURE}.${TEMP}.$L.${ITER}.bin id type xu yu zu fx fy fz
# dump_modify 4a sort id

fix nvt all nvt temp ${TEMP} ${TEMP} $(100*dt)
fix nvt all nvt temp 290 ${TEMP} $(100*dt)
fix nvt all nvt temp 290 290 $(100*dt)
fix nvt all nvt temp 290 290 0.2000000000000000111

run $(v_PERIOD)
run 100000
WARNING: non-constant efield is experimental, strongly distrust scalar/vector output (src/fix_addbornforce.cpp:193)
Per MPI rank memory allocation (min/avg/max) = 3.516 | 3.516 | 3.516 Mbytes
   Step          Time           Temp          Press          PotEng         f_born        v_efield         v_Pz          S/CPU         CPULeft    
         0   0              276.90973      127622.84     -807639.09     -295.39784      0.3636         0.055555998    0              0            
        10   0.02           296.95062      133295.59     -807632.64     -304.73774      0.36359993     0.057312582    29.726138      3363.7253    
        20   0.04           293.08663      139735.98     -807624.58     -312.27488      0.36359971     0.058730139    29.712764      3364.1363    
        30   0.06           290.65721      143405.69     -807620.47     -316.06395      0.36359935     0.059442816    29.731205      3363.355     
        40   0.08           292.08493      140987.95     -807622.95     -313.80903      0.36359885     0.059018809    29.709953      3363.395     
        50   0.1            289.93357      136082.61     -807628.8      -307.6584       0.36359821     0.057862149    29.754486      3362.2792    
        60   0.12           292.62442      128397.79     -807638.39     -298.47914      0.36359742     0.056135902    29.748002      3361.5439    
        70   0.14           281.93254      125370.29     -807642.49     -292.8009       0.36359649     0.055068119    29.803563      3360.0286    
        80   0.16           276.87943      124248        -807642.88     -291.81106      0.36359541     0.054882119    29.81795       3358.6064    
        90   0.18           280.78882      128395.6      -807637.83     -297.44399      0.36359419     0.055941715    29.784555      3357.8424    
       100   0.2            303.66589      134704.82     -807632.36     -306.17255      0.36359283     0.057583554    29.797801      3357.0158    
       110   0.22           278.31075      141208.26     -807621.58     -313.44888      0.36359132     0.058952297    29.781427      3356.4452    
       120   0.24           280.64274      143996.14     -807619.29     -316.07719      0.36358968     0.059446889    29.761011      3356.1062    
       130   0.26           297.49312      139202.91     -807625.82     -311.90065      0.36358788     0.058661666    29.781767      3355.587     
       140   0.28           294.61157      134906.52     -807630.94     -306.39522      0.36358595     0.057626522    29.837549      3354.6466    
       150   0.3            286.24966      127263.89     -807638.82     -297.42915      0.36358387     0.055940512    29.820459      3353.9148    
       160   0.32           280.58381      124976.89     -807642.94     -292.40712      0.36358165     0.054996305    29.794763      3353.413     
       170   0.34           285.21281      122919.91     -807645.74     -290.36759      0.36357928     0.054613062    29.812574      3352.813     
       180   0.36           290.154        129620.98     -807637.86     -299.04145      0.36357677     0.056244852    29.830102      3352.1334    
       190   0.38           291.63879      134069.49     -807630.24     -307.08435      0.36357412     0.057758013    29.780609      3351.7821    
       200   0.4            286.89484      141995.75     -807622.87     -313.72987      0.36357132     0.059008391    29.711384      3351.8231    
       210   0.42           278.58168      141655.73     -807621.57     -314.09699      0.36356838     0.059077918    29.700648      3351.886     
       220   0.44           285.48416      141250.01     -807623.76     -312.89033      0.3635653      0.058851459    29.747396      3351.6724    
       230   0.46           292.99737      132836.8      -807632.55     -305.23277      0.36356207     0.057411661    29.729824      3351.5345    
       240   0.48           293.31006      128083.81     -807640.88     -296.90931      0.3635587      0.055846607    29.792482      3351.0859    
       250   0.5            281.64025      123023.63     -807645.55     -290.6964       0.36355519     0.054678529    29.749825      3350.8385    
       260   0.52           274.63546      126363.09     -807641.51     -293.80848      0.36355153     0.055264451    29.714313      3350.7382    
       270   0.54           292.68431      128094.96     -807638.56     -299.49342      0.36354773     0.05633436     29.734442      3350.5364    
       280   0.56           297.36922      136722.07     -807630.36     -308.30848      0.36354379     0.057993091    29.754555      3350.244     
       290   0.58           281.69184      140095.14     -807624.7      -311.93353      0.3635397      0.058675626    29.738975      3350.0091    
       300   0.6            283.52548      142960.54     -807621.13     -315.72881      0.36353547     0.05939022     29.766413      3349.6646    
       310   0.62           291.45354      138190.27     -807627.18     -310.88426      0.3635311      0.058479639    29.808409      3349.1682    
       320   0.64           287.78675      133477.14     -807633.65     -303.85687      0.36352658     0.057158446    29.829169      3348.6092    
       330   0.66           280.09496      126005.68     -807641.28     -295.17675      0.36352192     0.055526341    29.829654      3348.0621    
       340   0.68           278.973        125013.67     -807644.26     -291.92267      0.36351712     0.054914936    29.789884      3347.6587    
       350   0.7            272.50826      125488.27     -807641.35     -293.97853      0.36351217     0.055302424    29.775685      3347.3048    
       360   0.72           289.63602      130102.8      -807637.34     -300.3243       0.36350708     0.056496964    29.786439      3346.9183    
       370   0.74           287.05723      136332.84     -807628.9      -308.38262      0.36350185     0.05801373     29.7775        3346.5615    
       380   0.76           284.67379      141690.29     -807622.27     -314.58673      0.36349647     0.059181739    29.797739      3346.1462    
       390   0.78           278.83183      142563.43     -807620.36     -315.60439      0.36349095     0.059374088    29.775438      3345.7991    
       400   0.8            296.93255      137586.14     -807628.47     -309.9142       0.36348529     0.058304511    29.757659      3345.5026    
       410   0.82           285.50254      132589.69     -807634.46     -302.12908      0.36347948     0.056840795    29.782517      3345.136     
       420   0.84           284.23402      125947.86     -807641.75     -294.56654      0.36347353     0.055418931    29.73367       3344.9017    
       430   0.86           278.23541      124957.73     -807642.97     -292.30457      0.36346744     0.054994292    29.724806      3344.6858    
       440   0.88           286.3758       125519.47     -807642.72     -293.51024      0.3634612      0.055222075    29.713517      3344.4934    
       450   0.9            295.74779      132653.67     -807635.6      -301.76661      0.36345482     0.056776455    29.777246      3344.1352    
       460   0.92           286.36085      137542.73     -807626.77     -309.17542      0.3634483      0.058171443    29.740859      3343.8669    
       470   0.94           293.7999       142791.22     -807621.52     -315.12129      0.36344163     0.059291249    29.770107      3343.5258    
       480   0.96           291.67947      140695.95     -807623.45     -312.73218      0.36343482     0.058842832    29.737986      3343.2601    
       490   0.98           296.33451      137959.39     -807627.29     -309.23421      0.36342786     0.058185776    29.755297      3342.9518    
       500   1              299.94768      130356.99     -807635.58     -301.26017      0.36342077     0.05668648     29.755018      3342.6431    
       510   1.02           295.04898      126148.65     -807640.9      -9440.3282      0.36341353     0.055511574    29.648465      3342.5688    
       520   1.04           290.86679      124533.87     -807643.14     -9343.3897      0.36340614     0.054942667    29.61255       3342.5627    
       530   1.06           282.9565       127368.28     -807638.31     -9459.3225      0.36339862     0.055625548    29.681715      3342.3965    
       540   1.08           297.98367      132440.9      -807632.76     -9701.4656      0.36339095     0.057050675    29.714862      3342.1546    
       550   1.1            300.34094      138552.78     -807625.69     -9935.7887      0.36338313     0.058429897    29.733565      3341.871     
       560   1.12           295.85775      142230.34     -807621.28     -10054.083      0.36337518     0.05912685     29.674948      3341.7035    
       570   1.14           292.42158      140870.95     -807622.38     -10000.746      0.36336707     0.058814496    29.533007      3341.8127    
       580   1.16           295.37354      137975.48     -807626.51     -9880.4271      0.36335883     0.058108215    29.622923      3341.7302    
       590   1.18           308.56696      129007.18     -807637.47     -9586.8336      0.36335044     0.056382851    29.6394        3341.6075    
       600   1.2            292.21351      126798.86     -807639.9      -9431.6617      0.36334191     0.055471544    29.586557      3341.5773    
       610   1.22           279.17852      124671.01     -807641.5      -9325.2615      0.36333324     0.054847069    29.553781      3341.5982    
       620   1.24           286.58758      130249.04     -807636.52     -9515.3684      0.36332442     0.055966552    29.606507      3341.5109    
       630   1.26           299.36199      132221.64     -807632.96     -9691.4552      0.36331546     0.057003648    29.639547      3341.3562    
       640   1.28           290.9036       141134.11     -807623.42     -9957.6923      0.36330636     0.058571081    29.636105      3341.202     
       650   1.3            296.15704      140018.65     -807623.15     -9993.9737      0.36329711     0.058785984    29.675588      3340.9735    
       660   1.32           290.18713      141761.08     -807621.64     -10014.56       0.36328772     0.058908596    29.697081      3340.705     
       670   1.34           298.72197      134815.69     -807630.27     -9781.7237      0.36327819     0.057540496    29.626907      3340.5526    
       680   1.36           303.70931      130597.74     -807636.33     -9610.2849      0.36326851     0.056533522    29.586508      3340.4623    
       690   1.38           295.29065      125122.48     -807641.71     -9406.5486      0.36325869     0.055336518    29.673368      3340.2222    
       700   1.4            282.45791      127595.84     -807640.32     -9397.8553      0.36324873     0.055286894    29.657652      3340.0047    
       710   1.42           286.18806      128652.81     -807637.63     -9510.6056      0.36323863     0.055951752    29.678393      3339.751     
       720   1.44           297.03682      135330.32     -807631.69     -9755.6508      0.36322838     0.057394994    29.614419      3339.5953    
       730   1.46           292.70929      138634.32     -807626.03     -9929.5565      0.36321798     0.058419798    29.642069      3339.3917    
       740   1.48           290.9055       141666.94     -807623.31     -10015.965      0.36320745     0.058929885    29.697611      3339.1       
       750   1.5            288.96597      138961.71     -807625.22     -9957.861       0.36319677     0.058589747    29.720363      3338.7728    
       760   1.52           295.06904      134384.46     -807631.71     -9789.2771      0.36318595     0.057599555    29.75312       3338.3971    
       770   1.54           287.70005      129214.72     -807638.21     -9557.3677      0.36317498     0.056236711    29.724596      3338.064     
       780   1.56           278.84184      125053.94     -807642.03     -9403.3118      0.36316387     0.05533192     29.711205      3337.7501    
       790   1.58           268.35915      126495.05     -807640.37     -9415.8993      0.36315262     0.055407706    29.733855      3337.4034    
       800   1.6            282.48288      128552.52     -807638.16     -9555.3299      0.36314122     0.056229947    29.748027      3337.0371    
       810   1.62           282.84543      134654.43     -807630.91     -9792.9138      0.36312968     0.057629881    29.725787      3336.7023    
       820   1.64           282.88496      138989.62     -807626.06     -9951.772       0.363118       0.058566622    29.708006      3336.3919    
       830   1.66           282.0637       141579.59     -807623.16     -10043.355      0.36310618     0.059107517    29.655514      3336.152     
       840   1.68           284.4377       137776.24     -807627.41     -9917.9657      0.36309421     0.058371495    29.588526      3336         
       850   1.7            288.51857      133351.7      -807634.11     -9719.1499      0.3630821      0.057203287    29.582963      3335.8509    
       860   1.72           283.44819      126962.56     -807640.15     -9502.8857      0.36306984     0.055932324    29.543518      3335.7495    
       870   1.74           275.57369      125779.31     -807641        -9437.0288      0.36305745     0.055546599    29.596232      3335.5739    
       880   1.76           270.12985      125728.41     -807641.02     -9411.7442      0.3630449      0.055399687    29.665462      3335.3059    
       890   1.78           285.6136       129927.55     -807637.95     -9575.8459      0.36303222     0.056367596    29.716354      3334.972     
       900   1.8            289.07413      134573.7      -807630.88     -9816.6422      0.36301939     0.05778707     29.704665      3334.6526    
       910   1.82           279.9508       141418.86     -807623.19     -10020.169      0.36300642     0.058987266    29.676627      3334.3675    
       920   1.84           290.06204      139298.87     -807625.31     -9993.0209      0.36299331     0.058829576    29.627311      3334.1416    
       930   1.86           282.85024      137931.31     -807627.96     -9871.8727      0.36298005     0.058118491    29.725781      3333.7943    
       940   1.88           285.61401      131547.15     -807634.38     -9676.4747      0.36296665     0.056970231    29.666931      3333.5175    
       950   1.9            273.71823      128872.72     -807636.52     -9547.2218      0.36295311     0.056211352    29.633394      3333.2792    
       960   1.92           276.79303      124501.35     -807642.57     -9362.992       0.36293942     0.055128738    29.627299      3333.0461    
       970   1.94           279.82587      127838.62     -807641.03     -9418.3156      0.36292559     0.055456593    29.674247      3332.7562    
       980   1.96           288.21291      130102.73     -807636.29     -9605.2993      0.36291162     0.056559761    29.670072      3332.4701    
       990   1.98           291.61737      137026.92     -807628.33     -9870.6984      0.3628975      0.058124796    29.691982      3332.1582    
      1000   2              282.17954      140123.79     -807623.9      -9964.406       0.36288325     0.05867891     29.493161      3332.0706    
      1010   2.02           298.02453      140093.32     -807626.37     -310.86675      0.36286884     0.058583068    29.716656      3331.728     
      1020   2.04           290.76822      136599.61     -807627.83     -308.27462      0.3628543      0.058096908    29.774565      3331.322     
      1030   2.06           291.81811      132992.74     -807632.46     -303.60945      0.36283961     0.057220034    29.742873      3330.9518    
      1040   2.08           296.64042      128052.78     -807640.8      -295.70172      0.36282478     0.055731975    29.727571      3330.5988    
      1050   2.1            285.01745      125918.3      -807642.45     -292.22564      0.3628098      0.055079098    29.717236      3330.257     
      1060   2.12           283.77482      128333.03     -807638.1      -296.28583      0.36279469     0.055846695    29.689002      3329.9452    
      1070   2.14           295.73972      131311.27     -807634.01     -301.99163      0.36277943     0.056924572    29.75338       3329.5656    
      1080   2.16           294.16262      137140.68     -807628.27     -307.36461      0.36276402     0.057939823    29.774912      3329.1645    
      1090   2.18           285.00104      140597.5      -807624.39     -309.8979       0.36274848     0.058419865    29.736856      3328.8036    
      1100   2.2            295.39704      140789.55     -807623.59     -312.04743      0.36273279     0.058827625    29.708702      3328.4718    
      1110   2.22           295.9699       136875.86     -807627.66     -307.97718      0.36271695     0.058062831    29.696108      3328.1527    
      1120   2.24           293.83957      131388.78     -807634.57     -300.62253      0.36270098     0.056678757    29.722905      3327.8064    
      1130   2.26           293.71787      127138.45     -807641.41     -293.66014      0.36268486     0.055368543    29.708801      3327.4743    
      1140   2.28           276.84635      127074.35     -807637.79     -294.85042      0.3626686      0.055595459    29.733985      3327.1173    
      1150   2.3            292.08637      128957.86     -807637.08     -297.74955      0.36265219     0.056144643    29.807385      3326.6896    
      1160   2.32           295.45476      133862.85     -807634.13     -301.09162      0.36263564     0.056777425    29.761253      3326.3077    
      1170   2.34           295.05109      137486.59     -807627.74     -307.40504      0.36261895     0.057970628    29.784933      3325.9041    
      1180   2.36           289.41213      140868.9      -807622.1      -312.244        0.36260212     0.058885896    29.784326      3325.5022    
      1190   2.38           296.17342      138996.21     -807624.54     -310.76103      0.36258514     0.058608966    29.794738      3325.0917    
      1200   2.4            308.88611      135599.93     -807631.85     -305.13334      0.36256802     0.057550313    29.812841      3324.6656    
      1210   2.42           293.07415      129990.52     -807636.61     -298.26118      0.36255076     0.056256852    29.785144      3324.2665    
      1220   2.44           286.9696       128395.93     -807637.64     -296.27069      0.36253335     0.055884098    29.74118       3323.9086    
      1230   2.46           284.5236       125263.84     -807639.93     -293.83591      0.3625158      0.05542752     29.819795      3323.4799    
      1240   2.48           289.07281      130074.88     -807637.16     -297.1847       0.36249811     0.056061952    29.79689       3323.0732    
      1250   2.5            289.39404      132760.03     -807632.87     -301.67928      0.36248028     0.056912625    29.771098      3322.6906    
      1260   2.52           306.84942      139048.21     -807626.57     -310.4291       0.3624623      0.058566208    29.688165      3322.3823    
      1270   2.54           299.31808      139538.2      -807624.97     -311.17077      0.36244418     0.058709067    29.684786      3322.0766    
      1280   2.56           295.04518      140086.49     -807626.69     -308.88723      0.36242592     0.058281166    29.723652      3321.7363    
      1290   2.58           298.01299      133130.58     -807633        -303.26332      0.36240751     0.057222946    29.760244      3321.3645    
      1300   2.6            292.35188      130873.59     -807635.75     -299.92145      0.36238896     0.056595263    29.776695      3320.9791    
      1310   2.62           273.47037      127317.87     -807639.13     -294.24751      0.36237027     0.055527453    29.709596      3320.6517    
      1320   2.64           275.27134      127445.59     -807640.69     -293.2575       0.36235143     0.055343505    29.713647      3320.3207    
      1330   2.66           286.66845      129707.34     -807638.94     -296.95612      0.36233245     0.056044443    29.759663      3319.9509    
      1340   2.68           292.37753      134013.06     -807631.95     -305.17389      0.36231333     0.057598421    29.731836      3319.6049    
      1350   2.7            289.2626       139103.68     -807627.16     -309.83994      0.36229407     0.0584822      29.721017      3319.2679    
      1360   2.72           285.33908      138698.43     -807627.3      -309.4261       0.36227466     0.058407215    29.738542      3318.9165    
      1370   2.74           287.32169      138161.29     -807629.11     -308.10605      0.36225511     0.058161182    29.815666      3318.5028    
      1380   2.76           286.50216      132428.21     -807633.78     -303.61295      0.36223542     0.057316136    29.769111      3318.1276    
      1390   2.78           270.82442      130228.18     -807635.5      -299.72562      0.36221558     0.056585382    29.758228      3317.7618    
      1400   2.8            281.15981      125272.61     -807644.35     -292.40627      0.3621956      0.055206602    29.798874      3317.3641    
      1410   2.82           269.27908      128049.89     -807639.86     -295.2103       0.36217548     0.055739103    29.722436      3317.0276    
      1420   2.84           282.69867      129051.7      -807637.75     -299.30913      0.36215522     0.056516171    29.677765      3316.7263    
      1430   2.86           285.14358      135324.88     -807631.4      -305.96651      0.36213481     0.057776488    29.678294      3316.4241    
      1440   2.88           276.75717      137253.9      -807628.71     -307.4846       0.36211426     0.058066448    29.696785      3316.107     
      1450   2.9            274.2815       140524.31     -807626.08     -309.64795      0.36209357     0.058478324    29.74472       3315.7527    
      1460   2.92           280.54246      136676.59     -807628.27     -308.29956      0.36207273     0.058227024    29.745833      3315.3979    
      1470   2.94           285.43978      133603.26     -807633.15     -303.88939      0.36205176     0.057397423    29.718001      3315.0645    
      1480   2.96           281.97793      127947.25     -807640.88     -295.53564      0.36203064     0.055822857    29.661578      3314.7735    
      1490   2.98           275.87489      126992.76     -807641.19     -294.15849      0.36200937     0.055565995    29.727299      3314.4328    
      1500   3              269.41797      127856.03     -807638.36     -296.00063      0.36198796     0.055917277    29.784747      3314.0494    
      1510   3.02           291.82595      131133.67     -807636.11     -9637.6291      0.36196642     0.056898324    29.685457      3313.7399    
      1520   3.04           286.60852      134783.07     -807632.65     -9719.7356      0.36194472     0.0573865      29.662727      3313.4468    
      1530   3.06           289.02958      138244.78     -807628.06     -9869.5551      0.36192289     0.058274568    29.637516      3313.1715    
      1540   3.08           282.91699      138966.92     -807625.22     -9928.2998      0.36190091     0.058624985    29.707235      3312.8449    
      1550   3.1            289.28735      136784.53     -807629.54     -9811.5166      0.36187879     0.057938941    29.718235      3312.5102    
      1560   3.12           295.48685      131341.17     -807636.31     -9614.3587      0.36185653     0.056778178    29.689833      3312.1958    
      1570   3.14           282.24843      128422.2      -807639.86     -9434.2032      0.36183412     0.055717708    29.589981      3311.9523    
      1580   3.16           270.53628      127505.95     -807637.92     -9439.8225      0.36181157     0.05575437     29.563856      3311.7263    
      1590   3.18           281.64953      127436.26     -807638.95     -9450.6414      0.36178888     0.05582177     29.607884      3311.4677    
      1600   3.2            300.90463      131890.14     -807637.43     -9578.1227      0.36176605     0.05657833     29.690591      3311.1503    
      1610   3.22           282.20074      135499.24     -807629.02     -9760.1346      0.36174307     0.057657144    29.689741      3310.8332    
      1620   3.24           295.70989      139997.37     -807624.84     -9948.2977      0.36171995     0.058772457    29.655502      3310.5395    
      1630   3.26           295.58527      138348.16     -807626.93     -9879.2142      0.36169669     0.058368079    29.706415      3310.2104    
      1640   3.28           298.95666      136489.35     -807631.23     -9748.6212      0.36167329     0.057600241    29.721523      3309.8709    
      1650   3.3            282.2535       130954.53     -807634.78     -9558.6543      0.36164974     0.056481489    29.67739       3309.5612    
      1660   3.32           283.62767      129203.06     -807636.75     -9496.3417      0.36162605     0.056116964    29.634075      3309.2805    
      1670   3.34           288.62985      125995.94     -807641.22     -9372.9998      0.36160222     0.055391747    29.632517      3309.0001    
      1680   3.36           286.56978      129870.84     -807637.8      -9468.6031      0.36157824     0.055960445    29.637436      3308.7157    
      1690   3.38           291.28862      132230.93     -807634.11     -9608.1141      0.36155413     0.056788758    29.700136      3308.3893    
      1700   3.4            289.59381      137871.56     -807625.93     -9858.2832      0.36152987     0.058271292    29.720357      3308.0495    
      1710   3.42           297.09323      137786.07     -807626.65     -9868.6317      0.36150546     0.058336399    29.726595      3307.7057    
      1720   3.44           297.31266      139238.28     -807627.26     -9843.4849      0.36148092     0.058191699    29.712315      3307.3712    
      1730   3.46           291.77923      134740.41     -807630.6      -9713.9674      0.36145623     0.057429954    29.689649      3307.0512    
      1740   3.48           297.73145      131643.44     -807634.56     -9608.897       0.3614314      0.05681267     29.6479        3306.7579    
      1750   3.5            290.79821      126374.44     -807639.81     -9408.5934      0.36140643     0.055632217    29.567849      3306.5154    
      1760   3.52           297.53588      126812.43     -807642.14     -9362.2409      0.36138131     0.055361986    29.605852      3306.2475    
      1770   3.54           286.76334      129558.6      -807636.36     -9499.8431      0.36135605     0.0561796      29.614535      3305.9733    
      1780   3.56           290.23901      133959.13     -807631        -9687.6152      0.36133065     0.057294062    29.642492      3305.6809    
      1790   3.58           288.02629      137490.98     -807626.83     -9809.7909      0.36130511     0.05802073     29.744869      3305.3242    
      1800   3.6            296.80609      138775.83     -807626.61     -9855.8676      0.36127942     0.058297398    29.749405      3304.965     
      1810   3.62           295.3383       138295.71     -807626.54     -9850.2437      0.3612536      0.058268298    29.722566      3304.6225    
      1820   3.64           291.87674      134467.22     -807629.97     -9725.7846      0.36122763     0.057536207    29.678473      3304.307     
      1830   3.66           288.93228      131116.51     -807635.41     -9536.1156      0.36120151     0.056418233    29.632726      3304.0192    
      1840   3.68           302.66041      126374.89     -807642.78     -9361.0949      0.36117526     0.05538679     29.6729        3303.7064    
      1850   3.7            284.03655      128459.43     -807638.01     -9429.972       0.36114886     0.055798393    29.660889      3303.4007    
      1860   3.72           291.59026      128719.07     -807636.97     -9502.0275      0.36112232     0.056228887    29.654341      3303.0985    
      1870   3.74           280.67348      134932.12     -807629.68     -9685.7052      0.36109564     0.057320048    29.721807      3302.7558    
      1880   3.76           299.12793      135902.9      -807629.75     -9770.0327      0.36106881     0.057823394    29.732521      3302.4069    
      1890   3.78           296.41389      140085.57     -807625.17     -9905.5099      0.36104184     0.058629587    29.692487      3302.0816    
      1900   3.8            286.28416      137159.66     -807626.74     -9816.419       0.36101474     0.058106632    29.609127      3301.8052    
      1910   3.82           290.78775      134679.76     -807631.41     -9687.7717      0.36098748     0.057349455    29.589021      3301.5398    
      1920   3.84           291.11831      127713.2      -807638.52     -9468.0158      0.36096009     0.056052802    29.62573       3301.2524    
      1930   3.86           293.47106      128151.12     -807640.16     -9430.3907      0.36093255     0.055834313    29.600282      3300.9792    
      1940   3.88           284.77248      125740.73     -807639.7      -9415.8358      0.36090487     0.055752413    29.638559      3300.6832    
      1950   3.9            289.9413       130429.22     -807636.72     -9539.5963      0.36087705     0.05648957     29.671419      3300.3681    
      1960   3.92           285.53616      133353.7      -807632.87     -9655.6503      0.36084909     0.057181225    29.712031      3300.0296    
      1970   3.94           294.8813       138033.69     -807628.41     -9846.0857      0.36082098     0.058313535    29.710737      3299.692     
      1980   3.96           274.59088      138584.74     -807625.27     -9866.859       0.36079273     0.05844114     29.755043      3299.3295    
      1990   3.98           289.33084      136779.64     -807629.81     -9792.2413      0.36076434     0.058003746    29.749795      3298.9702    
      2000   4              286.10464      131974.45     -807635.72     -9595.9457      0.36073581     0.056845497    29.696848      3298.6405    
      2010   4.02           278.53201      129429.56     -807637.69     -296.94481      0.36070713     0.056294832    29.763604      3298.2739    
      2020   4.04           276.09734      126217.5      -807640.17     -294.25693      0.36067831     0.055789721    29.765052      3297.9068    
      2030   4.06           273.52429      127980.12     -807639.66     -294.44244      0.36064935     0.055829375    29.696552      3297.5775    
      2040   4.08           284.23606      129931.2      -807638.1      -297.58805      0.36062025     0.05643037     29.683396      3297.2552    
      2050   4.1            285.41331      134480.3      -807631.73     -304.17092      0.36059101     0.05768333     29.697279      3296.9252    
      2060   4.12           277.41646      137769.36     -807627.13     -307.63447      0.36056162     0.058344916    29.706675      3296.5902    
      2070   4.14           285.51206      137588.45     -807629.02     -306.83104      0.36053209     0.058197305    29.705917      3296.2555    
      2080   4.16           273.59952      135982.41     -807629.96     -304.1762       0.36050242     0.057698505    29.70617       3295.9207    
      2090   4.18           280.92735      131656.62     -807634.71     -300.37399      0.36047261     0.056981986    29.702706      3295.5877    
      2100   4.2            273.96948      129019.18     -807637.25     -296.73197      0.36044265     0.056295759    29.685168      3295.2639    
      2110   4.22           273.19464      125852.88     -807640.51     -293.20808      0.36041256     0.055631854    29.754914      3294.9033    
      2120   4.24           279.83867      128708.81     -807639.68     -294.69407      0.36038232     0.05591849     29.742818      3294.5494    
      2130   4.26           293.35019      129746.98     -807636.99     -299.14938      0.36035193     0.056768676    29.800618      3294.1656    
      2140   4.28           285.85141      135966.05     -807629.4      -305.40691      0.36032141     0.057961058    29.775525      3293.7952    
      2150   4.3            290.37429      135931.19     -807630.28     -305.02571      0.36029075     0.057893641    29.78012       3293.4227    
      2160   4.32           282.82388      137921.45     -807627.36     -306.55676      0.36025994     0.058189209    29.818969      3293.0308    
      2170   4.34           284.24801      133588.93     -807630.97     -302.96053      0.36022899     0.057511529    29.801362      3292.6483    
      2180   4.36           279.69067      133117.98     -807632.46     -300.45364      0.36019789     0.057040565    29.778764      3292.2778    
      2190   4.38           289.99214      127276.26     -807639.86     -294.27249      0.36016666     0.055871929    29.786886      3291.9034    
      2200   4.4            282.0761       128443.93     -807638.59     -294.08327      0.36013528     0.055840868    29.784178      3291.5307    
      2210   4.42           285.28032      129181.18     -807636.91     -296.10264      0.36010377     0.056229229    29.824566      3291.1382    
      2220   4.44           282.46049      133921.8      -807631.64     -300.74967      0.36007211     0.057116713    29.82005       3290.7485    
      2230   4.46           298.20251      135023.47     -807631.88     -302.54503      0.3600403      0.057462752    29.797455      3290.3705    
      2240   4.48           282.47085      137598.39     -807626.8      -305.27878      0.36000836     0.057987122    29.740396      3290.0209    
      2250   4.5            292.37727      136337.58     -807628.03     -305.26365      0.35997627     0.057989416    29.762125      3289.6607    
      2260   4.52           295.25037      134340.99     -807631.57     -302.04045      0.35994404     0.057382257    29.709492      3289.3266    
      2270   4.54           288.20661      130988.04     -807635.36     -297.18277      0.35991167     0.056464463    29.742713      3288.9762    
      2280   4.56           288.10852      128707.3      -807638.04     -294.32289      0.35987916     0.055926142    29.725368      3288.6343    
      2290   4.58           286.10177      129231.68     -807637.95     -294.05838      0.35984651     0.05588095     29.783967      3288.2643    
      2300   4.6            279.22713      130530.11     -807634.6      -296.45443      0.35981371     0.056341415    29.724924      3287.9229    
      2310   4.62           293.51292      132578.8      -807633.3      -299.67609      0.35978077     0.056958909    29.788615      3287.5511    
      2320   4.64           290.55796      135507.87     -807629.59     -302.94762      0.35974769     0.057586018    29.746531      3287.1996    
      2330   4.66           291.87403      137759.93     -807626.6      -306.06424      0.35971447     0.058183816    29.744165      3286.8494    
      2340   4.68           291.8803       136058.76     -807628.74     -303.91454      0.35968111     0.05778051     29.774912      3286.4847    
      2350   4.7            300.22251      134148.95     -807632.99     -300.73818      0.3596476      0.057181943    29.692925      3286.1589    
      2360   4.72           286.08313      130381.52     -807635.85     -295.86572      0.35961396     0.056260764    29.707729      3285.826     
      2370   4.74           290.01871      129268.23     -807637.34     -294.8432       0.35958017     0.056071594    29.693633      3285.4997    
      2380   4.76           291.38835      127566.85     -807638.85     -293.55149      0.35954624     0.055831213    29.691465      3285.1743    
      2390   4.78           276.34512      131866.06     -807633.97     -296.22958      0.35951216     0.056345903    29.706589      3284.8419    
      2400   4.8            292.94738      132523.44     -807633.37     -299.16928      0.35947795     0.056910482    29.731849      3284.4977    
      2410   4.82           298.95768      136528.4      -807628.52     -304.81274      0.35944359     0.05798957     29.790945      3284.1266    
      2420   4.84           291.8846       136671.53     -807627.21     -305.13797      0.35940909     0.058057016    29.809999      3283.7472    
      2430   4.86           293.97277      136854.77     -807628.7      -303.83047      0.35937446     0.057813816    29.802441      3283.3715    
      2440   4.88           295.46075      132396.07     -807633.61     -299.17454      0.35933967     0.056933382    29.819379      3282.9885    
      2450   4.9            287.349        130773.73     -807634.66     -296.94853      0.35930475     0.05651526     29.812891      3282.6088    
      2460   4.92           290.70311      127413.02     -807638.88     -293.24373      0.35926969     0.05581561     29.831053      3282.2214    
      2470   4.94           278.86053      129820.44     -807636.92     -293.53232      0.35923448     0.055876016    29.82866       3281.8354    
      2480   4.96           277.84687      130203.61     -807635.39     -295.05188      0.35919913     0.056170802    29.796928      3281.4639    
      2490   4.98           298.10457      134191.28     -807632.37     -300.82351      0.35916364     0.05727524     29.809248      3281.0873    
      2500   5              290.06671      135611.03     -807628.36     -303.82275      0.35912801     0.057852021    29.798552      3280.7157    
[...]
     98740   197.48         285.31154      133245.81     -807632.19     -9709.1797      0.36236891     0.057257073    28.911606      44.929367    
     98750   197.5          284.34326      135555.59     -807630.16     -9762.8048      0.36238762     0.05757034     28.923613      44.572647    
     98760   197.52         282.41284      133775.83     -807630.66     -9732.1873      0.36240618     0.057386853    28.847316      44.215942    
     98770   197.54         285.83748      134821.32     -807631.64     -9709.2016      0.36242459     0.057248406    28.825956      43.859241    
     98780   197.56         293.49472      131598.99     -807634.34     -9651.1479      0.36244287     0.056903234    28.801463      43.502546    
     98790   197.58         296.74967      131873.48     -807634.41     -9655.4098      0.362461       0.056925515    28.821116      43.14585     
     98800   197.6          289.80434      130835.99     -807634.87     -9607.6632      0.36247899     0.056641204    28.854781      42.789151    
     98810   197.62         299.50733      132464.61     -807635        -9640.1164      0.36249683     0.056829731    28.817247      42.43246     
     98820   197.64         294.42289      132096.72     -807633.42     -9664.327       0.36251453     0.056969674    28.791536      42.075774    
     98830   197.66         292.75349      135070.79     -807629.96     -9763.9907      0.36253209     0.057554388    28.775578      41.719092    
     98840   197.68         288.96285      133934.5      -807630.72     -9721.0289      0.36254951     0.057298394    28.749254      41.362416    
     98850   197.7          291.03371      136218.1      -807629.51     -9763.2345      0.36256678     0.057544424    28.727468      41.005745    
     98860   197.72         278.83284      133423.3      -807630.03     -9692.5701      0.36258391     0.05712523     28.708817      40.649078    
     98870   197.74         292.32482      134177.28     -807631.56     -9698.7911      0.3626009      0.057159217    28.734836      40.29241     
     98880   197.76         294.72307      130424.19     -807634.52     -9617.4028      0.36261774     0.056676927    28.777764      39.935737    
     98890   197.78         294.57927      132739.91     -807633.37     -9647.6382      0.36263445     0.05685249     28.801898      39.579063    
     98900   197.8          291.4208       130853.3      -807634.64     -9595.6668      0.362651       0.056543647    28.910981      39.222376    
     98910   197.82         296.8193       134577.43     -807631.95     -9703.2098      0.36266742     0.057174769    28.901632      38.865692    
     98920   197.84         300.97077      133358.91     -807632.14     -9718.8959      0.36268369     0.057264628    28.840146      38.509019    
     98930   197.86         292.4616       136039.85     -807629.61     -9760.3996      0.36269982     0.057506614    28.826768      38.152349    
     98940   197.88         297.89763      134001.52     -807632.47     -9694.3027      0.36271581     0.057114665    28.851844      37.795679    
     98950   197.9          300.38127      134650.67     -807631.94     -9724.3115      0.36273165     0.057288961    28.844992      37.439011    
     98960   197.92         298.06172      132876.09     -807633        -9684.7292      0.36274735     0.057053301    28.886664      37.08234     
     98970   197.94         283.5457       131993.72     -807631.92     -9655.1424      0.36276291     0.056876564    28.857217      36.725674    
     98980   197.96         295.34531      131612.84     -807635.33     -9601.6422      0.36277832     0.056559001    28.868452      36.36901     
     98990   197.98         296.49156      131677.08     -807633.82     -9658.7932      0.36279359     0.056893257    28.902921      36.012343    
     99000   198            286.72215      134505.84     -807629.94     -9740.4586      0.36280872     0.057371899    28.903388      35.655678    
     99010   198.02         299.00667      133734.29     -807632.9      -303.27235      0.3628237      0.057159008    28.933549      35.299012    
     99020   198.04         290.13237      135643.58     -807630.1      -304.8389       0.36283855     0.057451913    28.884316      34.942354    
     99030   198.06         291.39339      133462.32     -807631.29     -304.03269      0.36285324     0.057297648    28.880628      34.585698    
     99040   198.08         288.28954      134188.78     -807629.64     -305.28759      0.3628678      0.057531837    28.898546      34.229043    
     99050   198.1          292.16225      131369.42     -807634.08     -301.54617      0.36288221     0.056824504    28.886775      33.872391    
     99060   198.12         284.49434      133850.48     -807633.43     -301.15441      0.36289648     0.056748447    28.805594      33.51575     
     99070   198.14         289.20856      131467.92     -807634.63     -300.81518      0.36291061     0.056682318    28.792648      33.159113    
     99080   198.16         290.1625       133708.37     -807631.76     -303.85095      0.36292459     0.057252139    28.890185      32.802467    
     99090   198.18         298.75942      132872.42     -807634.63     -302.32004      0.36293843     0.05696151     28.926424      32.445819    
     99100   198.2          288.54429      135428.4      -807631.51     -304.03773      0.36295213     0.057282986    28.836028      32.089182    
     99110   198.22         295.38907      133662.19     -807632.75     -303.92648      0.36296568     0.057259888    28.802251      31.732552    
     99120   198.24         285.9818       135405.1      -807629.84     -305.61197      0.36297909     0.057575308    28.82501       31.375921    
     99130   198.26         292.3957       132895.21     -807633.82     -302.66067      0.36299236     0.057017219    28.851879      31.019289    
     99140   198.28         279.41824      133885.32     -807632.89     -301.8085       0.36300548     0.056854626    28.870804      30.662657    
     99150   198.3          290.49698      131382.73     -807634.61     -301.74003      0.36301846     0.056839694    28.854984      30.306029    
     99160   198.32         292.17905      132130.25     -807633.33     -303.261        0.3630313      0.057124184    28.929206      29.949396    
     99170   198.34         284.06561      132441.44     -807633.62     -301.84803      0.36304399     0.056856039    28.910047      29.592766    
     99180   198.36         293.50424      133544.23     -807633.81     -302.95511      0.36305655     0.057062596    28.930842      29.236137    
     99190   198.38         292.57246      134564.64     -807631.5      -305.26374      0.36306895     0.057495469    28.940316      28.879509    
     99200   198.4          287.4538       134879.71     -807630.47     -305.54755      0.36308122     0.05754698     28.916341      28.522885    
     99210   198.42         283.34435      135006.43     -807631.15     -304.29405      0.36309334     0.057308982    28.887608      28.166267    
     99220   198.44         289.43827      132158.59     -807634.34     -302.00049      0.36310532     0.056875149    28.884328      27.80965     
     99230   198.46         288.9406       132889.74     -807633.06     -303.17615      0.36311715     0.057094698    28.884945      27.453036    
     99240   198.48         291.85113      131626.99     -807634.95     -301.71483      0.36312885     0.056817671    28.848589      27.096428    
     99250   198.5          289.35352      132626.79     -807634.02     -302.2653       0.3631404      0.056919523    28.884735      26.739818    
     99260   198.52         291.24431      132445.89     -807635.11     -301.51427      0.3631518      0.056776312    28.876289      26.38321     
     99270   198.54         286.06226      135654.4      -807630.6      -305.28973      0.36316306     0.057485464    28.879713      26.026605    
     99280   198.56         291.67128      133861.54     -807630.96     -305.74465      0.36317418     0.057569361    28.945768      25.669996    
     99290   198.58         282.69064      135628.24     -807630.24     -305.12055      0.36318516     0.057450112    28.912919      25.313392    
     99300   198.6          291.23607      132901.14     -807633.14     -303.45893      0.36319599     0.057135547    28.858729      24.956795    
     99310   198.62         288.02521      133730.56     -807631.73     -304.36159      0.36320668     0.057303814    28.900681      24.600196    
     99320   198.64         281.80309      131928.33     -807633.26     -302.02341      0.36321723     0.056861942    28.877319      24.243602    
     99330   198.66         288.46284      132610.11     -807634.13     -301.9328       0.36322763     0.056843254    28.905926      23.887007    
     99340   198.68         292.59932      130684.21     -807636.18     -300.47173      0.36323789     0.05656659     28.952552      23.53041     
     99350   198.7          288.38929      133432.14     -807631.91     -304.12923      0.36324801     0.057253552    28.920505      23.173819    
     99360   198.72         284.6349       132980.81     -807630.49     -305.06999      0.36325798     0.057429078    28.933105      22.817228    
     99370   198.74         293.12588      134738.24     -807631.76     -304.83464      0.36326781     0.05738322     28.885831      22.460643    
     99380   198.76         293.15131      134214.37     -807632.74     -303.85809      0.3632775      0.057197866    28.87088       22.104062    
     99390   198.78         289.35998      134899.79     -807630.08     -305.9126       0.36328704     0.057583091    28.862842      21.747483    
     99400   198.8          295.14751      132587.57     -807633.27     -303.52999      0.36329644     0.057133124    28.875421      21.390905    
     99410   198.82         289.67807      132931.09     -807634.08     -301.86587      0.3633057      0.056818441    28.827697      21.034333    
     99420   198.84         286.55941      131803.74     -807634.04     -301.49219      0.36331481     0.056746682    28.85442       20.677761    
     99430   198.86         283.7918       133251.87     -807631.37     -303.68647      0.36332378     0.057158279    28.883529      20.321189    
     99440   198.88         302.52777      132332.94     -807633.11     -304.51935      0.36333261     0.057313645    28.949128      19.964614    
     99450   198.9          297.71182      134300.45     -807633.25     -303.59206      0.36334129     0.057137754    28.889456      19.608046    
     99460   198.92         290.70385      135964.06     -807631.18     -304.66761      0.36334983     0.057338832    28.885172      19.25148     
     99470   198.94         295.75501      134513.18     -807630.5      -306.05932      0.36335823     0.057599421    28.896802      18.894916    
     99480   198.96         294.15563      134010.08     -807631.37     -304.88946      0.36336648     0.057377954    28.894482      18.538353    
     99490   198.98         286.40395      132185.27     -807633.14     -301.95865      0.3633746      0.056825129    28.872591      18.181795    
     99500   199            289.08539      132736.85     -807633.18     -302.22871      0.36338256     0.056874705    28.828933      17.82524     
     99510   199.02         293.59575      132382.97     -807632.43     -9714.7581      0.36339039     0.057128931    28.78991       17.46869     
     99520   199.04         290.95531      133731.71     -807631.47     -9729.5794      0.36339807     0.05721488     28.790477      17.112142    
     99530   199.06         301.47178      132087.03     -807635.3      -9652.5355      0.3634056      0.056760645    28.807368      16.755595    
     99540   199.08         290.08682      134706.13     -807630.14     -9762.5933      0.363413       0.05740666     28.768461      16.399052    
     99550   199.1          295.06961      134332.1      -807630.28     -9781.8185      0.36342025     0.057518562    28.769854      16.042511    
     99560   199.12         293.71561      135109.63     -807630.56     -9763.6682      0.36342736     0.057410712    28.767663      15.685971    
     99570   199.14         293.83192      133799.48     -807632.46     -9701.3591      0.36343432     0.05704324     28.797599      15.329432    
     99580   199.16         296.03358      133292.4      -807632.74     -9701.0033      0.36344114     0.057040077    28.800582      14.972894    
     99590   199.18         293.67899      132674.13     -807632.15     -9710.2067      0.36344782     0.057093142    28.812214      14.616358    
     99600   199.2          302.76948      132327.26     -807634.27     -9679.7894      0.36345435     0.056913275    28.841203      14.259822    
     99610   199.22         299.91631      133167.56     -807634.33     -9664.0587      0.36346074     0.056819785    28.881787      13.903286    
     99620   199.24         282.76134      134412.21     -807630.51     -9710.6848      0.36346699     0.057092942    28.88001       13.546753    
     99630   199.26         291.04675      134417.94     -807629.77     -9772.9065      0.3634731      0.057457803    28.881979      13.190221    
     99640   199.28         296.79179      133522.28     -807631.83     -9733.3719      0.36347906     0.057224428    28.865827      12.833692    
     99650   199.3          298.97936      134218.21     -807632.95     -9705.2451      0.36348487     0.057058152    28.834193      12.477167    
     99660   199.32         291.6094       133206.98     -807631.63     -9718.1959      0.36349055     0.057133399    28.816122      12.120644    
     99670   199.34         295.53167      134004.32     -807631.09     -9753.4354      0.36349608     0.057339701    28.790813      11.764124    
     99680   199.36         303.57238      131464.94     -807635.03     -9666.5356      0.36350147     0.056827981    28.823756      11.407605    
     99690   199.38         290.68004      134258.48     -807632.89     -9680.2022      0.36350671     0.056907504    28.800067      11.051089    
     99700   199.4          291.1873       132905.77     -807631.69     -9726.6424      0.36351181     0.057179712    28.793534      10.694574    
     99710   199.42         294.7299       134687.04     -807630.28     -9788.6485      0.36351677     0.057543441    28.804099      10.338061    
     99720   199.44         289.32817      133678.7      -807632.04     -9713.913       0.36352158     0.057103345    28.843051      9.981549     
     99730   199.46         295.09608      134192.15     -807632.19     -9739.5112      0.36352625     0.057253089    28.891887      9.625037     
     99740   199.48         291.46786      133471.21     -807632.36     -9725.2907      0.36353078     0.057168783    28.864134      9.268528     
     99750   199.5          292.99907      132976.55     -807631.75     -9757.5705      0.36353516     0.057357843    28.856522      8.9120213    
     99760   199.52         285.20963      132619.4      -807633.81     -9664.1364      0.3635394      0.056807948    28.84568       8.5555168    
     99770   199.54         284.98278      132952.53     -807634.28     -9656.1546      0.3635435      0.056760389    28.844424      8.1990144    
     99780   199.56         283.63979      132599.15     -807631.96     -9730.5339      0.36354745     0.05719698     28.808518      7.8425149    
     99790   199.58         285.2132       133368.61     -807631.81     -9749.4494      0.36355126     0.057307567    28.815261      7.4860171    
     99800   199.6          293.93616      132569.75     -807634.37     -9711.6869      0.36355493     0.057085022    28.736765      7.129523     
     99810   199.62         282.93369      133899.53     -807631.88     -9746.6807      0.36355845     0.05729016     28.771197      6.7730299    
     99820   199.64         290.08231      133343.61     -807632.47     -9766.1996      0.36356183     0.057404356    28.804606      6.4165379    
     99830   199.66         285.68147      134085.85     -807631.86     -9770.1128      0.36356507     0.057426846    28.811677      6.0600476    
     99840   199.68         290.10899      131979.59     -807634.53     -9708.7858      0.36356816     0.057065892    28.84586       5.7035585    
     99850   199.7          282.83949      132412.18     -807634.31     -9687.5418      0.36357111     0.056940563    28.833394      5.3470716    
     99860   199.72         278.91886      133193.55     -807632.51     -9732.2454      0.36357392     0.057202876    28.865434      4.9905861    
     99870   199.74         284.3496       132811.23     -807633.14     -9737.3003      0.36357658     0.057232168    28.889389      4.6341022    
     99880   199.76         278.64655      133639.76     -807632.97     -9717.7143      0.3635791      0.057116653    28.876012      4.2776206    
     99890   199.78         284.63197      133358.89     -807633.64     -9725.2535      0.36358148     0.057160592    28.862891      3.9211412    
     99900   199.8          282.54075      134082        -807631.58     -9782.8         0.36358371     0.057498471    28.84052       3.5646641    
     99910   199.82         284.58083      132808.85     -807633.37     -9735.4687      0.3635858      0.057219952    28.809005      3.2081892    
     99920   199.84         279.77305      133483.22     -807632.97     -9723.8157      0.36358775     0.057151156    28.855109      2.8517158    
     99930   199.86         276.77265      132031.86     -807633.58     -9692.4531      0.36358955     0.056966541    28.866802      2.4952443    
     99940   199.88         284.68663      132943.65     -807632.66     -9752.5429      0.36359121     0.057319452    28.854614      2.1387749    
     99950   199.9          281.47741      132146.06     -807633.13     -9720.7927      0.36359273     0.057132606    28.838836      1.7823076    
     99960   199.92         287.86166      133466.35     -807633.95     -9718.9724      0.3635941      0.057121692    28.821537      1.4258422    
     99970   199.94         290.52377      133097.19     -807634.39     -9714.0161      0.36359533     0.057092369    28.776696      1.069379     
     99980   199.96         283.52198      133879.23     -807631.76     -9761.5207      0.36359641     0.057371398    28.814501      0.71291745   
     99990   199.98         295.67031      132535.41     -807633.78     -9744.9796      0.36359736     0.057274032    28.81602       0.35645778   
    100000   200            285.93758      133403.87     -807633.77     -9692.3495      0.36359816     0.056964584    28.81126       0            
Loop time of 3564.57 on 32 procs for 100000 steps with 1080 atoms

Performance: 4.848 ns/day, 4.951 hours/ns, 28.054 timesteps/s, 30.298 katom-step/s
63.3% CPU use with 32 MPI tasks x 1 OpenMP threads

MPI task timing breakdown:
Section |  min time  |  avg time  |  max time  |%varavg| %total
---------------------------------------------------------------
Pair    | 2372       | 2805.7     | 3171.3     | 380.7 | 78.71
Neigh   | 0.00082504 | 0.00088075 | 0.0010164  |   0.0 |  0.00
Comm    | 320.05     | 685.63     | 1119.4     | 770.2 | 19.23
Output  | 2.352      | 2.3586     | 2.3631     |   0.2 |  0.07
Modify  | 64.55      | 64.809     | 65.027     |   1.4 |  1.82
Other   |            | 6.072      |            |       |  0.17

Nlocal:          33.75 ave          41 max          28 min
Histogram: 3 4 3 6 4 3 4 0 3 2
Nghost:        1034.38 ave        1047 max        1020 min
Histogram: 1 1 4 5 3 9 2 3 1 3
Neighs:              0 ave           0 max           0 min
Histogram: 32 0 0 0 0 0 0 0 0 0
FullNghs:      5361.88 ave        6557 max        4396 min
Histogram: 2 5 3 5 5 3 3 1 3 2

Total # of neighbors = 171580
Ave neighs/atom = 158.87037
Neighbor list builds = 2
Dangerous builds = 0

Total wall time: 1:02:54
