
units		metal
atom_style	atomic

read_data ${STRUCTURE}.data
read_data BaTiO3-sc333.data
Reading data file ...
  orthogonal box = (0 0 0) to (11.898253 11.898253 12.912076)
  2 by 4 by 4 MPI processor grid
  reading atoms ...
  135 atoms
  read_data CPU = 0.012 seconds
replicate $L $L $L
replicate 2 $L $L
replicate 2 2 $L
replicate 2 2 2
Replication is creating a 2x2x2 = 8 times larger system...
  orthogonal box = (0 0 0) to (23.796507 23.796507 25.824152)
  2 by 4 by 4 MPI processor grid
  1080 atoms
  replicate CPU = 0.004 seconds

pair_style allegro
pair_coeff	* * ${MODEL}.pth Ba Ti O
pair_coeff	* * BaTiO3-E0.pth Ba Ti O
mass 1 137.3
mass 2 47.9
mass 3 15.9994

timestep 0.002
compute polarization all allegro polarization 3
compute allegro will evaluate the quantity polarization of length 3 (src/compute_allegro.cpp:53)
compute polarizability all allegro polarizability 9
compute allegro will evaluate the quantity polarizability of length 9 (src/compute_allegro.cpp:53)

thermo_style custom pe fmax fnorm spcpu cpuremain

variable efield equal 1e-2*36.36
fix born all addbornforce 0.0 0.0 ${efield}
fix born all addbornforce 0.0 0.0 0.3636

thermo 10
min_style fire
#minimize 0.0 1e-6 100 100
velocity all create ${TEMP} ${SEED} dist gaussian rot yes mom yes
velocity all create 320 ${SEED} dist gaussian rot yes mom yes
velocity all create 320 19399 dist gaussian rot yes mom yes
fix nvt all nvt temp ${TEMP} ${TEMP} $(100*dt)
fix nvt all nvt temp 320 ${TEMP} $(100*dt)
fix nvt all nvt temp 320 320 $(100*dt)
fix nvt all nvt temp 320 320 0.2000000000000000111
run 5000
Neighbor list info ...
  update: every = 1 steps, delay = 0 steps, check = yes
  max neighbors/atom: 2000, page size: 100000
  master list distance cutoff = 8
  ghost atom cutoff = 8
  binsize = 8, bins = 3 3 4
  1 neighbor lists, perpetual/occasional/extra = 1 0 0
  (1) pair allegro/kk, perpetual
      attributes: full, newton on, kokkos_device
      pair build: full/bin/kk/device
      stencil: full/bin/3d
      bin: kk/device
Per MPI rank memory allocation (min/avg/max) = 3.516 | 3.516 | 3.516 Mbytes
    PotEng          Fmax          Fnorm          S/CPU         CPULeft    
-807708.29      1.5954813      37.043764      0              0            
-807646.18      3.3283341      45.110405      2.2979378      2171.5132    
-807635.02      2.4318711      35.356768      25.871969      1179.8238    
-807606.81      3.107416       37.464372      25.87117       849.00516    
-807603.61      4.051192       49.694538      25.812352      683.51163    
-807568.37      3.6816763      40.214723      25.76931       584.12472    
-807602.2       2.6690607      38.244348      25.802965      517.6957     
-807645.3       3.4160515      33.841682      25.899941      470.03341    
-807682.6       2.4175118      34.416942      25.863431      434.22377    
-807667.98      3.421891       34.119202      25.85968       406.28897    
-807651.37      3.6430286      35.51132       25.90144       383.83319    
-807658.77      2.2400921      28.016062      25.862225      365.41613    
-807627.42      3.281435       31.695812      25.828239      350.02483    
-807585.71      3.5614019      40.38695       25.822468      336.94509    
-807568.71      4.4028508      38.451204      25.921871      325.62701    
-807632.77      3.1774043      34.046591      25.868136      315.79249    
-807653.26      3.563384       31.362655      25.813674      307.16363    
-807664.37      2.9238445      34.567357      25.839939      299.49317    
-807645.34      4.2009428      44.951604      25.910918      292.6036     
-807678.22      2.9479015      36.492902      25.824536      286.43129    
-807640.52      4.1018644      39.516754      25.791977      280.84923    
-807616.42      3.0202608      38.765205      25.90092       275.72467    
-807560.74      4.5671844      45.839725      25.901023      271.03085    
-807604.5       4.0813872      49.198693      25.878487      266.71858    
-807614.39      4.4513407      38.770357      25.815661      262.75212    
-807640.6       3.0683638      35.808608      25.870679      259.05634    
-807641.22      4.5588842      45.574524      25.906675      255.60532    
-807681.3       2.877514       37.740405      25.800347      252.40921    
-807661.49      3.5545815      35.51403       25.763208      249.42313    
-807636.93      3.1617842      32.224807      25.844192      246.59646    
-807606.23      3.8850925      33.640643      25.892063      243.92123    
-807604.53      3.7596271      42.194358      25.845032      241.40431    
-807597.43      3.2842305      36.489235      25.795327      239.03142    
-807609.41      2.6091654      33.11665       25.903497      236.75594    
-807641.44      3.5288023      30.812672      25.889254      234.59451    
-807673.14      2.6118898      32.099168      25.863954      232.53954    
-807676.1       2.5846117      33.158659      25.78306       230.59289    
-807643.08      4.3972942      38.927719      25.855398      228.71692    
-807646.41      2.5650641      31.824067      25.900166      226.9112     
-807619.26      3.3383961      34.790969      25.877131      225.18235    
-807601.19      4.1020141      43.957932      25.811096      223.53198    
-807568.78      4.5713151      41.47314       25.914881      221.92586    
-807624.44      2.9433341      35.134298      25.892995      220.38139    
-807646.95      3.8599583      35.778682      25.87058       218.89436    
-807672.72      2.9641238      35.551992      25.844566      217.46138    
-807640.32      4.6982521      46.873572      25.887199      216.06844    
-807664.61      2.8483948      35.880611      25.761192      214.73793    
-807641.29      3.7895966      37.592823      25.842513      213.43574    
-807623.2       3.4760381      39.288613      25.866687      212.16827    
-807564.47      3.7545622      43.981606      25.898447      210.9324     
-807602.12      3.4000467      43.238738      25.892353      209.73134    
-807623.54      3.6512837      35.329305      25.857499      208.56681    
-807654.74      2.9432407      32.736898      25.796522      207.44008    
-807644         4.1365615      40.111128      25.874905      206.33133    
-807670.9       2.5119771      33.953669      25.880452      205.24865    
-807663.74      3.0768622      33.038565      25.792488      204.20195    
-807643.94      3.2201272      29.576478      25.809383      203.17677    
-807599.15      2.9825209      35.392081      25.891749      202.16439    
-807595.79      3.2538293      37.811873      25.884696      201.1744     
-807605.94      4.6637828      39.56359       25.832591      200.2107     
-807619.77      3.0256078      32.406989      25.896976      199.25917    
-807638.15      3.1695846      32.65064       25.925251      198.32314    
-807661.81      3.2801837      34.070422      25.879914      197.40963    
-807675.29      2.8222112      35.833294      25.785033      196.52272    
-807645.11      3.9625609      38.131753      25.815321      195.64831    
-807633.27      2.7983581      33.729615      25.880181      194.78239    
-807610.26      3.7003029      36.303978      25.892185      193.92981    
-807603.46      3.7559529      46.063211      25.799129      193.10017    
-807578.73      3.7563634      41.691414      25.883937      192.27545    
-807616.95      2.8532469      36.931369      25.866982      191.46503    
-807642.9       4.246999       38.875787      25.853614      190.66794    
-807672.73      2.5519316      37.204865      25.810682      189.8863     
-807646.77      4.755863       42.802503      25.791475      189.11732    
-807652.09      2.8937558      35.287139      25.859357      188.35283    
-807638.31      4.0523646      35.154283      25.893562      187.59562    
-807622.75      3.2764211      38.599314      25.875284      186.84984    
-807576.51      3.5193139      39.778583      25.850529      186.11558    
-807588.93      2.913961       40.524148      25.923594      185.38436    
-807627.26      3.7185405      33.121085      25.917705      184.66247    
-807657.9       3.0621937      33.017084      25.867463      183.95308    
-807650.11      3.7006734      36.80665       25.882183      183.25061    
-807655.03      3.6335767      36.470902      25.77181       182.5645     
-807662.3       2.96948        33.501616      25.824578      181.88162    
-807641.53      4.1421866      33.119728      25.835197      181.20507    
-807603.21      3.7615883      37.258998      25.865884      180.53313    
-807581.15      5.0361475      39.826292      25.891342      179.86606    
-807607.17      4.1150051      40.596089      25.836964      179.20942    
-807626.8       4.1559325      34.015593      25.877856      178.55608    
-807641.61      3.5680512      34.017145      25.900231      177.90725    
-807648.97      4.2877335      38.558533      25.882524      177.26553    
-807670.97      2.9003596      36.28541       25.785214      176.63613    
-807649.27      3.5309394      36.97295       25.781704      176.01229    
-807628.48      3.5900232      34.704848      25.853932      175.38876    
-807601.58      3.4973823      37.665766      25.919206      174.76606    
-807606.71      4.1655774      43.412709      25.856873      174.15242    
-807596.22      4.4341705      38.676247      25.78176       173.54836    
-807618.49      2.9397137      35.530024      25.864655      172.94358    
-807639.9       4.4902398      36.26591       25.894845      172.34142    
-807669.51      2.3374762      34.849619      25.859217      171.74584    
-807657.25      3.3455246      35.917578      25.803745      171.15786    
-807644.48      3.2972617      34.093835      25.772237      170.57578    
-807631.41      4.805884       33.645965      25.827214      169.99428    
-807621.67      3.6001231      36.60392       25.868183      169.4142     
-807591.93      4.2375795      38.576168      25.825053      168.84036    
-807593.5       3.2058617      38.161518      25.886586      168.26661    
-807624.92      3.7640144      33.631815      25.916842      167.69473    
-807657.84      2.9880023      32.559657      25.877996      167.12851    
-807657.71      3.2187676      34.8246        25.865767      166.56633    
-807650.56      4.2185354      36.393513      25.856411      166.0079     
-807654.21      2.8268896      32.630922      25.84925       165.45301    
-807638.89      3.2216135      32.315304      25.802537      164.90366    
-807610.32      3.0522589      35.570654      25.828533      164.35585    
-807582.01      3.4473072      38.505243      25.903643      163.80703    
-807606.89      3.368448       37.518458      25.909164      163.2608     
-807633.18      3.9355732      34.041418      25.812501      162.72228    
-807650.34      2.7848966      33.283624      25.852774      162.18437    
-807645.45      4.2310187      38.776892      25.859932      161.64871    
-807664.2       2.9330387      34.562297      25.795323      161.11876    
-807650.02      3.576007       35.39445       25.796359      160.59118    
-807630.92      3.4031006      33.773817      25.822622      160.06468    
-807594.32      4.4543236      38.440159      25.861586      159.53866    
-807601.54      4.94611        40.286255      25.862539      159.0149     
-807607.18      4.2867002      36.97889       25.79803       158.49638    
-807628.1       3.2501092      33.490573      25.791119      157.98031    
-807637.52      4.6289536      36.764758      25.869302      157.46275    
-807662.47      3.0386119      34.004398      25.867358      156.94738    
-807658.23      3.2942113      35.923146      25.798578      156.43711    
-807644.65      3.6534278      34.096836      25.829052      155.92743    
-807620.9       4.6198327      34.942431      25.843695      155.41903    
-807613.05      3.0932201      36.816781      25.894144      154.91034    
-807601.22      4.3026189      38.439211      25.827663      154.40636    
-807600.23      3.8817454      37.001147      25.850573      153.9032     
-807622.29      3.7516666      34.201462      25.88729       153.40028    
-807652.9       2.8676688      32.701391      25.822926      152.90176    
-807660.87      2.7559128      34.132983      25.858169      152.40346    
-807648         4.5571787      36.031338      25.828991      151.908      
-807642.86      3.0137098      33.631836      25.821427      151.41444    
-807630.73      3.2795555      33.785624      25.853794      150.92114    
-807613         3.731132       37.197498      25.867269      150.42885    
-807586.41      3.3270079      39.204735      25.896416      149.93696    
-807604.73      3.0161248      37.489294      25.810209      149.4499     
-807630.57      3.6003404      35.413465      25.78588       148.96517    
-807653.62      2.7289038      34.657001      25.777932      148.48212    
-807646.36      4.9045383      39.155645      25.77152       148.00063    
-807651.93      2.8555905      35.52709       25.743265      147.5215     
-807647         3.096661       34.12633       25.812973      147.04105    
-807632.74      3.1102784      33.81796       25.770787      146.56341    
-807596.78      3.4733556      36.861543      25.819545      146.08523    
-807596.11      3.0296323      38.519802      25.770393      145.61004    
-807613.43      3.5026422      35.403678      25.775431      145.13583    
-807636.9       3.008091       32.525266      25.778513      144.66267    
-807640.26      3.7813438      34.843741      25.875019      144.1873     
-807654.59      3.270847       34.097907      25.872494      143.71318    
-807656.71      4.5593097      34.710526      25.817925      143.24205    
-807644.69      2.8626633      33.499026      25.847745      142.77102    
-807619.51      3.9036331      34.020597      25.822754      142.3019     
-807605.06      3.1010737      36.486555      25.87921       141.83197    
-807605.04      3.1729717      37.982969      25.920325      141.36176    
-807614.68      3.5520885      35.042762      25.857571      140.89465    
-807626.75      3.431321       33.861192      25.879654      140.42784    
-807647.97      3.473576       33.828227      25.916862      139.96085    
-807660.21      2.7077132      33.916706      25.844003      139.49717    
-807651.28      3.261154       34.415271      25.815672      139.03532    
-807636.98      2.9761662      33.046756      25.88824       138.57214    
-807623.19      3.7284007      33.740393      25.863339      138.11066    
-807614.52      3.3520789      35.728183      25.861522      137.65014    
-807598.97      3.3404768      36.732249      25.8014        137.19232    
-807609.8       2.5685801      35.085897      25.846009      136.73401    
-807633.81      3.4777897      33.019422      25.79803       136.27797    
-807656.3       3.3506755      34.11599       25.873172      135.82054    
-807651.16      3.9202384      35.812959      25.883383      135.36365    
-807647         3.3605269      35.297247      25.821003      134.90937    
-807640.74      3.431751       34.68112       25.79696       134.45657    
-807628.05      3.6099796      35.708835      25.843513      134.00319    
-807600         3.6046302      37.67502       25.864577      133.54999    
-807597.86      3.2169272      37.844827      25.910648      133.09628    
-807613.96      2.8728692      35.747802      25.901513      132.64358    
-807644.04      3.8186801      33.230419      25.831205      132.19356    
-807645.59      3.2067182      35.062622      25.83849       131.74404    
-807650.45      3.5344531      35.519755      25.836397      131.29528    
-807651.67      3.9308356      34.959614      25.811368      130.84787    
-807642.37      4.139726       34.223354      25.866886      130.39966    
-807616.48      3.8315196      34.541954      25.862185      129.95225    
-807598.16      3.6877253      37.421839      25.894158      129.50468    
-807602.99      3.4173915      37.372593      25.860298      129.05864    
-807621.28      4.0832091      35.466076      25.840915      128.61374    
-807633.96      2.9993539      34.465433      25.860013      128.16898    
-807644.35      3.9286342      35.352436      25.882428      127.72427    
-807654.77      3.163456       34.887677      25.780406      127.28273    
-807648.63      3.1777725      35.613505      25.788959      126.84154    
-807636.88      3.3915114      33.652606      25.828157      126.39996    
-807612.57      2.9662412      35.328476      25.866633      125.95801    
-807607.1       3.4011979      37.635639      25.827402      125.51758    
-807604.75      3.474642       37.122519      25.859822      125.07693    
-807616.7       3.2006062      35.293387      25.888732      124.63616    
-807631.61      4.4401002      34.354751      25.886251      124.196      
-807651.76      2.542295       34.123505      25.877236      123.7566     
-807650.22      2.8706433      36.000183      25.803664      123.31943    
-807646.05      3.4507696      34.079903      25.862316      122.88143    
-807630.77      4.7238795      34.487478      25.932451      122.44236    
-807621.94      5.0249673      35.271413      25.888737      122.0048     
-807605.8       3.7212351      37.54915       25.836201      121.56891    
-807601.31      4.7404755      38.262413      25.852837      121.13315    
-807615.79      4.0842933      35.305533      25.853168      120.69786    
-807641.54      3.9927621      34.024381      25.818936      120.26379    
-807648.89      3.6280541      35.220952      25.773612      119.83115    
-807647.35      4.4332244      36.098429      25.830301      119.39773    
-807642.32      3.794894       35.059062      25.85476       118.96425    
-807638.45      3.691474       33.4118        25.880702      118.53066    
-807618.96      3.1329729      35.095825      25.866601      118.09783    
-807600.46      3.2569174      36.916982      25.846984      117.66583    
-807604.17      2.993519       36.646333      25.914817      117.23288    
-807625.19      3.6272815      34.624666      25.876445      116.80115    
-807642.02      2.8273686      33.708041      25.879719      116.36978    
-807644.44      4.0288189      35.293461      25.775997      115.9409     
-807649.96      2.7759225      35.03506       25.808129      115.51177    
-807648.26      3.1640932      34.578304      25.814122      115.08291    
-807635.72      2.756518       33.355546      25.843392      114.65385    
-807608.89      3.0263927      36.160586      25.847908      114.22509    
-807603.54      3.4632254      37.434668      25.866759      113.79636    
-807609.73      3.5833388      36.628259      25.827114      113.36876    
-807625.88      3.9772313      35.015385      25.828092      112.94151    
-807634.47      3.2242478      34.254751      25.852911      112.51416    
-807650.22      3.9453355      34.178602      25.857856      112.08707    
-807653.3       3.1555402      34.78138       25.854471      111.66041    
-807645.86      3.132877       32.919776      25.869311      111.23384    
-807624.76      3.8344492      34.214427      25.877605      110.80746    
-807614.81      2.9001781      34.502988      25.914648      110.38078    
-807607.05      3.9428588      36.546553      25.904305      109.95463    
-807610.71      3.2875621      35.751358      25.878924      109.52929    
-807622.12      3.7938898      34.067437      25.906691      109.1038     
-807641.98      2.9948122      34.232903      25.873841      108.67922    
-807651.05      3.8634117      35.157263      25.895708      108.25459    
-807648.99      3.2051684      35.029998      25.88649       107.83045    
-807639.23      4.305554       34.856807      25.878246      107.40677    
-807629         2.9227644      34.616161      25.906283      106.98294    
-807616.29      3.2221013      36.29364       25.877255      106.55991    
-807604.52      2.9207649      36.974465      25.888414      106.137      
-807610.51      3.5529681      35.605294      25.883752      105.71449    
-807628.46      2.8532927      34.0896        25.896088      105.29207    
-807645.24      3.4105158      34.108597      25.880066      104.87021    
-807647.34      3.3815168      35.389439      25.900777      104.44832    
-807647.29      4.1637541      35.06395       25.87978       104.02705    
-807640.34      3.4282558      35.056975      25.85596       103.60645    
-807631.05      2.9172952      34.322348      25.884716      103.18568    
-807610.43      3.7337073      35.610863      25.900201      102.76495    
-807603.51      3.8060241      37.427483      25.876305      102.34486    
-807615.09      2.8573733      35.644896      25.888254      101.92487    
-807633.89      3.0309555      34.086034      25.88124       101.50525    
-807642.09      2.9417544      34.011717      25.83257       101.08664    
-807646.35      4.0890281      35.456107      25.805306      100.66868    
-807649.15      3.238734       34.629825      25.808702      100.25092    
-807642.2       2.823104       33.729296      25.844162      99.832875    
-807623.19      3.7774617      34.852734      25.873046      99.414655    
-807608.57      3.217905       36.391531      25.920592      98.995997    
-807607.75      3.4766988      37.385879      25.895329      98.577959    
-807619.8       2.9408515      35.29159       25.887393      98.160283    
-807629.58      3.6742582      34.221193      25.91629       97.742443    
-807640.87      3.7265605      34.865945      25.881488      97.325339    
-807650.31      3.4604376      34.723124      25.811279      96.909449    
-807647.79      3.5081717      35.339272      25.829518      96.493526    
-807634.91      3.4254987      34.876662      25.843597      96.07763     
-807620.23      3.1991664      35.104812      25.866138      95.661649    
-807613.71      3.2569488      36.645024      25.900852      95.245425    
-807608         3.7269985      37.317047      25.850615      94.830099    
-807615.13      3.3352756      36.458437      25.812498      94.415495    
-807629.25      3.1377731      35.043701      25.805208      94.001192    
-807646.57      3.0635805      34.309555      25.842594      93.5866      
-807647.2       4.5374737      35.371773      25.860401      93.171984    
-807643.67      2.8311704      34.314773      25.863596      92.757534    
-807632.07      3.46945        35.324187      25.82969       92.343723    
-807624.19      2.976017       35.176483      25.852683      91.929817    
-807608.74      4.1344185      37.501755      25.890174      91.515641    
-807606.83      3.2276254      36.668998      25.888591      91.10169     
-807617.11      3.5401692      35.485398      25.830394      90.688658    
-807636.58      3.1123026      34.390204      25.825809      90.275871    
-807645.44      3.6804827      35.336519      25.813345      89.863421    
-807645.62      2.9894532      35.135302      25.826596      89.450992    
-807642.35      3.2663282      34.252048      25.834868      89.038645    
-807635.57      3.5598857      34.659488      25.837567      88.626447    
-807619.51      3.3067929      35.168343      25.877573      88.213959    
-807602.74      3.5339947      37.760217      25.902998      87.801361    
-807610.03      3.9112147      36.717341      25.922596      87.388726    
-807621.59      3.3776809      36.60917       25.873771      86.976838    
-807637.93      4.0453508      34.98483       25.85434       86.565351    
-807639.04      4.0765367      36.446388      25.860611      86.153966    
-807648.42      4.0627178      34.573271      25.856161      85.742803    
-807642.3       3.1007282      35.418577      25.864643      85.331716    
-807633.74      3.7893202      34.148327      25.871475      84.920725    
-807614.62      3.1832155      36.185486      25.90303       84.509558    
-807610.74      3.0235084      36.07934       25.875589      84.098862    
-807612.6       3.7461057      36.305053      25.861567      83.688482    
-807626.62      3.6596387      34.344228      25.906348      83.277788    
-807634.47      3.5462258      34.362549      25.908687      82.867239    
-807645.8       3.639573       34.499146      25.878989      82.457167    
-807647.29      3.4553693      34.685822      25.855132      82.047503    
-807642.33      3.6513617      34.757589      25.838116      81.63817     
-807629.68      3.6119056      33.672945      25.82858       81.229084    
-807618.06      3.0369181      35.91928       25.894817      80.819474    
-807613.11      3.1482018      36.388118      25.875846      80.410211    
-807615.08      2.900311       35.573425      25.856538      80.001293    
-807623.51      3.0029719      34.295709      25.867627      79.592412    
-807638.63      3.075467       34.311293      25.89434       79.183418    
-807648.39      2.9143292      34.082084      25.872442      78.774786    
-807645.13      3.4593843      35.323588      25.841367      78.3666      
-807638.32      3.809297       34.789675      25.827397      77.958686    
-807629.77      3.2953035      34.840648      25.83806       77.550807    
-807620.23      3.1996131      35.365676      25.853526      77.142918    
-807610.61      3.2510742      36.149578      25.863445      76.735074    
-807612.79      3.3882562      36.107761      25.863324      76.327368    
-807629.91      3.2851154      34.56063       25.907337      75.919395    
-807639.98      3.6134169      35.173149      25.818585      75.51237     
-807644.01      3.5679328      35.332229      25.881505      75.104904    
-807644.21      2.9788765      35.248781      25.841315      74.697932    
-807638.93      3.0043955      34.777147      25.888974      74.290665    
-807631.07      2.9098178      34.322851      25.903072      73.883408    
-807614.41      3.184326       35.269321      25.890425      73.476394    
-807608.87      3.6250776      37.146464      25.927838      73.069191    
-807617.06      4.809245       35.74968       25.910647      72.662269    
-807630.79      3.0683532      34.994072      25.920098      72.255398    
-807636.25      3.9441912      35.582951      25.926913      71.848603    
-807643.15      3.08721        35.103412      25.903156      71.442136    
-807645.02      4.0161236      34.963087      25.887219      71.035927    
-807638.76      2.9523967      34.283038      25.871161      70.629973    
-807624.29      3.8195473      34.761184      25.838503      70.224404    
-807614.57      3.5286381      35.497602      25.881828      69.8186      
-807611.67      3.1385587      35.713168      25.888955      69.412859    
-807620.2       3.2100013      35.186487      25.902537      69.00713     
-807625.73      3.7655735      35.28119       25.826195      68.602119    
-807640.01      3.4064456      34.333168      25.854558      68.196996    
-807644.77      3.6520558      35.115809      25.829582      67.792177    
-807644.03      3.1904462      34.48139       25.827378      67.387481    
-807634.13      3.6880732      34.761371      25.803114      66.983075    
-807622.74      3.5979653      35.615744      25.804258      66.578762    
-807614.43      4.1090125      36.617988      25.839688      66.174284    
-807611.82      2.8212506      35.967576      25.781951      65.770338    
-807618.27      3.9262928      34.781254      25.802608      65.366337    
-807630.95      3.4805861      33.712819      25.848187      64.962102    
-807640.94      3.2499278      34.412029      25.819581      64.558175    
-807644.45      3.0894018      34.065174      25.832802      64.154253    
-807641.84      2.8320305      34.274157      25.886311      63.750053    
-807635.3       3.5626303      33.859853      25.915332      63.345756    
-807622.55      3.2597018      34.761878      25.916003      62.941562    
-807613.04      3.8028262      36.042313      25.932703      62.537361    
-807611.37      3.1608968      36.651841      25.91347       62.133398    
-807619.84      3.4605253      35.463095      25.90826       61.729575    
-807634.64      3.4289769      34.459837      25.925369      61.325741    
-807640.8       3.2780498      35.546971      25.923078      60.922027    
-807644.74      2.9732723      34.589202      25.859101      60.518833    
-807639.82      3.3588995      34.749436      25.903287      60.115448    
-807635.55      3.3919484      34.148716      25.84787       59.712517    
-807623.16      3.1130214      33.985914      25.844692      59.309698    
-807611.71      3.0342163      35.393861      25.910895      58.906553    
-807615.29      3.0435797      34.781552      25.924768      58.503419    
-807625.23      3.0839695      34.480523      25.916941      58.100432    
-807636.18      3.6105396      33.344666      25.924848      57.697494    
-807641.48      2.9161721      34.114728      25.904628      57.294774    
-807644.01      3.3964649      34.568868      25.818431      56.892663    
-807643.93      3.0986865      32.873445      25.827322      56.490583    
-807633.68      2.8899101      33.51159       25.88325       56.088256    
-807620.13      2.8170692      34.198349      25.827807      55.686342    
-807614.96      2.7673161      34.959459      25.841082      55.284432    
-807617.13      2.9503625      35.168539      25.880682      54.882378    
-807625.66      3.7909879      33.676258      25.913066      54.480229    
-807633.42      3.0476484      33.814506      25.868637      54.078417    
-807643.79      3.2155056      33.33302       25.852569      53.676777    
-807644.49      2.791719       33.925919      25.792693      53.275547    
-807641.85      3.098103       33.398785      25.834839      52.874162    
-807629.87      3.038596       33.849206      25.845481      52.472797    
-807622.02      3.2503123      34.821722      25.882001      52.071317    
-807615.04      3.1831641      35.699692      25.877889      51.669939    
-807616.2       3.9105011      35.515726      25.907116      51.268491    
-807624.69      3.2037325      33.942007      25.910647      50.867108    
-807636.15      3.3366594      33.960001      25.910773      50.465807    
-807642.92      2.9162117      33.867543      25.900209      50.064641    
-807643.83      3.2255168      33.6517        25.989844      49.663112    
-807636.51      3.2658836      34.180777      26.002068      49.261612    
-807629.12      3.1455448      34.484978      26.046423      48.859988    
-807621.53      3.5059169      34.749878      26.055423      48.458415    
-807614.78      2.8970564      34.977874      26.034213      48.057036    
-807616.32      2.6297013      35.600963      26.053446      47.655658    
-807626.15      2.3843665      34.329843      25.978682      47.254717    
-807638.25      3.4037993      33.843702      26.002021      46.853754    
-807640.21      2.9383577      34.54324       26.03927       46.452707    
-807641.7       3.5683682      33.437469      26.098989      46.051484    
-807636.23      2.6111637      33.354466      26.091052      45.65039     
-807628.39      3.1728995      33.109217      26.023704      45.249681    
-807618.24      3.2307764      34.625298      26.035103      44.849007    
-807613.63      3.2193164      35.203948      26.066053      44.448288    
-807618.21      3.1868431      35.477413      26.088195      44.047563    
-807629.08      3.0323434      34.773763      26.087857      43.646929    
-807636.19      2.7319923      34.8063        26.052607      43.246528    
-807639.98      4.6139275      35.522644      26.067387      42.846152    
-807641.92      3.2349206      34.977882      26.097919      42.445739    
-807636.38      3.654337       34.523111      26.037783      42.045651    
-807624.25      3.1564025      35.57625       26.057458      41.645568    
-807616.78      3.347654       35.154189      26.10876       41.245369    
-807616.26      3.0024941      34.501614      26.066789      40.845416    
-807619.3       3.7265874      35.272118      26.018549      40.445728    
-807630.42      4.4633783      33.526404      26.030384      40.046072    
-807634.39      2.6243866      34.651689      26.015269      39.64655     
-807642.63      3.0436853      34.289198      26.074621      39.246887    
-807640.56      2.8778196      33.962179      26.053589      38.84738     
-807635.65      2.67633        33.663157      26.106241      38.447765    
-807624.51      3.3321056      34.361248      26.058757      38.048397    
-807619.05      3.7853335      35.000924      26.082316      37.649025    
-807616.85      3.2888964      34.632168      26.077561      37.249748    
-807621.16      3.045638       33.955392      26.022526      36.850734    
-807627.67      2.6315438      34.005183      26.053461      36.45169     
-807637.12      2.6629929      34.217165      26.022436      36.052821    
-807641.97      3.2697001      33.733813      26.029409      35.654001    
-807638.82      2.9964046      34.1722        26.06491       35.255139    
-807633.46      2.7147162      33.515325      26.083647      34.856292    
-807626.75      3.3859084      33.950303      26.10636       34.45745     
-807618.47      3.1925197      34.92627       26.074498      34.058783    
-807618.81      4.3376196      34.617284      26.111078      33.660075    
-807621.4       3.0785368      34.480916      26.098033      33.261484    
-807633.98      3.3030525      32.979528      26.090838      32.862987    
-807639.65      3.5584187      33.704631      26.073581      32.464613    
-807641.15      3.326048       34.106984      26.014423      32.066478    
-807638.94      2.734646       33.804746      26.017032      31.668402    
-807633.52      3.7264794      34.068366      26.010292      31.270409    
-807623.93      3.3878175      34.033553      25.985604      30.872548    
-807617.88      3.0431023      34.50692       25.952685      30.474838    
-807618.28      3.9467962      34.632728      25.970027      30.077139    
-807624.95      3.1493157      33.630818      25.983241      29.679466    
-807634.74      3.0922182      33.386866      25.988566      29.281839    
-807640.36      2.6875103      32.973207      26.020337      28.884192    
-807641.65      3.7360002      33.890406      26.039123      28.486561    
-807639         2.9335121      33.397185      26.028283      28.089019    
-807632.47      4.3898906      33.528483      26.06715       27.691447    
-807622.01      3.1116092      34.364497      26.087382      27.293891    
-807615.35      3.1069347      34.808541      26.106203      26.896358    
-807619.11      2.8299239      33.665578      26.090743      26.498926    
-807626.15      3.2880779      33.870053      26.092098      26.101557    
-807633.07      3.1815443      34.046341      26.134079      25.704161    
-807639.17      3.5952113      34.189612      26.091209      25.306925    
-807641.43      3.2308927      33.865043      26.089107      24.909757    
-807637.42      3.0256121      34.281912      26.037234      24.512761    
-807628.12      3.6153888      35.0115        26.023203      24.115852    
-807621.43      3.3542712      34.851151      26.097781      23.718851    
-807615.65      2.9607549      35.325774      26.050095      23.322006    
-807618.2       4.303623       36.143012      26.122168      22.925082    
-807624.78      2.7689025      34.876551      26.070287      22.528319    
-807635.65      2.8412111      33.871737      26.123608      22.131516    
-807638.11      3.4487093      34.827419      26.0651        21.734883    
-807640.07      2.5581309      33.800158      26.061527      21.338314    
-807634.6       3.3832061      34.625591      26.066053      20.941795    
-807627.7       3.6902522      34.153273      26.132714      20.54522     
-807620.68      3.5581147      34.269617      26.114545      20.148737    
-807617.64      3.3798263      34.717789      26.100226      19.752338    
-807620.21      3.5371795      34.426275      26.123898      19.355959    
-807628.23      3.4532892      33.906173      26.033323      18.959783    
-807634.33      3.2732698      34.055458      25.986269      18.563731    
-807639.29      2.9169473      33.476606      26.026826      18.167669    
-807637.81      2.8033535      34.284607      26.037399      17.771643    
-807633.82      2.9425042      34.294174      26.044172      17.37566     
-807626.93      3.6581079      33.684106      26.041146      16.979733    
-807620.26      3.4579205      34.259523      26.087008      16.583797    
-807618.24      4.067503       35.104312      26.095685      16.187904    
-807621.86      3.5344286      34.521825      26.11009       15.792048    
-807628.84      3.5288872      34.90524       26.148484      15.396201    
-807635.03      4.6852531      34.918637      26.086067      15.000486    
-807639.29      2.9598414      34.60513       26.136933      14.604766    
-807637.51      3.2811102      34.966751      26.095542      14.209149    
-807633.72      2.5977978      34.130182      26.104996      13.813575    
-807624.74      3.4502323      35.252708      26.053434      13.41811     
-807619.75      3.1748247      34.781532      26.063777      13.022684    
-807616.42      3.3924149      35.964892      26.037444      12.627335    
-807623.63      3.2927305      35.113993      26.007828      12.232063    
-807630.05      5.0816453      35.267203      26.008106      11.836836    
-807633.27      3.6160466      35.823226      26.030334      11.441635    
-807640.24      3.7681482      34.129498      26.009174      11.046499    
-807637.59      2.6099726      33.877772      26.045988      10.651377    
-807630.78      3.6454606      34.865467      26.067768      10.256285    
-807624.88      3.325281       35.06139       26.052481      9.861253     
-807620.22      3.3497096      35.039237      26.061453      9.4662613    
-807621.28      3.154807       35.363673      26.066615      9.0713132    
-807624.78      2.947684       34.678483      26.060357      8.6764167    
-807630.14      4.2109976      34.863812      26.071247      8.2815599    
-807637.62      3.5038881      34.118231      26.119959      7.8867202    
-807638.24      4.3809497      34.489167      26.094615      7.4919452    
-807636.54      3.1121676      33.312458      26.090702      7.0972202    
-807630.37      4.0151545      34.799403      26.053211      6.702562     
-807625.91      3.6425127      34.683759      26.078707      6.3079362    
-807621.43      4.11647        35.039465      26.090378      5.9133511    
-807622.72      3.103293       34.316255      26.084508      5.518815     
-807625.58      2.9491708      35.000322      26.068001      5.1243313    
-807633.97      2.8453696      34.232639      26.06067       4.7298948    
-807636.31      3.8071965      34.188285      26.014207      4.3355175    
-807636.44      2.733341       34.673179      25.995329      3.9411866    
-807636.66      3.5579789      34.207767      26.071143      3.5468745    
-807631.06      3.1613618      34.636188      26.102536      3.1525986    
-807624.69      3.5304708      35.015402      26.124973      2.7583633    
-807620.73      3.7887414      35.465839      26.161451      2.364168     
-807622.68      2.9941553      35.368491      26.129497      1.9700257    
-807626.5       3.3663444      35.986848      26.145577      1.5759275    
-807631.19      3.6067395      34.860466      26.132897      1.1818773    
-807635.09      3.0823421      35.568566      26.02127       0.78787942   
-807635.49      3.7868315      35.671924      26.029695      0.39392014   
-807635.64      3.4559468      34.763426      26.062615      0            
Loop time of 196.95 on 32 procs for 5000 steps with 1080 atoms

Performance: 4.387 ns/day, 5.471 hours/ns, 25.387 timesteps/s, 27.418 katom-step/s
73.6% CPU use with 32 MPI tasks x 1 OpenMP threads

MPI task timing breakdown:
Section |  min time  |  avg time  |  max time  |%varavg| %total
---------------------------------------------------------------
Pair    | 101.88     | 145.07     | 192.47     | 307.3 | 73.66
Neigh   | 0          | 0          | 0          |   0.0 |  0.00
Comm    | 2.1902     | 49.567     | 92.748     | 525.6 | 25.17
Output  | 0.028533   | 0.029688   | 0.030843   |   0.3 |  0.02
Modify  | 1.9235     | 1.9626     | 1.9765     |   1.2 |  1.00
Other   |            | 0.3203     |            |       |  0.16

Nlocal:          33.75 ave          48 max          21 min
Histogram: 8 8 0 0 0 0 0 8 0 8
Nghost:        1106.25 ave        1119 max        1092 min
Histogram: 8 0 8 0 0 0 0 0 8 8
Neighs:              0 ave           0 max           0 min
Histogram: 32 0 0 0 0 0 0 0 0 0
FullNghs:       5494.5 ave        7896 max        3378 min
Histogram: 8 8 0 0 0 0 0 8 0 8

Total # of neighbors = 175824
Ave neighs/atom = 162.8
Neighbor list builds = 0
Dangerous builds = 0

reset_timestep 0


variable interval equal 1000
thermo 10

variable nintervals equal $(v_PERIOD/v_interval)
variable nintervals equal 100
variable efield equal 1e-2*36.36*cos((step/${PERIOD})*2*3.14)
variable efield equal 1e-2*36.36*cos((step/100000)*2*3.14)
fix born all addbornforce 0.0 0.0 v_efield

variable Px equal f_born[1]+c_polarization[1]
variable Py equal f_born[2]+c_polarization[2]
variable Pz equal (f_born[3]+c_polarization[3])/vol
variable pe equal pe

fix aveP all ave/time 1 $(v_interval/2) ${interval} v_efield v_Pz v_pe f_born file Pz.${MODEL}.${STRUCTURE}.${TEMP}.$L.${ITER}
fix aveP all ave/time 1 500 ${interval} v_efield v_Pz v_pe f_born file Pz.${MODEL}.${STRUCTURE}.${TEMP}.$L.${ITER}
fix aveP all ave/time 1 500 1000 v_efield v_Pz v_pe f_born file Pz.${MODEL}.${STRUCTURE}.${TEMP}.$L.${ITER}
fix aveP all ave/time 1 500 1000 v_efield v_Pz v_pe f_born file Pz.BaTiO3-E0.${STRUCTURE}.${TEMP}.$L.${ITER}
fix aveP all ave/time 1 500 1000 v_efield v_Pz v_pe f_born file Pz.BaTiO3-E0.BaTiO3-sc333.${TEMP}.$L.${ITER}
fix aveP all ave/time 1 500 1000 v_efield v_Pz v_pe f_born file Pz.BaTiO3-E0.BaTiO3-sc333.320.$L.${ITER}
fix aveP all ave/time 1 500 1000 v_efield v_Pz v_pe f_born file Pz.BaTiO3-E0.BaTiO3-sc333.320.2.${ITER}
fix aveP all ave/time 1 500 1000 v_efield v_Pz v_pe f_born file Pz.BaTiO3-E0.BaTiO3-sc333.320.2.1

thermo_style custom step time temp press pe f_born v_efield v_Pz spcpu cpuremain

# dump 4a all custom 1000 dump.hyst.${MODEL}.${STRUCTURE}.${TEMP}.$L.${ITER}.bin id type xu yu zu fx fy fz
# dump_modify 4a sort id

fix nvt all nvt temp ${TEMP} ${TEMP} $(100*dt)
fix nvt all nvt temp 320 ${TEMP} $(100*dt)
fix nvt all nvt temp 320 320 $(100*dt)
fix nvt all nvt temp 320 320 0.2000000000000000111

run $(v_PERIOD)
run 100000
WARNING: non-constant efield is experimental, strongly distrust scalar/vector output (src/fix_addbornforce.cpp:193)
Per MPI rank memory allocation (min/avg/max) = 3.516 | 3.516 | 3.516 Mbytes
   Step          Time           Temp          Press          PotEng         f_born        v_efield         v_Pz          S/CPU         CPULeft    
         0   0              316.71744      129580.35     -807635.65     -297.12899      0.3636         0.055881579    0              0            
        10   0.02           311.04421      134791.69     -807627.45     -304.5015       0.36359993     0.057268152    28.106228      3557.5933    
        20   0.04           316.192        138080.53     -807623.92     -308.81476      0.36359971     0.058079388    28.141024      3555.0313    
        30   0.06           320.20138      141557.62     -807622.09     -311.15455      0.36359935     0.058519495    28.121839      3554.7466    
        40   0.08           318.83418      139230.22     -807623.81     -309.21361      0.36359885     0.058154538    28.141975      3553.7894    
        50   0.1            318.93689      137226.45     -807625.91     -307.03174      0.36359821     0.057744292    28.153801      3552.7756    
        60   0.12           312.62469      131419.48     -807630.83     -301.21215      0.36359742     0.056649908    28.163425      3551.7791    
        70   0.14           319.6791       128577.52     -807636.86     -296.00951      0.36359649     0.055671574    28.17656       3550.7303    
        80   0.16           311.91249      127488.99     -807637.54     -294.28514      0.36359541     0.055347429    28.182972      3549.753     
        90   0.18           307.01303      131700.83     -807632.03     -299.00292      0.36359419     0.056234911    28.180032      3548.9555    
       100   0.2            324.70007      134195.98     -807628.97     -304.45808      0.36359283     0.057261103    28.190207      3548.1186    
       110   0.22           313.58131      138533.31     -807623.33     -308.43053      0.36359132     0.058008465    28.161043      3547.7031    
       120   0.24           323.21557      140379.57     -807622.58     -310.31637      0.36358968     0.05836341     28.170085      3547.2027    
       130   0.26           314.02344      139010.84     -807621.37     -310.15207      0.36358788     0.058332797    28.123209      3547.1792    
       140   0.28           328.26169      135683.44     -807627.05     -306.18779      0.36358595     0.057587509    28.13142       3547.0343    
       150   0.3            331.85217      130440.29     -807634.03     -299.49529      0.36358387     0.056329113    28.100508      3547.1216    
       160   0.32           318.99421      129427.57     -807635.48     -295.96014      0.36358165     0.055664561    28.139481      3546.8459    
       170   0.34           313.81878      129237.47     -807634.01     -296.43982      0.36357928     0.055755143    28.179377      3546.2654    
       180   0.36           318.56862      131725.6      -807630.82     -300.03569      0.36357677     0.056431852    28.194065      3545.6075    
       190   0.38           327.68705      135100.53     -807628.88     -302.91664      0.36357412     0.056974129    28.146517      3545.2962    
       200   0.4            321.53116      140048.04     -807621.46     -309.18213      0.36357132     0.058153021    28.124115      3545.1218    
       210   0.42           330.28372      140549.97     -807620.86     -310.77068      0.36356838     0.05845228     28.144072      3544.8103    
       220   0.44           335.9325       140101.46     -807622.55     -309.4915       0.3635653      0.058212174    28.187555      3544.2462    
       230   0.46           334.71079      134620.99     -807628.17     -303.46715      0.36356207     0.057079562    28.175124      3543.7682    
       240   0.48           339.00279      132491.91     -807632.03     -299.9807       0.3635587      0.056424313    28.251838      3542.8998    
       250   0.5            317.93928      129336.68     -807631.94     -297.00701      0.36355519     0.055865523    28.166273      3542.5017    
       260   0.52           322.18646      130087.66     -807633.79     -295.56344      0.36355153     0.055594554    28.114032      3542.36      
       270   0.54           326.27097      131528.48     -807631.53     -298.3026       0.36354773     0.056110368    28.106576      3542.2374    
       280   0.56           336.55153      135597.9      -807626.06     -305.15217      0.36354379     0.057399387    28.096427      3542.1436    
       290   0.58           331.40952      140418.52     -807619.95     -310.52433      0.3635397      0.058410552    28.158435      3541.7624    
       300   0.6            336.53686      140271.9      -807621.37     -309.78449      0.36353547     0.058272064    28.156884      3541.3894    
       310   0.62           338.08547      139000.3      -807623.28     -308.08996      0.3635311      0.05795401     28.176344      3540.9388    
       320   0.64           331.36423      135161.25     -807626.47     -304.11123      0.36352658     0.057206293    28.172973      3540.5073    
       330   0.66           329.43745      132174.34     -807630        -300.35456      0.36352192     0.05650035     28.167398      3540.1017    
       340   0.68           321.90546      128303.58     -807634.92     -294.56785      0.36351712     0.055412533    28.160395      3539.7249    
       350   0.7            331.92908      129504.13     -807635.86     -295.09417      0.36351217     0.055512295    28.114937      3539.5129    
       360   0.72           329.4538       132058.2      -807629.84     -300.99212      0.36350708     0.056622595    28.177392      3539.0746    
       370   0.74           333.08574      136672.5      -807625.32     -306.20577      0.36350185     0.057604214    28.232035      3538.4559    
       380   0.76           327.62893      139192.59     -807622.21     -308.7374       0.36349647     0.058081331    28.255245      3537.7749    
       390   0.78           335.25132      139732.31     -807622.54     -309.65708      0.36349095     0.058255231    28.201145      3537.2841    
       400   0.8            327.3751       138550.27     -807622.72     -308.61998      0.36348529     0.058061027    28.167309      3536.9061    
       410   0.82           319.25693      134715.2      -807626.58     -303.81277      0.36347948     0.057157554    28.197047      3536.4383    
       420   0.84           326.83489      130208.21     -807634.17     -297.34588      0.36347353     0.055941828    28.175102      3536.0413    
       430   0.86           324.21165      127963.01     -807637.01     -294.3103       0.36346744     0.055371651    28.150767      3535.7175    
       440   0.88           320.29634      129495.88     -807633.49     -297.41291      0.3634612      0.055956337    28.139796      3535.4233    
       450   0.9            319.72978      132628.69     -807629.55     -301.41486      0.36345482     0.056710274    28.173239      3535.0333    
       460   0.92           332.13988      136360.3      -807627.82     -304.95934      0.3634483      0.057378188    28.175573      3534.6383    
       470   0.94           331.70982      139936.31     -807622.95     -309.88227      0.36344163     0.058305508    28.119741      3534.3944    
       480   0.96           319.52199      140209.39     -807619.85     -311.40083      0.36343482     0.058592328    28.114232      3534.1603    
       490   0.98           320.7674       137764.94     -807623.74     -307.74666      0.36342786     0.057905878    28.088359      3533.9877    
       500   1              325.85685      133133.45     -807630.67     -301.53096      0.36342077     0.056737433    28.06671       3533.8624    
       510   1.02           322.51361      130081.28     -807634.68     -9508.4208      0.36341353     0.055911977    28.049874      3533.7697    
       520   1.04           317.39548      128773.39     -807634.1      -9504.3837      0.36340614     0.055889373    28.110058      3533.5209    
       530   1.06           322.00514      129960.84     -807634.08     -9527.0043      0.36339862     0.056023551    28.12952       3533.2219    
       540   1.08           323.56146      133420.79     -807631.74     -9612.1426      0.36339095     0.056525399    28.131261      3532.9167    
       550   1.1            322.97637      137936.81     -807625.05     -9826.5762      0.36338313     0.057787646    28.115468      3532.6459    
       560   1.12           314.22273      139831.98     -807619.97     -9951.9162      0.36337518     0.05852602     28.08431       3532.442     
       570   1.14           325.78297      139597.22     -807622.68     -9918.8543      0.36336707     0.058332888    28.055018      3532.2977    
       580   1.16           313.00542      135651.44     -807625.66     -9769.0192      0.36335883     0.057453009    28.108193      3532.0305    
       590   1.18           326.6716       132718.66     -807630.67     -9670.6347      0.36335044     0.056875709    28.119907      3531.7352    
       600   1.2            313.2193       129990.71     -807633.1      -9534.7348      0.36334191     0.05607776     28.089158      3531.5025    
       610   1.22           317.59194      129242.98     -807635.04     -9493.2804      0.36333324     0.055835282    28.075383      3531.2941    
       620   1.24           321.16089      130121.83     -807634.94     -9513.3723      0.36332442     0.055954812    28.108568      3531.0136    
       630   1.26           321.07871      134283.26     -807628.83     -9710.9486      0.36331546     0.057118305    28.054056      3530.8398    
       640   1.28           319.87907      137367.88     -807624.16     -9858.0126      0.36330636     0.057984766    28.047011      3530.6741    
       650   1.3            325.72187      138502.55     -807624        -9891.2564      0.36329711     0.058181786    28.073308      3530.4516    
       660   1.32           312.94474      138980.94     -807623.09     -9865.2709      0.36328772     0.058030436    28.050429      3530.2687    
       670   1.34           330.39004      135867.53     -807627.91     -9790.4693      0.36327819     0.057591942    28.100139      3529.9871    
       680   1.36           307.13418      133193.98     -807629.05     -9651.8974      0.36326851     0.056778312    28.101546      3529.7007    
       690   1.38           321.81033      128993.58     -807636.7      -9474.1407      0.36325869     0.055734146    28.084332      3529.4438    
       700   1.4            311.32859      129036.77     -807635.11     -9478.6804      0.36324873     0.055762382    28.107603      3529.1421    
       710   1.42           314.57275      130674        -807632.05     -9593.919       0.36323863     0.056441892    28.112244      3528.8308    
       720   1.44           321.68005      135523.5      -807628.33     -9747.2976      0.36322838     0.057345851    28.089786      3528.5574    
       730   1.46           315.67619      137989.03     -807624.79     -9835.0798      0.36321798     0.057863951    28.057805      3528.337     
       740   1.48           319.26968      139156.94     -807623.63     -9889.108       0.36320745     0.05818351     28.066891      3528.0973    
       750   1.5            313.00338      138221.7      -807622.56     -9895.4254      0.36319677     0.058222391    28.05995       3527.8662    
       760   1.52           319.11512      134615.42     -807628.47     -9735.1273      0.36318595     0.05728094     28.064141      3527.6249    
       770   1.54           314.35912      131604.61     -807633.47     -9553.2015      0.36317498     0.056212196    28.096406      3527.3279    
       780   1.56           310.09838      129614.51     -807635.58     -9468.012       0.36316387     0.055712635    28.066115      3527.0782    
       790   1.58           314.91908      129807.32     -807635.16     -9503.3492      0.36315262     0.055922303    28.0951        3526.7797    
       800   1.6            310.10453      131650.83     -807631.26     -9608.9129      0.36314122     0.056545265    28.115468      3526.4477    
       810   1.62           326.39693      135313.31     -807630.25     -9713.348       0.36312968     0.057161647    28.130686      3526.0916    
       820   1.64           322.15388      137402.93     -807626.04     -9831.7         0.363118       0.057859993    28.139869      3525.7215    
       830   1.66           320.04764      139923.55     -807621.54     -9964.2887      0.36310618     0.058642193    28.155124      3525.3287    
       840   1.68           312.11301      137837.12     -807624.18     -9844.3097      0.36309421     0.057937998    28.198191      3524.8728    
       850   1.7            319.05828      134960.8      -807629.95     -9687.7911      0.3630821      0.057018721    28.155645      3524.4818    
       860   1.72           310.22615      131367.2      -807632.82     -9553.8681      0.36306984     0.056232398    28.12358       3524.1383    
       870   1.74           303.55763      129705.33     -807632.36     -9536.9422      0.36305745     0.056134692    28.101904      3523.8258    
       880   1.76           313.80446      129206.72     -807634.56     -9508.7752      0.3630449      0.055970833    28.09026       3523.5289    
       890   1.78           316.96672      132069.78     -807633.23     -9561.1063      0.36303222     0.056280833    28.10891       3523.2043    
       900   1.8            315.16551      136560.97     -807626.45     -9764.5332      0.36301939     0.057480323    28.070506      3522.9327    
       910   1.82           324.56932      138038.43     -807623.43     -9901.6593      0.36300642     0.058289618    28.070193      3522.6597    
       920   1.84           322.74141      139478.62     -807623.36     -9888.4956      0.36299331     0.058214228    28.112724      3522.3268    
       930   1.86           321.10363      136218.19     -807626.82     -9765.2188      0.36298005     0.057490589    28.122994      3521.9795    
       940   1.88           313.67707      134249.24     -807627.55     -9701.5091      0.36296665     0.057117621    28.070237      3521.7026    
       950   1.9            321.43944      130670.98     -807632.91     -9559.883       0.36295311     0.056285897    28.050088      3521.4506    
       960   1.92           320.53717      130275.18     -807634.5      -9496.7863      0.36293942     0.055916511    28.058943      3521.1848    
       970   1.94           317.13746      128840.13     -807634.63     -9471.831       0.36292559     0.0557717      28.085593      3520.8827    
       980   1.96           323.26558      133610.38     -807630.02     -9637.1956      0.36291162     0.056747579    28.115948      3520.5406    
       990   1.98           329.78007      136466.08     -807626.53     -9774.6239      0.3628975      0.05755905     28.11417       3520.2004    
      1000   2              330.30608      139482.26     -807623.85     -9854.3173      0.36288325     0.058030614    28.065961      3519.9205    
      1010   2.02           325.11797      138509.49     -807623.58     -307.28852      0.36286884     0.057908747    28.189281      3519.4863    
      1020   2.04           331.1693       137737.22     -807625.34     -306.20632      0.3628543      0.05770712     28.182706      3519.0617    
      1030   2.06           324.41856      134272.77     -807628.51     -301.93801      0.36283961     0.056905024    28.193744      3518.625     
      1040   2.08           324.8475       131262.58     -807632.1      -298.17763      0.36282478     0.056198618    28.198241      3518.1846    
      1050   2.1            324.20149      129468.56     -807635.2      -294.87863      0.3628098      0.055579138    28.184886      3517.7616    
      1060   2.12           327.25708      131003.24     -807633.35     -297.01968      0.36279469     0.055985019    28.18836       3517.3358    
      1070   2.14           324.01817      133728.41     -807627.62     -302.29309      0.36277943     0.056981396    28.233767      3516.8587    
      1080   2.16           328.03615      136620.23     -807624.68     -305.73659      0.36276402     0.057632934    28.219104      3516.4007    
      1090   2.18           328.46695      139778.03     -807622.94     -307.51295      0.36274848     0.057970271    28.187783      3515.9802    
      1100   2.2            323.25201      140155.23     -807621.74     -308.0047       0.36273279     0.058065485    28.130045      3515.6264    
      1110   2.22           328.58381      137759.24     -807624.07     -306.41682      0.36271695     0.057768656    28.188848      3515.2066    
      1120   2.24           326.07937      133811.04     -807628.6      -301.485        0.36270098     0.056841365    28.162689      3514.817     
      1130   2.26           326.44798      130774.38     -807633.93     -296.25451      0.36268486     0.055857702    28.14851       3514.4437    
      1140   2.28           328.70211      129774.56     -807634.67     -295.89497      0.3626686      0.055792413    28.111631      3514.1111    
      1150   2.3            319.31524      131235.91     -807630.85     -298.50835      0.36265219     0.056287725    28.103007      3513.7874    
      1160   2.32           329.96751      133702.47     -807629.65     -301.34254      0.36263564     0.056824742    28.077464      3513.4908    
      1170   2.34           323.37185      137197.01     -807625.09     -305.15019      0.36261895     0.057545406    28.111013      3513.1573    
      1180   2.36           325.64294      138770.38     -807623.2      -307.59115      0.36260212     0.058008416    28.133206      3512.7999    
      1190   2.38           328.30764      138462.67     -807622.97     -308.40066      0.36258514     0.058163804    28.126646      3512.4494    
      1200   2.4            333.32495      136001.1      -807627.67     -304.71642      0.36256802     0.057471678    28.15781       3512.0665    
      1210   2.42           320.07541      134407.33     -807630.3      -300.57234      0.36255076     0.056692775    28.191984      3511.6488    
      1220   2.44           326.73999      130091.64     -807634.7      -297.38856      0.36253335     0.056094955    28.168623      3511.256     
      1230   2.46           315.8109       129785.87     -807633.54     -297.3895       0.3625158      0.056097849    28.193339      3510.8388    
      1240   2.48           312.15186      130408.53     -807632.64     -298.16432      0.36249811     0.056246751    28.19355       3510.4225    
      1250   2.5            316.43123      134296.84     -807629.86     -301.78555      0.36248028     0.056932674    28.208208      3509.9925    
      1260   2.52           315.17031      136611.52     -807626.47     -305.27029      0.3624623      0.057592936    28.230371      3509.5419    
      1270   2.54           316.19626      139799.07     -807623.48     -308.56493      0.36244418     0.058217419    28.269019      3509.0553    
      1280   2.56           314.19079      137871.91     -807624.3      -307.57273      0.36242592     0.058033144    28.270001      3508.5697    
      1290   2.58           329.27527      135533.13     -807630.8      -303.24006      0.36240751     0.057218558    28.215523      3508.1384    
      1300   2.6            302.39115      132075.1      -807630.86     -299.58692      0.36238896     0.056532138    28.191906      3507.7309    
      1310   2.62           320.70599      130267.56     -807635.5      -297.48114      0.36237027     0.056137672    28.182579      3507.333     
      1320   2.64           311.73153      128929.71     -807636.06     -295.72418      0.36235143     0.055809017    28.137662      3506.9781    
      1330   2.66           308.2975       131865.61     -807633.13     -298.1657       0.36233245     0.056272728    28.097729      3506.6607    
      1340   2.68           298.70626      133764.3      -807627.61     -302.41073      0.36231333     0.057076903    28.105799      3506.3352    
      1350   2.7            317.29508      138555.52     -807625.61     -306.9232       0.36229407     0.057931665    28.135935      3505.9813    
      1360   2.72           317.545        138256.54     -807624.92     -307.58095      0.36227466     0.058058925    28.134133      3505.6292    
      1370   2.74           318.69476      138015.22     -807625.73     -306.82947      0.36225511     0.057920202    28.199161      3505.2179    
      1380   2.76           310.90713      135031.28     -807628.62     -302.81878      0.36223542     0.057166211    28.215637      3504.7927    
      1390   2.78           322.79043      132758.49     -807633.21     -299.69202      0.36221558     0.056579039    28.193736      3504.388     
      1400   2.8            313.48733      128601.49     -807635.86     -295.69699      0.3621956      0.055827895    28.218774      3503.9619    
      1410   2.82           304.84052      130479.02     -807633.36     -296.88045      0.36217548     0.056054447    28.202499      3503.551     
      1420   2.84           311.92931      130559.85     -807632.82     -298.32621      0.36215522     0.056330574    28.152587      3503.1847    
      1430   2.86           319.01083      135727.65     -807627.91     -304.02077      0.36213481     0.057409068    28.111292      3502.8544    
      1440   2.88           321.11526      136839.54     -807626.05     -306.10623      0.36211426     0.057806152    28.13196       3502.5059    
      1450   2.9            315.01321      140454.17     -807622.46     -308.58955      0.36209357     0.05827844     28.150229      3502.1417    
      1460   2.92           325.68526      136182.28     -807627.13     -305.23225      0.36207273     0.057647718    28.17423       3501.7571    
      1470   2.94           316.70761      135032.28     -807628.02     -302.92058      0.36205176     0.057214439    28.159845      3501.3851    
      1480   2.96           324.26701      131645.97     -807633.34     -298.52233      0.36203064     0.056387003    28.19191       3500.9864    
      1490   2.98           309.59646      130475.08     -807633.9      -295.70638      0.36200937     0.055858389    28.184157      3500.5948    
      1500   3              317.62237      129903.35     -807635.5      -295.07046      0.36198796     0.055741559    28.180119      3500.2069    
      1510   3.02           310.50328      132432.39     -807630.33     -9571.7878      0.36196642     0.056509612    28.106138      3499.8805    
      1520   3.04           327.85341      135519.28     -807628.55     -9700.1417      0.36194472     0.057270816    28.149797      3499.5179    
      1530   3.06           322.02965      138557.63     -807624.62     -9793.5928      0.36192289     0.05782605     28.130965      3499.1707    
      1540   3.08           322.73923      139303.4      -807623.17     -9840.3922      0.36190091     0.058105905    28.125583      3498.8278    
      1550   3.1            317.62494      138072.1      -807623.33     -9806.9597      0.36187879     0.057912031    28.133442      3498.4784    
      1560   3.12           322.46486      135448.44     -807627.68     -9684.1051      0.36185653     0.057190069    28.116255      3498.1426    
      1570   3.14           322.84177      129897.65     -807632.56     -9526.2556      0.36183412     0.056261363    28.102999      3497.8171    
      1580   3.16           318.73147      130968.31     -807633.38     -9476.7555      0.36181157     0.055972507    28.128108      3497.4715    
      1590   3.18           315.1544       129851.22     -807633.41     -9459.4356      0.36178888     0.055873715    28.105862      3497.143     
      1600   3.2            324.22411      134330.19     -807629.86     -9605.3027      0.36176605     0.056738884    28.130042      3496.7955    
      1610   3.22           324.25415      133931.26     -807628.77     -9643.0975      0.36174307     0.056965757    28.108014      3496.4649    
      1620   3.24           318.69464      140358.14     -807621.85     -9834.2208      0.36171995     0.058098514    28.073234      3496.1607    
      1630   3.26           321.32392      137081.04     -807624.14     -9773.2514      0.36169669     0.057742033    28.1093        3495.8284    
      1640   3.28           323.21752      139455.86     -807622.8      -9816.8241      0.36167329     0.058003221    28.131258      3495.4791    
      1650   3.3            327.18094      132292.9      -807630.26     -9601.8115      0.36164974     0.056736502    28.138423      3495.1243    
      1660   3.32           330.90467      135044.86     -807630.49     -9603.1776      0.36162605     0.056748292    28.144159      3494.7652    
      1670   3.34           315.53252      127999.49     -807633.98     -9428.4795      0.36160222     0.055719616    28.135476      3494.4126    
      1680   3.36           323.8192       133050.32     -807632.16     -9518.7435      0.36157824     0.05625678     28.141387      3494.0556    
      1690   3.38           320.71441      129631.44     -807632.42     -9502.706       0.36155413     0.056165743    28.109366      3493.7222    
      1700   3.4            320.99807      137344.64     -807626.02     -9704.6468      0.36152987     0.057363164    28.108461      3493.3891    
      1710   3.42           311.51475      136508.83     -807623.86     -9738.913       0.36150546     0.057569593    28.122495      3493.0457    
      1720   3.44           330.16693      139613.4      -807623.79     -9820.7245      0.36148092     0.058057147    28.125357      3492.7       
      1730   3.46           331.89942      135430.52     -807627.6      -9711.393       0.36145623     0.057414734    28.09303       3492.3774    
      1740   3.48           329.68609      135859.79     -807628.28     -9682.1913      0.3614314      0.057246023    28.098003      3492.0509    
      1750   3.5            315.09266      131277.75     -807631.15     -9529.5298      0.36140643     0.056347304    28.019949      3491.7797    
      1760   3.52           322.26165      130413.4      -807634.3      -9468.4973      0.36138131     0.055990315    28.043251      3491.491     
      1770   3.54           318.36606      130641.02     -807633.68     -9484.8101      0.36135605     0.056090698    28.082726      3491.1737    
      1780   3.56           310.38667      132269.57     -807629.9      -9584.5889      0.36133065     0.056684749    28.033879      3490.8902    
      1790   3.58           312.76272      135401.03     -807627.47     -9687.797       0.36130511     0.057299188    28.01632       3490.6181    
      1800   3.6            309.85362      136911.76     -807626.1      -9734.577       0.36127942     0.057579965    28.082809      3490.299     
      1810   3.62           311.79432      138208.2      -807625.2      -9782.9543      0.3612536      0.057870253    28.106607      3489.9632    
      1820   3.64           309.7291       135647.79     -807627.12     -9723.3732      0.36122763     0.057521942    28.119452      3489.6183    
      1830   3.66           324.59834      134630.95     -807631.37     -9660.444       0.36120151     0.057153794    28.115631      3489.276     
      1840   3.68           309.84318      130255.7      -807634.44     -9503.8715      0.36117526     0.056231556    28.128329      3488.9248    
      1850   3.7            294.56211      132194.72     -807632.21     -9509.3809      0.36114886     0.056268267    28.16595       3488.5485    
      1860   3.72           306.56243      129465.03     -807634.96     -9481.9712      0.36112232     0.056110203    28.139391      3488.1901    
      1870   3.74           308.07897      134311.11     -807630.8      -9618.5571      0.36109564     0.056922665    28.13604       3487.8339    
      1880   3.76           305.95154      133026.18     -807630.15     -9634.2311      0.36106881     0.05701966     28.193059      3487.4403    
      1890   3.78           309.55707      137772.13     -807625.98     -9780.0488      0.36104184     0.057886997    28.214453      3487.033     
      1900   3.8            302.28879      135828.97     -807626.33     -9739.263       0.36101474     0.057649919    28.150422      3486.668     
      1910   3.82           318.20453      137920.86     -807627.89     -9753.628       0.36098748     0.057739309    28.101736      3486.3347    
      1920   3.84           310.43309      132126.93     -807632.15     -9581.814       0.36096009     0.056726513    28.045668      3486.0375    
      1930   3.86           313.4039       133552.48     -807632.96     -9561.2365      0.36093255     0.056609009    28.063935      3485.7278    
      1940   3.88           302.72979      128832.25     -807634.71     -9456.4347      0.36090487     0.055992804    28.043103      3485.4311    
      1950   3.9            304.25449      132727.37     -807631.99     -9539.5056      0.36087705     0.056489033    28.020366      3485.1483    
      1960   3.92           305.89164      130342.33     -807633.14     -9509.2014      0.36084909     0.056313948    28.055147      3484.8426    
      1970   3.94           310.71972      136684.01     -807627.5      -9699.191       0.36082098     0.05744355     28.067158      3484.5288    
      1980   3.96           322.73348      135406.36     -807628.2      -9725.7775      0.36079273     0.057605518    28.113539      3484.1855    
      1990   3.98           299.65701      139765.49     -807622.44     -9792.8686      0.36076434     0.058007461    28.131579      3483.8308    
      2000   4              322.82966      134454.11     -807630.33     -9636.5826      0.36073581     0.057086226    28.12892       3483.4778    
      2010   4.02           320.6709       134031.81     -807630.94     -299.92014      0.36070713     0.056858896    28.177052      3483.0951    
      2020   4.04           314.77011      131396.19     -807631.6      -298.20422      0.36067831     0.056538108    28.121335      3482.7468    
      2030   4.06           305.4592       131130.98     -807632.44     -295.76443      0.36064935     0.056080039    28.15814       3482.376     
      2040   4.08           310.57658      131680.06     -807633.08     -295.58202      0.36062025     0.056049974    28.16831       3481.9992    
      2050   4.1            311.95177      133160.49     -807629.78     -298.89039      0.36059101     0.056681923    28.182243      3481.6143    
      2060   4.12           324.91461      135711.62     -807626.74     -303.48783      0.36056162     0.057558478    28.233191      3481.1992    
      2070   4.14           322.13135      137256.64     -807625.68     -303.94894      0.36053209     0.057650651    28.195896      3480.8068    
      2080   4.16           311.44158      137470.74     -807624.44     -303.46313      0.36050242     0.057563245    28.187725      3480.4196    
      2090   4.18           338.6304       135007.75     -807629.46     -302.08001      0.36047261     0.057305622    28.117679      3480.0742    
      2100   4.2            318.87935      133762.5      -807628.14     -300.59327      0.36044265     0.057028321    28.13458       3479.7187    
      2110   4.22           317.96752      130834.86     -807632.18     -296.27576      0.36041256     0.056213902    28.121529      3479.3708    
      2120   4.24           312.94911      130745.03     -807633.28     -294.29134      0.36038232     0.055842072    28.128605      3479.0188    
      2130   4.26           320.01513      130659.85     -807632.29     -296.20616      0.36035193     0.05621015     28.128351      3478.6668    
      2140   4.28           325.13986      134808.55     -807628.52     -300.56383      0.36032141     0.057041925    28.181788      3478.284     
      2150   4.3            324.72757      135578.75     -807628.05     -300.93519      0.36029075     0.057117263    28.152725      3477.9181    
      2160   4.32           323.32131      138854.82     -807625        -303.59299      0.36025994     0.057626639    28.157237      3477.5498    
      2170   4.34           314.66316      136708.15     -807624.63     -302.7728       0.36022899     0.057475892    28.124876      3477.2       
      2180   4.36           336.66728      136138.01     -807627.66     -302.61163      0.36019789     0.057450255    28.07477       3476.8786    
      2190   4.38           322.49203      132010.77     -807630.41     -297.8994       0.36016666     0.056560551    28.079416      3476.5543    
      2200   4.4            325.83112      133093.32     -807632.57     -296.07391      0.36013528     0.056218854    28.102955      3476.2164    
      2210   4.42           317.00724      129831.5      -807633.11     -294.35704      0.36010377     0.055897744    28.088803      3475.8863    
      2220   4.44           327.75816      133120.16     -807631.94     -296.95503      0.36007211     0.056396054    28.17789       3475.5063    
      2230   4.46           326.9371       132584.27     -807630.93     -297.94715      0.3600403      0.05658947     28.185361      3475.1225    
      2240   4.48           325.12237      137072.47     -807626.42     -302.15422      0.36000836     0.057393616    28.122191      3474.7737    
      2250   4.5            309.00392      137306.27     -807623.11     -303.28424      0.35997627     0.057613397    28.177324      3474.3947    
      2260   4.52           315.25012      139049.17     -807622.7      -304.49632      0.35994404     0.05784883     28.120976      3474.0466    
      2270   4.54           328.38592      134647.64     -807628.63     -300.53495      0.35991167     0.057101374    28.128981      3473.694     
      2280   4.56           323.3086       134928.47     -807628.68     -299.73067      0.35987916     0.056953707    28.144081      3473.3333    
      2290   4.58           307.51426      130860.5      -807630.58     -295.78339      0.35984651     0.05620876     28.214192      3472.935     
      2300   4.6            323.10624      130830.48     -807633.18     -295.3889       0.35981371     0.05613891     28.216088      3472.536     
      2310   4.62           322.35036      130644.87     -807632.97     -295.6711       0.35978077     0.056197687    28.22348       3472.1335    
      2320   4.64           330.57061      132816.75     -807631.41     -298.51731      0.35974769     0.056743878    28.22753       3471.7292    
      2330   4.66           316.31256      136124.88     -807627.15     -300.93029      0.35971447     0.057207834    28.247601      3471.3149    
      2340   4.68           324.11276      135493.41     -807626.86     -302.53984      0.35968111     0.05751915     28.133956      3470.9607    
      2350   4.7            329.28743      137244.72     -807626.9      -303.42078      0.3596476      0.05769201     28.106651      3470.6208    
      2360   4.72           310.31362      135188.62     -807627.09     -300.90872      0.35961396     0.057219723    28.118789      3470.2745    
      2370   4.74           320.26072      134501.84     -807630.12     -299.48562      0.35958017     0.056954462    28.171724      3469.9006    
      2380   4.76           297.46173      130891.4      -807631.7      -295.12537      0.35954624     0.056130553    28.165917      3469.5298    
      2390   4.78           309.11029      132705.66     -807632.17     -296.4746       0.35951216     0.056392509    28.122998      3469.1813    
      2400   4.8            299.04055      130108.62     -807631.64     -295.98515      0.35947795     0.056304769    28.126528      3468.8309    
      2410   4.82           319.7815       133873.98     -807631.4      -299.25397      0.35944359     0.056932034    28.185783      3468.4503    
      2420   4.84           312.24044      133563.29     -807630.3      -299.55431      0.35940909     0.056994641    28.15624       3468.0848    
      2430   4.86           307.38119      137624.75     -807625.34     -303.86123      0.35937446     0.057819669    28.120043      3467.7378    
      2440   4.88           314.75462      134273.41     -807628.31     -302.17544      0.35933967     0.057504458    28.161507      3467.3698    
      2450   4.9            321.13391      135378.36     -807629.83     -301.55808      0.35930475     0.057392551    28.177551      3466.9938    
      2460   4.92           301.46938      131337.64     -807631.38     -297.36298      0.35926969     0.056599662    28.152565      3466.6304    
      2470   4.94           295.4019       132835.39     -807631.18     -296.67494      0.35923448     0.056474237    28.212924      3466.2372    
      2480   4.96           308.14992      128934        -807635.48     -294.19494      0.35919913     0.056007661    28.21735       3465.8421    
      2490   4.98           303.25869      131739.57     -807632.18     -296.66927      0.35916364     0.056484296    28.227497      3465.4423    
      2500   5              309.22708      132036.2      -807632.24     -297.43319      0.35912801     0.056635361    28.256419      3465.0287    
[...]
     98740   197.48         326.96572      134620.88     -807627.4      -9701.9294      0.36236891     0.057214317    29.270238      42.917273    
     98750   197.5          326.98044      134204.46     -807627.87     -9688.2275      0.36238762     0.057130565    29.268288      42.576673    
     98760   197.52         329.12116      135312.15     -807627.53     -9709.4851      0.36240618     0.057252987    29.30168       42.236068    
     98770   197.54         332.47941      134345.21     -807628.88     -9683.4331      0.36242459     0.057096467    29.271369      41.895467    
     98780   197.56         315.63646      135088.99     -807627.28     -9661.9645      0.36244287     0.056967009    29.23228       41.554872    
     98790   197.58         325.5504       133905.65     -807629.3      -9643.9404      0.362461       0.056857894    29.260973      41.214272    
     98800   197.6          330.49849      132698.1      -807630.47     -9630.0106      0.36247899     0.056772951    29.221153      40.873678    
     98810   197.62         309.80619      134112.68     -807627.24     -9643.8847      0.36249683     0.056851946    29.279642      40.533075    
     98820   197.64         324.08505      133989.53     -807629.06     -9654.2445      0.36251453     0.056910239    29.266822      40.192473    
     98830   197.66         323.10263      134959.28     -807627.41     -9706.7934      0.36253209     0.057217235    29.242984      39.851875    
     98840   197.68         321.81134      134657.98     -807627.16     -9715.1515      0.36254951     0.057263751    29.196991      39.511283    
     98850   197.7          325.01217      135985.39     -807627.93     -9707.9476      0.36256678     0.057218563    29.194425      39.170691    
     98860   197.72         324.2366       134284.01     -807629.06     -9675.7704      0.36258391     0.057026217    29.209189      38.830096    
     98870   197.74         326.48574      134622.82     -807629.07     -9690.0171      0.3626009      0.057107507    29.228878      38.489499    
     98880   197.76         315.56619      133522.66     -807629.07     -9651.6891      0.36261774     0.056878982    29.207432      38.148904    
     98890   197.78         316.43349      133663.51     -807629.86     -9636.7965      0.36263445     0.056788602    29.21174       37.808308    
     98900   197.8          311.65167      133222.7      -807629.6      -9632.2205      0.362651       0.056759044    29.239336      37.467708    
     98910   197.82         318.80888      133786.89     -807629.64     -9670.6992      0.36266742     0.056983205    29.238727      37.127108    
     98920   197.84         308.58111      135559.75     -807626.97     -9718.4211      0.36268369     0.05726183     29.200117      36.786512    
     98930   197.86         320.29908      134473        -807630.01     -9680.8736      0.36269982     0.057038061    29.207551      36.445915    
     98940   197.88         324.87796      134578.66     -807630.55     -9688.9802      0.36271581     0.057083307    29.246318      36.105313    
     98950   197.9          317.93926      133487.01     -807629.79     -9693.8368      0.36273165     0.057109426    29.226504      35.764713    
     98960   197.92         313.16936      134011.88     -807629.62     -9683.9894      0.36274735     0.057048942    29.244472      35.424111    
     98970   197.94         312.00369      131970.73     -807631.5      -9625.7649      0.36276291     0.056703507    29.255287      35.083507    
     98980   197.96         318.01815      133858.99     -807631.82     -9647.9277      0.36277832     0.056831649    29.275751      34.7429      
     98990   197.98         300.36819      134041.67     -807627.91     -9702.307       0.36279359     0.057149567    29.251856      34.402296    
     99000   198            310.85455      135393.52     -807627.62     -9760.5372      0.36280872     0.057490164    29.261236      34.061691    
     99010   198.02         312.55208      134211.05     -807629.59     -303.44917      0.3628237      0.057192333    29.322563      33.721078    
     99020   198.04         308.69903      135847.75     -807628.14     -304.30928      0.36283855     0.057352096    29.344149      33.380463    
     99030   198.06         303.62088      133482.4      -807628.51     -303.38371      0.36285324     0.057175341    29.331393      33.039849    
     99040   198.08         319.67936      133746.19     -807630.41     -303.71783      0.3628678      0.057236013    29.341215      32.699234    
     99050   198.1          306.95502      132254.78     -807631.43     -300.95732      0.36288221     0.056713539    29.338058      32.358619    
     99060   198.12         318.48647      133495.26     -807632.2      -301.74891      0.36289648     0.056860473    29.330372      32.018005    
     99070   198.14         303.91254      132829.98     -807629.38     -302.54485      0.36291061     0.057008238    29.364779      31.677388    
     99080   198.16         317.29886      134870.86     -807629.84     -303.82456      0.36292459     0.057247167    29.361805      31.33677     
     99090   198.18         314.75702      133884.93     -807630.11     -303.18442      0.36293843     0.057124372    29.321939      30.996157    
     99100   198.2          307.42744      135817        -807628.1      -304.02679      0.36295213     0.057280926    29.275391      30.655549    
     99110   198.22         304.98607      135152.93     -807627.57     -303.98647      0.36296568     0.057271191    29.295511      30.314938    
     99120   198.24         314.11522      134612.52     -807628.9      -303.65114      0.36297909     0.0572059      29.252783      29.974332    
     99130   198.26         311.35035      133824.83     -807629.82     -301.89244      0.36299236     0.056872495    29.28705       29.633722    
     99140   198.28         319.72835      133950.07     -807630.68     -301.67156      0.36300548     0.056828829    29.291328      29.293111    
     99150   198.3          322.43056      133564.11     -807629.65     -302.48247      0.36301846     0.056979549    29.287673      28.9525      
     99160   198.32         314.74035      134745.15     -807627.72     -302.75549      0.3630313      0.057028963    29.348943      28.611884    
     99170   198.34         322.60748      134658.22     -807628.86     -302.21768      0.36304399     0.056925666    29.264962      28.271275    
     99180   198.36         324.78702      134645.64     -807627.64     -303.42609      0.36305655     0.057151306    29.239551      27.930669    
     99190   198.38         334.80089      134641.54     -807627.65     -304.56886      0.36306895     0.057364591    29.253613      27.590061    
     99200   198.4          326.44322      136066.44     -807627.23     -303.61163      0.36308122     0.057182368    29.243719      27.249454    
     99210   198.42         313.81499      134913.33     -807626.8      -302.19664      0.36309334     0.056913968    29.254313      26.908845    
     99220   198.44         339.03569      134222.76     -807630.2      -302.18334      0.36310532     0.056909585    29.267151      26.568235    
     99230   198.46         322.8528       134573.53     -807627.35     -302.79272      0.36311715     0.05702249     29.326803      26.22762     
     99240   198.48         328.34028      134566.89     -807627.93     -302.92425      0.36312885     0.057045424    29.386343      25.886999    
     99250   198.5          315.87039      134187.44     -807627.54     -301.53732      0.3631404      0.056782436    29.339952      25.546382    
     99260   198.52         324.53991      135094.41     -807627.09     -303.27069      0.3631518      0.057107054    29.37017       25.205762    
     99270   198.54         344.21018      135371.54     -807628.13     -305.0203       0.36316306     0.05743473     29.39316       24.865141    
     99280   198.56         313.98804      135991.8      -807624.92     -304.05011      0.36317418     0.057250293    29.408972      24.524518    
     99290   198.58         337.29898      134652.68     -807629.73     -302.55007      0.36318516     0.056966125    29.38214       24.183898    
     99300   198.6          328.12679      134456.91     -807628.62     -302.50924      0.36319599     0.056956738    29.360829      23.84328     
     99310   198.62         328.90799      134443.3      -807627.93     -303.48018      0.36320668     0.057137866    29.328828      23.502664    
     99320   198.64         320.39234      134259.26     -807627.49     -302.87272      0.36321723     0.057021842    29.35564       23.162046    
     99330   198.66         326.49696      132949.59     -807630.69     -300.64534      0.36322763     0.056600872    29.354075      22.821428    
     99340   198.68         326.88129      134561.21     -807628.81     -302.68783      0.36323789     0.05698379     29.304283      22.480813    
     99350   198.7          328.02015      133989.91     -807627.26     -304.70662      0.36324801     0.057362249    29.311662      22.140199    
     99360   198.72         322.43437      136667.82     -807625.62     -305.68098      0.36325798     0.057544096    29.31393       21.799584    
     99370   198.74         314.02569      134825.91     -807628.46     -301.91558      0.36326781     0.056833726    29.226116      21.458975    
     99380   198.76         323.42937      135774.12     -807627.79     -304.06403      0.3632775      0.057236632    29.21196       21.118367    
     99390   198.78         320.29485      133441.94     -807627.82     -303.92059      0.36328704     0.057208128    29.268306      20.777754    
     99400   198.8          320.76719      135141.53     -807628.69     -303.20085      0.36329644     0.057071172    29.274673      20.437141    
     99410   198.82         311.51245      132827.5      -807630.39     -300.48148      0.3633057      0.056557866    29.266027      20.096529    
     99420   198.84         324.17018      135287.27     -807630.35     -302.41768      0.36331481     0.056920877    29.286709      19.755914    
     99430   198.86         323.7718       133131.12     -807629.7      -303.2608       0.36332378     0.05707816     29.374967      19.415294    
     99440   198.88         318.6206       135563.02     -807627.94     -304.46903      0.36333261     0.057304175    29.368532      19.074674    
     99450   198.9          322.38056      133976.31     -807630.88     -302.33809      0.36334129     0.056901751    29.36322       18.734055    
     99460   198.92         303.74962      135943.44     -807625.87     -304.84339      0.36334983     0.057371914    29.359432      18.393436    
     99470   198.94         315.44095      134327.5      -807628.31     -304.30659      0.36335823     0.057269563    29.352836      18.052817    
     99480   198.96         308.29821      136038.68     -807626.81     -304.82392      0.36336648     0.057365621    29.3644        17.712197    
     99490   198.98         321.76376      133047.47     -807632.42     -301.26878      0.3633746      0.056695304    29.343722      17.371579    
     99500   199            316.78691      134336.31     -807630.83     -302.15784      0.36338256     0.056861368    29.334458      17.030961    
     99510   199.02         318.77794      132999.14     -807630.6      -9691.5394      0.36339039     0.05699239     29.27751       16.690346    
     99520   199.04         316.87563      134277.43     -807629.18     -9729.5443      0.36339807     0.057214674    29.275182      16.349732    
     99530   199.06         307.35209      133335.59     -807629.24     -9687.0886      0.3634056      0.056963831    29.258707      16.009118    
     99540   199.08         313.04266      135122.44     -807628.26     -9743.8952      0.363413       0.05729671     29.240846      15.668505    
     99550   199.1          308.3951       135513.87     -807626.2      -9791.1157      0.36342025     0.057573231    29.220432      15.327892    
     99560   199.12         312.99145      135397.5      -807627.47     -9770.4272      0.36342736     0.057450455    29.187884      14.987281    
     99570   199.14         318.10894      134262.81     -807630.58     -9691.0005      0.36343432     0.056982332    29.222799      14.646668    
     99580   199.16         312.33395      134006.85     -807630.27     -9674.5734      0.36344114     0.056884674    29.225227      14.306054    
     99590   199.18         327.57737      133282.65     -807631.3      -9707.8008      0.36344782     0.057078997    29.220336      13.965441    
     99600   199.2          308.11031      134667        -807629.78     -9669.0615      0.36345435     0.056850199    29.259137      13.624825    
     99610   199.22         309.77685      134182.44     -807630.89     -9637.7883      0.36346074     0.056665329    29.263275      13.284208    
     99620   199.24         314.05447      133697.32     -807629.73     -9691.1918      0.36346699     0.056978335    29.249454      12.943593    
     99630   199.26         307.87659      135555.25     -807626.21     -9773.0513      0.3634731      0.057458654    29.236942      12.602977    
     99640   199.28         317.20035      135079.6      -807627.23     -9774.5089      0.36347906     0.057466281    29.238733      12.262361    
     99650   199.3          311.7954       135532.92     -807628.12     -9714.9326      0.36348487     0.057115106    29.26906       11.921743    
     99660   199.32         323.34673      135351.39     -807628.9      -9732.9043      0.36349055     0.05721987     29.27359       11.581126    
     99670   199.34         324.71986      134939.4      -807628.57     -9741.14        0.36349608     0.057267417    29.281821      11.240507    
     99680   199.36         326.3916       133719.79     -807630.03     -9690.801       0.36350147     0.056970634    29.250542      10.89989     
     99690   199.38         327.47877      132729.02     -807631.71     -9631.3188      0.36350671     0.05662013     29.235342      10.559273    
     99700   199.4          316.67715      133545.24     -807629.13     -9656.2552      0.36351181     0.056765929    29.198855      10.218657    
     99710   199.42         329.63734      135179.49     -807628.33     -9730.5575      0.36351677     0.057201948    29.199676      9.87804      
     99720   199.44         317.49724      135901.34     -807625.28     -9764.4843      0.36352158     0.057400629    29.201665      9.5374231    
     99730   199.46         323.3645       136118.14     -807626.87     -9729.6361      0.36352625     0.057195039    29.212085      9.1968054    
     99740   199.48         320.60155      136232.34     -807626.46     -9725.7375      0.36353078     0.057171409    29.200028      8.8561878    
     99750   199.5          320.94718      136264.79     -807624.83     -9772.3212      0.36353516     0.057444553    29.172256      8.5155707    
     99760   199.52         340.25104      134125.09     -807629.77     -9695.5713      0.3635394      0.056992729    29.211394      8.1749519    
     99770   199.54         326.63145      134026.3      -807629.53     -9637.5783      0.3635435      0.056651195    29.205084      7.8343331    
     99780   199.56         335.09416      133370.27     -807630.45     -9643.854       0.36354745     0.056687468    29.26614       7.4937122    
     99790   199.58         338.33559      133594.06     -807628.85     -9710.5204      0.36355126     0.057078741    29.231438      7.153092     
     99800   199.6          329.35984      135077.21     -807627.22     -9721.3491      0.36355493     0.057141816    29.181888      6.8124727    
     99810   199.62         320.20731      135445.29     -807626.42     -9707.2343      0.36355845     0.057058297    29.180615      6.471853     
     99820   199.64         321.97187      135678.36     -807626.31     -9719.9128      0.36356183     0.057132289    29.205156      6.1312324    
     99830   199.66         332.99185      136374.65     -807625.5      -9796.5915      0.36356507     0.057582483    29.182846      5.7906119    
     99840   199.68         328.27634      134645.17     -807627.54     -9713.7968      0.36356816     0.057095346    29.19639       5.4499907    
     99850   199.7          328.37551      134204.4      -807630        -9636.1377      0.36357111     0.056638425    29.20938       5.1093688    
     99860   199.72         329.12914      133703.04     -807629.81     -9649.2397      0.36357392     0.056714997    29.193407      4.7687469    
     99870   199.74         328.34742      133661.73     -807628.54     -9693.1704      0.36357658     0.056972789    29.169279      4.428125     
     99880   199.76         330.4555       134756.21     -807627.97     -9722.6959      0.3635791      0.057145933    29.198009      4.0875023    
     99890   199.78         323.72749      134558.1      -807628.36     -9686.093       0.36358148     0.056930425    29.228574      3.7468787    
     99900   199.8          318.15656      136426.81     -807625.98     -9741.0297      0.36358371     0.057252965    29.202249      3.4062552    
     99910   199.82         321.71805      136529.32     -807624.9      -9797.1603      0.3635858      0.057582542    29.258366      3.0656307    
     99920   199.84         335.12846      135406.26     -807628.53     -9744.0225      0.36358775     0.05726992     29.247255      2.7250061    
     99930   199.86         327.90014      134037.8      -807630.41     -9655.8189      0.36358955     0.056751227    29.282558      2.384381     
     99940   199.88         322.91618      133882.03     -807629.49     -9667.6753      0.36359121     0.056820653    29.207509      2.0437562    
     99950   199.9          319.04973      134136.24     -807627.86     -9706.9566      0.36359273     0.057051286    29.226187      1.7031309    
     99960   199.92         326.24827      134978.31     -807629.36     -9694.1424      0.3635941      0.056975758    29.276517      1.3625051    
     99970   199.94         336.95589      134149.75     -807631.92     -9663.4435      0.36359533     0.056795138    29.271872      1.0218791    
     99980   199.96         321.88906      136240.24     -807627.53     -9740.9846      0.36359641     0.0572507      29.257959      0.68125298   
     99990   199.98         321.2611       136139.59     -807625.77     -9800.4634      0.36359736     0.057600126    29.256076      0.34062661   
    100000   200            317.94823      135595.74     -807627.49     -9732.2991      0.36359816     0.057199379    29.191217      0            
Loop time of 3406.27 on 32 procs for 100000 steps with 1080 atoms

Performance: 5.073 ns/day, 4.731 hours/ns, 29.358 timesteps/s, 31.706 katom-step/s
67.0% CPU use with 32 MPI tasks x 1 OpenMP threads

MPI task timing breakdown:
Section |  min time  |  avg time  |  max time  |%varavg| %total
---------------------------------------------------------------
Pair    | 2546       | 2795.3     | 3153.9     | 279.7 | 82.06
Neigh   | 0.0016559  | 0.014623   | 0.043416   |  14.0 |  0.00
Comm    | 177.71     | 536.02     | 785.53     | 638.8 | 15.74
Output  | 2.427      | 2.4381     | 2.4499     |   0.4 |  0.07
Modify  | 65.109     | 66.235     | 67.194     |   7.5 |  1.94
Other   |            | 6.266      |            |       |  0.18

Nlocal:          33.75 ave          41 max          28 min
Histogram: 5 2 1 7 4 4 4 1 2 2
Nghost:        1039.88 ave        1054 max        1024 min
Histogram: 3 0 3 5 2 3 4 7 2 3
Neighs:              0 ave           0 max           0 min
Histogram: 32 0 0 0 0 0 0 0 0 0
FullNghs:       5310.5 ave        6488 max        4333 min
Histogram: 5 2 1 5 6 5 1 3 2 2

Total # of neighbors = 169936
Ave neighs/atom = 157.34815
Neighbor list builds = 4
Dangerous builds = 0

Total wall time: 1:00:21
