
units		metal
atom_style	atomic

read_data ${STRUCTURE}.data
read_data BaTiO3-sc333.data
Reading data file ...
  orthogonal box = (0 0 0) to (11.898253 11.898253 12.912076)
  2 by 4 by 4 MPI processor grid
  reading atoms ...
  135 atoms
  read_data CPU = 0.010 seconds
replicate $L $L $L
replicate 2 $L $L
replicate 2 2 $L
replicate 2 2 2
Replication is creating a 2x2x2 = 8 times larger system...
  orthogonal box = (0 0 0) to (23.796507 23.796507 25.824152)
  2 by 4 by 4 MPI processor grid
  1080 atoms
  replicate CPU = 0.003 seconds

pair_style allegro
pair_coeff	* * ${MODEL}.pth Ba Ti O
pair_coeff	* * BaTiO3-E0.pth Ba Ti O
mass 1 137.3
mass 2 47.9
mass 3 15.9994

timestep 0.002
compute polarization all allegro polarization 3
compute allegro will evaluate the quantity polarization of length 3 (src/compute_allegro.cpp:53)
compute polarizability all allegro polarizability 9
compute allegro will evaluate the quantity polarizability of length 9 (src/compute_allegro.cpp:53)

thermo_style custom pe fmax fnorm spcpu cpuremain

variable efield equal 1e-2*36.36
fix born all addbornforce 0.0 0.0 ${efield}
fix born all addbornforce 0.0 0.0 0.3636

thermo 10
min_style fire
#minimize 0.0 1e-6 100 100
velocity all create ${TEMP} ${SEED} dist gaussian rot yes mom yes
velocity all create 330 ${SEED} dist gaussian rot yes mom yes
velocity all create 330 3304 dist gaussian rot yes mom yes
fix nvt all nvt temp ${TEMP} ${TEMP} $(100*dt)
fix nvt all nvt temp 330 ${TEMP} $(100*dt)
fix nvt all nvt temp 330 330 $(100*dt)
fix nvt all nvt temp 330 330 0.2000000000000000111
run 5000
Neighbor list info ...
  update: every = 1 steps, delay = 0 steps, check = yes
  max neighbors/atom: 2000, page size: 100000
  master list distance cutoff = 8
  ghost atom cutoff = 8
  binsize = 8, bins = 3 3 4
  1 neighbor lists, perpetual/occasional/extra = 1 0 0
  (1) pair allegro/kk, perpetual
      attributes: full, newton on, kokkos_device
      pair build: full/bin/kk/device
      stencil: full/bin/3d
      bin: kk/device
Per MPI rank memory allocation (min/avg/max) = 3.516 | 3.516 | 3.516 Mbytes
    PotEng          Fmax          Fnorm          S/CPU         CPULeft    
-807708.29      1.5954359      37.041488      0              0            
-807644.21      3.9664251      46.101273      2.3337248      2138.2137    
-807633.55      2.4288668      36.12858       25.91259       1163.0566    
-807605.48      2.9527088      37.959726      25.920743      837.72689    
-807602.95      4.132859       50.654646      25.898103      674.91099    
-807565.29      3.7711304      41.902893      25.835326      577.15981    
-807601.23      2.9527781      39.384797      25.910926      511.77039    
-807644.35      3.5837983      35.434444      25.915728      464.94836    
-807682.64      3.0222673      35.237052      25.867985      429.77916    
-807665.56      3.0198603      35.380855      25.847027      402.35653    
-807651.38      3.2502398      35.699171      25.900764      380.30173    
-807658.32      2.881822       28.668945      25.912586      362.17885    
-807627.82      2.7430819      32.048982      25.917919      347.00891    
-807583.42      3.1615763      40.505956      25.862836      334.14423    
-807568.85      2.4970556      37.766939      25.931001      323.02684    
-807629.72      3.2135174      33.421449      25.919195      313.34604    
-807653.93      2.6352406      30.239778      25.860692      304.8535     
-807663.35      2.619048       34.033025      25.921222      297.28894    
-807646.17      5.0106451      44.016423      25.906022      290.52809    
-807678.33      2.6439945      36.307149      25.889529      284.44449    
-807641.09      4.0991915      38.968617      25.86412       278.93974    
-807615.57      3.1653654      38.387924      25.886552      273.91479    
-807560.15      4.5444796      45.534214      25.925798      269.29882    
-807603.09      4.2230443      49.03063       25.873622      265.06683    
-807613.52      4.5597581      38.059321      25.838706      261.16566    
-807639.81      3.461681       35.876995      25.924747      257.52122    
-807642.24      4.7105434      44.693179      25.927521      254.1267     
-807680.03      2.9434503      38.088743      25.857955      250.97321    
-807660.06      3.7786558      36.538487      25.806358      248.03041    
-807635.38      3.3068047      32.814639      25.910091      245.23864    
-807604.29      3.8131092      35.200876      25.926379      242.60344    
-807601.38      4.0209301      42.99151       25.909058      240.11728    
-807593.79      3.7074381      37.099653      25.817567      237.78238    
-807607.32      2.9275065      34.118972      25.909935      235.54599    
-807640.32      3.5844327      31.398573      25.926041      233.41515    
-807672.42      2.624803       32.636157      25.877254      231.39369    
-807674.15      2.7457597      33.57198       25.826135      229.47293    
-807642.41      4.3801904      38.450003      25.894842      227.6222     
-807645.62      2.916083       31.444728      25.900524      225.84753    
-807619.27      3.8528701      34.425984      25.921554      224.14037    
-807597.99      3.8777315      43.71022       25.857641      222.51023    
-807567.13      3.8643232      41.850808      25.887257      220.93581    
-807622.14      3.1750829      35.667469      25.895727      219.41658    
-807648.54      4.3520462      35.900886      25.858159      217.95601    
-807669.91      3.2541662      36.182844      25.885306      216.54005    
-807639.65      4.5667876      47.107962      25.896743      215.16813    
-807663.69      3.1263552      36.189863      25.834924      213.84818    
-807642.44      4.2631433      37.01172       25.840365      212.56715    
-807621.14      3.1770596      39.035208      25.894556      211.31574    
-807561.94      4.3699931      44.101482      25.897685      210.09923    
-807598.6       3.7450597      43.783585      25.922981      208.91253    
-807621.32      3.1033166      35.907994      25.890431      207.76152    
-807654.85      2.5046059      32.526164      25.896743      206.6391     
-807639.89      4.2282356      41.188433      25.917744      205.54183    
-807670.26      2.854663       34.793955      25.867895      204.47705    
-807663.42      3.0727472      33.543836      25.842496      203.44       
-807641.62      2.6446792      30.517895      25.902201      202.41911    
-807598.02      2.7944319      35.023908      25.93037       201.41723    
-807594.79      3.1937354      37.973927      25.888371      200.44136    
-807603.96      3.8838993      39.822827      25.81577       199.4936     
-807618.23      4.1124844      32.676073      25.891339      198.55623    
-807635.13      3.9204134      33.497478      25.910465      197.63488    
-807660.86      2.8679001      34.101298      25.904399      196.73144    
-807671.79      2.8431937      36.376869      25.810074      195.85421    
-807645.04      4.1869104      37.413327      25.849714      194.98823    
-807631.19      3.8462114      34.109651      25.926407      194.12935    
-807611.9       3.4788201      35.307703      25.912627      193.28614    
-807601.58      3.8129874      45.555568      25.809483      192.46656    
-807578.48      3.6833118      40.651308      25.863582      191.65454    
-807614.07      2.8694448      37.361242      25.918715      190.84971    
-807642.29      4.3408187      37.387598      25.916684      190.05704    
-807670.93      2.6542298      36.555247      25.80645       189.28578    
-807646.73      4.0095172      42.082653      25.848067      188.52148    
-807649.77      3.37381        36.055525      25.903406      187.76268    
-807639.1       3.9996766      35.713666      25.903054      187.01399    
-807621.34      3.5984139      38.379216      25.833409      186.28086    
-807574.63      3.4743772      39.834109      25.860532      185.55458    
-807586.71      3.7242813      40.79871       25.931366      184.83131    
-807622.57      3.2990368      34.230037      25.883228      184.12058    
-807656.33      3.7054008      33.609186      25.915525      183.4155     
-807648.42      3.9157295      38.100831      25.931929      182.71712    
-807654.04      5.1618819      37.085619      25.84558       182.03313    
-807660.21      3.1259911      34.117512      25.83085       181.3575     
-807642.04      4.4972663      33.849401      25.87256       180.68569    
-807601.7       4.0827326      36.841837      25.915094      180.01753    
-807582.35      3.7652597      39.877463      25.933418      179.35468    
-807602.78      3.9409971      40.18646       25.845645      178.70459    
-807626.3       4.144347       33.741756      25.888076      178.05753    
-807638.28      3.0686319      34.401675      25.900472      177.41554    
-807649.68      4.0270774      37.292966      25.929572      176.77729    
-807667.74      2.6694745      36.525351      25.894589      176.14703    
-807651.44      3.6662743      36.176275      25.873588      175.52355    
-807628.77      3.011459       34.863665      25.895638      174.90375    
-807601.89      4.7856393      36.967903      25.927337      174.28692    
-807602.3       4.3985377      43.930738      25.911229      173.67604    
-807593.23      4.635939       40.09569       25.873752      173.07227    
-807617.07      3.1067695      35.576809      25.897671      172.47154    
-807636.19      4.3829755      37.496229      25.883308      171.87611    
-807667.63      2.891853       35.797382      25.828875      171.2883     
-807654.22      3.6544903      38.248965      25.81583       170.70533    
-807647.14      3.0550801      34.631711      25.902407      170.12109    
-807630.18      4.81424        34.8292        25.928022      169.53927    
-807622.62      3.5275989      37.231019      25.889621      168.96353    
-807589.42      3.3508793      37.944258      25.917866      168.38984    
-807590.88      3.1998224      38.816431      25.926126      167.8193     
-807619.35      3.2639571      33.584622      25.932822      167.25191    
-807656.53      3.4783765      32.958937      25.909049      166.68926    
-807656.95      3.1587924      34.242709      25.859836      166.13261    
-807649.06      3.8638554      36.359865      25.906264      165.57659    
-807654.29      3.0285942      33.146538      25.894617      165.02432    
-807641.48      2.8265096      32.424439      25.849961      164.47743    
-807611.63      3.388063       35.109752      25.886097      163.93153    
-807581.13      3.6457903      39.416332      25.93494       163.38596    
-807603.03      2.9760152      37.493456      25.919729      162.84399    
-807630.98      5.1090274      34.718995      25.897554      162.30589    
-807647.67      3.1396246      33.235586      25.917444      161.76943    
-807643.42      3.9311598      38.144709      25.929614      161.23498    
-807662.8       2.9355914      34.960814      25.892763      160.70486    
-807651.39      4.1477303      35.692305      25.870045      160.17828    
-807632.22      2.7352871      33.968716      25.868867      159.65411    
-807594.76      4.0408511      37.017683      25.884061      159.13152    
-807600.77      3.5141673      40.154569      25.869119      158.61188    
-807602.09      3.3312595      37.638683      25.856231      158.09501    
-807628.32      2.8211062      33.481672      25.885769      157.57891    
-807632.05      4.4734304      37.893332      25.896069      157.06444    
-807662.66      3.0767152      35.281965      25.871195      156.55313    
-807656.59      3.4673139      36.76517       25.801246      156.04691    
-807646.88      3.2872982      33.840162      25.848795      155.54047    
-807620.08      3.5003332      35.452716      25.842473      155.03617    
-807616.94      3.0359577      36.564795      25.924839      154.53016    
-807597.22      3.697314       38.698837      25.823182      154.03031    
-807599.21      3.2624276      38.536628      25.823434      153.53218    
-807617.09      4.0193537      34.68763       25.895231      153.03273    
-807649.94      3.488609       33.95408       25.88686       152.53533    
-807658.1       3.2166797      35.446398      25.826438      152.04206    
-807649.36      3.5463193      36.214283      25.823364      151.55048    
-807641.74      3.7791945      34.744972      25.891054      151.05773    
-807635.65      3.7524265      33.026991      25.866675      150.5675     
-807612.94      3.1723686      37.709194      25.862153      150.07894    
-807585.99      3.7799044      40.089622      25.912378      149.58991    
-807600.36      3.4735459      38.12626       25.88861       149.10326    
-807628.43      3.9017475      35.533711      25.818665      148.6207     
-807649.43      3.4325161      35.488321      25.840025      148.13867    
-807643.93      4.1122325      38.330793      25.865708      147.65701    
-807652.81      3.5762412      36.146613      25.879177      147.17618    
-807644.85      3.2247405      36.074865      25.806678      146.69931    
-807634.45      3.3468756      34.908988      25.904779      146.2201     
-807593.94      3.8105858      38.467882      25.874467      145.74324    
-807595.13      3.3052073      39.988111      25.844787      145.26866    
-807605.1       4.0385539      37.802729      25.813866      144.79636    
-807632.86      3.2993609      35.00913       25.865727      144.32337    
-807634.69      4.2740638      36.985347      25.909499      143.85001    
-807653.12      2.8232756      35.545029      25.891447      143.37842    
-807652.74      3.4281589      36.061366      25.856114      142.90915    
-807646.44      2.6568206      34.456618      25.856768      142.44092    
-807615.09      3.4675732      36.142164      25.889855      141.97264    
-807605.08      3.2113138      37.592047      25.853672      141.50661    
-807599.15      3.5107916      39.539036      25.864278      141.04124    
-807611.66      3.424603       37.517362      25.811912      140.57857    
-807622.06      4.2790777      36.106108      25.867329      140.11506    
-807644.4       4.0322243      35.200161      25.9175        139.65093    
-807657.26      3.0846028      35.928051      25.801911      139.1914     
-807651.9       3.4162406      35.426931      25.840939      138.73154    
-807636.02      3.7350568      35.253555      25.826825      138.27302    
-807624.52      3.2423298      35.168588      25.894214      137.8133     
-807613.01      3.2833612      37.25248       25.829411      137.35644    
-807597.4       3.6157167      38.23515       25.842678      136.90001    
-807606.5       3.5778664      35.870534      25.905524      136.44255    
-807627.88      3.3686642      34.120645      25.91114       135.98578    
-807651.91      2.6184282      34.129331      25.895479      135.5303     
-807650.1       3.8091638      35.794324      25.890146      135.07578    
-807648.19      3.1114139      34.55327       25.904048      134.62167    
-807638.02      4.1724611      33.982674      25.906424      134.16828    
-807633.23      2.9338475      33.807653      25.834206      133.71772    
-807601.49      3.6991002      36.831718      25.895432      133.26616    
-807596.17      3.379682       39.043432      25.895254      132.81536    
-807610.96      3.1513229      35.747998      25.890801      132.36541    
-807639.7       2.8007317      34.34701       25.87256       131.91669    
-807641.74      4.3326247      36.505293      25.910273      131.46764    
-807649.55      3.5166672      35.961488      25.918105      131.01909    
-807648.28      3.9896441      36.232893      25.878751      130.57228    
-807646.66      3.049667       33.517467      25.881427      130.12606    
-807616.47      3.1375563      36.201412      25.855404      129.68119    
-807601.22      2.9795798      37.469355      25.881637      129.23626    
-807601.16      3.8929583      37.365064      25.868643      128.79231    
-807620.5       2.9173865      35.695621      25.881282      128.34866    
-807630.25      3.6061756      34.70575       25.902595      127.90509    
-807642.8       3.5123938      35.271996      25.927623      127.4615     
-807653.97      2.981668       34.443039      25.910048      127.01897    
-807651.34      3.6519478      34.496783      25.860789      126.57825    
-807635.37      3.0163861      34.187796      25.856548      126.1382     
-807614.9       4.1163573      35.195312      25.906874      125.69749    
-807608.31      3.4443919      37.111039      25.892248      125.2577     
-807604.79      3.2114564      37.664267      25.907624      124.8181     
-807617.09      2.8760366      34.541771      25.89287       124.3794     
-807627.61      3.5101926      35.070883      25.901812      123.94103    
-807649.89      2.8132996      34.151911      25.851674      123.50436    
-807650.51      3.6826725      35.957338      25.835652      123.06856    
-807644.56      2.8194646      34.396425      25.873369      122.63239    
-807628.17      4.0646621      35.463119      25.861233      122.197      
-807624.97      2.9299937      35.159636      25.893662      121.76137    
-807605.44      3.6188027      37.092432      25.893676      121.32623    
-807602.48      2.9986483      37.53276       25.897634      120.89148    
-807613.38      3.784507       35.780129      25.886757      120.45745    
-807636.51      3.0914074      35.457715      25.860434      120.02447    
-807645.79      3.045816       35.325196      25.822666      119.59274    
-807643.64      3.8470668      36.372228      25.880651      119.16021    
-807640.33      3.4124552      35.480153      25.858589      118.72859    
-807636.39      3.6095433      34.618147      25.870452      118.29716    
-807618.48      3.1365604      35.356877      25.855218      117.86647    
-807601.7       3.4894108      37.143803      25.86312       117.43604    
-807601.83      3.4657652      37.365051      25.91334       117.00499    
-807621.98      3.1660756      35.722355      25.879561      116.57506    
-807638.11      4.1871449      34.504607      25.83685       116.14639    
-807639.21      4.4153991      36.364606      25.846784      115.71792    
-807646.66      3.8454669      35.06406       25.845706      115.28985    
-807646.6       2.8612625      34.188364      25.858235      114.86192    
-807634.14      3.7945845      34.465012      25.888863      114.43377    
-807608.63      2.9215471      35.866194      25.929643      114.00522    
-807604.76      3.3769262      36.755072      25.94914       113.57669    
-807608.64      3.1384416      36.708171      25.929324      113.14893    
-807624.64      2.7177729      34.14226       25.915343      112.72181    
-807631.59      3.4901549      35.071045      25.886022      112.29561    
-807646.89      2.9804509      34.220814      25.882017      111.86984    
-807649.98      3.1358481      35.157968      25.859991      111.44483    
-807645.43      3.2119137      33.884791      25.844913      111.02043    
-807624.92      3.5029808      35.095902      25.87365       110.59585    
-807616.91      3.4155046      35.699875      25.887113      110.17136    
-807607.22      3.3867052      37.680634      25.882878      109.74728    
-807613.1       3.1717221      35.733876      25.847022      109.32416    
-807620.9       3.5541809      34.146099      25.8865        108.90067    
-807638.35      3.571133       34.145535      25.897498      108.47731    
-807649.64      2.9566718      34.334567      25.825838      108.0555     
-807648.51      2.8042087      34.457361      25.872719      107.63319    
-807637.75      4.4194666      34.730618      25.880595      107.21105    
-807627.84      3.6012761      34.354856      25.891991      106.78902    
-807618.5       3.6927377      35.244081      25.914358      106.36693    
-807606.01      3.3753223      37.130835      25.861004      105.94602    
-807608.12      3.7626177      35.818275      25.893662      105.52486    
-807624.76      3.3022728      35.629246      25.858599      105.10457    
-807643.44      3.4173988      34.366039      25.830399      104.68502    
-807644.78      3.2938135      35.412748      25.853332      104.26536    
-807644.59      2.9458775      34.842698      25.868994      103.84573    
-807640.43      3.3804275      33.97745       25.817898      103.42718    
-807630.75      3.349503       33.614039      25.815896      103.00891    
-807610.21      3.4857496      36.418053      25.88943       102.58976    
-807602.67      3.376955       37.434928      25.903476      102.17065    
-807612.97      3.843984       36.183051      25.939376      101.75126    
-807631.91      3.3698706      34.596002      25.876455      101.3331     
-807638.6       3.1543664      34.605225      25.928709      100.91441    
-807644.91      3.6410128      35.501512      25.906153      100.49632    
-807647.83      2.4204306      34.331967      25.891466      100.07871    
-807641.69      3.1918374      33.986954      25.851306      99.661929    
-807622.18      3.3797095      34.241398      25.919884      99.24439     
-807607.61      3.432958       36.320691      25.924432      98.827033    
-807605.01      4.5267621      37.780807      25.857146      98.41089     
-807616.1       3.3243854      36.272173      25.832286      97.995331    
-807625.79      4.3422962      35.99976       25.858744      97.579619    
-807639.16      3.3859223      35.210032      25.874683      97.163908    
-807646.73      3.5030815      35.489543      25.848949      96.748781    
-807647.09      2.8850768      35.710776      25.820929      96.334259    
-807633.2       3.4983823      35.59924       25.864872      95.919343    
-807620.31      3.3040677      36.06443       25.872944      95.504533    
-807611.32      3.7935224      37.192616      25.905117      95.089506    
-807604.99      3.2228708      38.523713      25.899072      94.67478     
-807613.06      3.1940023      36.603371      25.885526      94.260448    
-807628.57      3.0400888      35.661373      25.898538      93.846157    
-807643.27      3.2782075      35.287872      25.888849      93.432202    
-807645.2       2.9642316      36.161518      25.856511      93.018873    
-807640.55      3.6107762      35.950414      25.855638      92.605752    
-807630.93      3.6584621      36.644607      25.866008      92.192695    
-807624.13      2.9892581      35.733631      25.893021      91.779491    
-807609.87      3.4149998      37.349036      25.927145      91.36606     
-807605.14      3.0134061      37.979511      25.890848      90.953282    
-807616.73      3.108579       36.854616      25.857128      90.541113    
-807634.64      3.3085835      36.093019      25.911066      90.128471    
-807641.35      3.4919352      36.017468      25.907123      89.716069    
-807643         3.2081517      36.309225      25.840566      89.304659    
-807641.46      3.2585557      36.357452      25.820235      88.893668    
-807634.89      4.3540505      35.610217      25.853239      88.482455    
-807619.24      3.2720263      35.506862      25.886842      88.071022    
-807607.84      3.7415793      37.085591      25.925751      87.659315    
-807608.46      3.3277185      37.229833      25.906284      87.248018    
-807622.91      3.0020717      36.260988      25.876535      86.837239    
-807634.62      2.7210201      34.768145      25.891579      86.426461    
-807641.82      3.3640388      34.70855       25.892543      86.015844    
-807645.38      3.3945588      35.492806      25.913495      85.605164    
-807644.95      2.8234342      34.976718      25.886944      85.194951    
-807631.38      3.3505862      34.683004      25.879243      84.784989    
-807618.37      3.3275822      34.95866       25.920579      84.374739    
-807608.96      3.647959       36.969686      25.885695      83.965035    
-807614.07      3.600663       36.930611      25.904507      83.55529     
-807621.15      3.1272589      35.527945      25.895728      83.1458      
-807633.63      2.9433273      34.62435       25.916975      82.736247    
-807642.09      3.1063684      35.530334      25.895194      82.327081    
-807646.91      2.9692873      35.493025      25.878022      81.91825     
-807639.89      3.7740705      35.135318      25.891864      81.509428    
-807628.2       3.0126323      35.330929      25.914649      81.100526    
-807620.02      3.0612514      35.262728      25.900599      80.69192     
-807611.58      3.2227818      36.326953      25.884455      80.283627    
-807614.36      3.4785609      35.589879      25.906701      79.875259    
-807621.35      3.727611       35.665197      25.875628      79.467345    
-807637.42      3.034963       34.035328      25.855396      79.059773    
-807644.62      3.6707151      34.956487      25.852207      78.652369    
-807642.3       3.9086614      35.69479       25.8605        78.24502     
-807636.38      3.6709452      35.2934        25.87921       77.837628    
-807629.45      3.3040003      34.981464      25.919833      77.429989    
-807618.38      3.9196568      35.038295      25.87436       77.022919    
-807608.01      2.8958347      37.203962      25.875717      76.615969    
-807610.78      3.2683513      36.834011      25.89126       76.209009    
-807626.5       2.5146953      34.508063      25.876483      75.802318    
-807636.42      3.1647259      35.372404      25.831359      75.396167    
-807642.82      3.4992201      35.236545      25.858104      74.989897    
-807638.85      3.6778979      36.208756      25.910977      74.58328     
-807640.52      3.3179464      34.945225      25.907381      74.176827    
-807625.29      3.5421543      36.004424      25.911961      73.770464    
-807614.09      2.6722326      35.674109      25.857623      73.364702    
-807605.94      3.1218719      36.62873       25.899358      72.9587      
-807617.49      2.8343836      36.330181      25.930418      72.552559    
-807626.25      2.6994913      35.363737      25.876624      72.147001    
-807636.36      2.9695626      34.412385      25.916103      71.741232    
-807640.85      3.5695897      35.895621      25.927798      71.33549     
-807643.07      3.5520738      35.647486      25.917304      70.929958    
-807636.99      3.2799279      35.336541      25.894304      70.524736    
-807622.49      3.9939257      35.611847      25.900018      70.119586    
-807613.74      3.9401154      35.852893      25.863223      69.714848    
-807611.51      3.4890667      36.584738      25.857599      69.310266    
-807617.75      3.4435308      35.941444      25.866998      68.905719    
-807626.9       3.2676513      34.308406      25.868905      68.501267    
-807635.28      4.2244641      34.551228      25.855946      68.097024    
-807642.33      3.8313536      35.444567      25.84377       67.692981    
-807640.98      2.8542552      35.284539      25.852818      67.288972    
-807631.47      3.294449       34.596196      25.859715      66.885014    
-807624.59      3.1054013      35.401288      25.898843      66.480868    
-807614.04      3.4693784      36.896958      25.893335      66.076869    
-807614.19      3.411117       37.189451      25.894824      65.672967    
-807615.91      3.0173429      36.409791      25.917393      65.269005    
-807628.92      4.1593247      35.572452      25.902216      64.865261    
-807638.67      3.9607315      36.454875      25.893377      64.461684    
-807642.75      3.7607376      36.523294      25.853136      64.058495    
-807636.45      3.7000509      36.74329       25.85731       63.655374    
-807634.08      3.9262959      35.493254      25.855381      63.252362    
-807623.04      3.0401945      35.877996      25.86398       62.849385    
-807614.39      3.471142       36.580252      25.871004      62.446456    
-807609.58      3.8557676      36.882516      25.904859      62.043393    
-807619         2.7904219      36.185122      25.899442      61.640465    
-807631.93      3.2917523      35.399854      25.839601      61.238032    
-807640.15      2.9478668      35.258497      25.831154      60.835744    
-807641.32      4.1460316      35.491972      25.866082      60.433314    
-807639.27      2.9625236      34.569315      25.878607      60.030895    
-807634.27      2.8199689      34.282352      25.853024      59.62873     
-807619.87      3.5884187      36.353413      25.856446      59.226632    
-807613.01      4.3573298      36.245724      25.899096      58.824353    
-807611.38      3.8533409      37.006524      25.899348      58.422164    
-807623.82      3.9478909      35.966171      25.918786      58.019946    
-807631.45      3.0607636      35.159437      25.874964      57.618088    
-807637.93      3.0607263      35.356153      25.916703      57.216064    
-807641.96      3.1497776      35.24592       25.860738      56.814465    
-807640.47      3.0657461      35.485428      25.864073      56.41293     
-807629.69      3.0512057      35.471079      25.831266      56.011671    
-807618.01      3.6314713      36.635301      25.862826      55.610307    
-807612.75      2.8730102      36.43638       25.890717      55.208863    
-807616.9       3.2057144      36.229738      25.882616      54.80755     
-807620.72      3.9655851      36.284333      25.913063      54.406148    
-807632.82      3.669641       35.286721      25.931715      54.004727    
-807639.77      3.9109056      35.828397      25.91678       53.603475    
-807642.92      2.630264       34.709124      25.91898       53.202295    
-807634.82      3.6332064      35.55788       25.857073      52.801534    
-807628.49      2.9594786      34.747152      25.896694      52.400637    
-807620.78      3.3728284      34.758325      25.913309      51.999731    
-807613.69      2.6497371      35.919835      25.890616      51.599026    
-807614.18      2.7176478      35.914354      25.895251      51.198374    
-807623.69      3.311124       35.315233      25.900891      50.797772    
-807635.41      2.9313574      34.538346      25.886567      50.39732     
-807641.22      3.0103073      34.573159      25.855163      49.997101    
-807638.62      3.6833893      35.637416      25.846006      49.597       
-807635.91      3.0170603      34.722094      25.843399      49.196983    
-807628.94      3.1827775      34.409327      25.879333      48.796859    
-807619.23      3.4972455      35.578847      25.858166      48.39691     
-807612.79      2.7136666      36.139295      25.872384      47.996963    
-807613.96      2.9303386      36.382452      25.875395      47.597072    
-807624.39      3.1221898      35.904057      25.881214      47.197225    
-807632.7       3.2192086      35.286866      25.852386      46.797581    
-807639.15      2.9592006      34.681979      25.85697       46.397983    
-807637.66      3.6969663      36.423445      25.866775      45.998408    
-807636.79      3.7850791      35.5483        25.871828      45.598878    
-807626.3       3.3543891      35.053871      25.901552      45.199284    
-807616.53      2.8839616      36.35047       25.909276      44.799727    
-807612.45      2.9074653      36.236308      25.855406      44.400472    
-807616.24      3.4903109      36.556936      25.871987      44.00121     
-807623.86      4.0142409      36.16059       25.825448      43.60221     
-807635.46      3.5805208      34.330827      25.868631      43.20309     
-807640.19      3.8340451      35.409409      25.800291      42.804316    
-807639.82      3.2617686      35.493528      25.805829      42.405576    
-807633.5       3.7077215      34.918037      25.849903      42.006716    
-807625.27      3.5996386      35.610433      25.885542      41.607775    
-807615.1       2.9380121      36.019603      25.868841      41.208963    
-807613.02      2.7258123      36.186262      25.89549       40.81011     
-807617.29      3.1219823      35.613985      25.877364      40.41139     
-807625.25      3.901809       35.289993      25.86664       40.012772    
-807636.25      3.088411       34.684575      25.850341      39.614275    
-807638.69      3.4002681      34.978833      25.864117      39.215785    
-807641.13      2.663651       33.965374      25.861108      38.817365    
-807632.37      3.7121856      35.238256      25.892503      38.418891    
-807624.35      2.933285       35.023115      25.885228      38.020503    
-807616.56      3.4330042      35.894786      25.910701      37.622085    
-807616.23      2.9667784      35.764964      25.865574      37.223885    
-807616.9       3.1347228      36.321019      25.839061      36.825833    
-807627.6       4.5907172      34.941284      25.85345       36.427786    
-807635.36      2.7062805      34.602301      25.853161      36.029795    
-807640.73      2.8076515      34.439665      25.890691      35.631736    
-807637.09      3.2115831      34.130386      25.911189      35.233667    
-807632.61      3.1959934      34.820285      25.86828       34.835795    
-807626.51      2.779188       33.483865      25.899055      34.43788     
-807618.19      2.8188065      35.245906      25.869299      34.040115    
-807614.84      2.8455033      35.11438       25.849613      33.642464    
-807621.77      2.7355062      34.239359      25.856471      33.244844    
-807630.88      3.447697       33.961257      25.853147      32.847287    
-807635.59      3.2332932      34.450775      25.870304      32.44973     
-807639.81      3.2662105      34.035153      25.871435      32.052223    
-807638.43      3.6696544      34.70161       25.902367      31.65468     
-807631.57      3.3608899      34.436406      25.875849      31.257266    
-807623.33      3.3053469      34.58146       25.85796       30.859953    
-807618.52      3.2768458      35.35257       25.827442      30.462773    
-807617.62      3.1723722      35.530839      25.878772      30.065503    
-807623.84      2.9361092      35.459223      25.924414      29.668164    
-807631.35      2.8809902      35.488615      25.896179      29.270953    
-807637.29      3.5019805      35.483771      25.928733      28.87371     
-807639.1       3.610742       35.505466      25.902419      28.476587    
-807635.74      3.4977919      35.493229      25.857652      28.079627    
-807629.74      3.7467074      35.53176       25.893289      27.682627    
-807622.19      3.1848876      35.16577       25.90039       27.285661    
-807617.33      2.7847835      35.503029      25.913234      26.888715    
-807616.84      3.3710385      36.234501      25.87036       26.491918    
-807624.96      3.1388831      35.133654      25.888289      26.095129    
-807630.41      3.1214085      35.524801      25.884816      25.698395    
-807636.76      4.0447007      35.557767      25.867098      25.301748    
-807636.85      3.5509526      36.636118      25.892437      24.905093    
-807634.55      3.0626096      36.226566      25.873731      24.508524    
-807627.72      3.4728772      35.9667        25.856625      24.112037    
-807621.84      2.9182049      36.186945      25.843608      23.715621    
-807616.28      3.1164587      36.446271      25.858815      23.319218    
-807616.54      3.7373582      36.772774      25.87061       22.922835    
-807622.83      3.2594208      35.365456      25.864332      22.526508    
-807629.41      4.2108847      35.972572      25.904903      22.130149    
-807635.81      3.4097297      36.075187      25.873586      21.733894    
-807637.52      3.1313771      35.552598      25.84359       21.337738    
-807631.5       2.9308084      36.335996      25.823296      20.941658    
-807626.78      3.0104729      36.045617      25.84686       20.545577    
-807621.85      2.8038742      36.451216      25.82359       20.149577    
-807616.63      3.4616934      36.703028      25.83742       19.753592    
-807616.95      2.955355       35.86692       25.915616      19.35752     
-807624.1       3.0335925      34.980712      25.900048      18.961518    
-807632.78      2.7777853      34.134924      25.87901       18.565592    
-807636.17      3.934025       34.237782      25.803025      18.169824    
-807634.68      3.9043905      35.212416      25.854454      17.774015    
-807633.09      3.2682125      35.090668      25.841715      17.378264    
-807627.02      2.9479962      35.243043      25.854851      16.982533    
-807620.39      3.3888576      34.73247       25.815577      16.586896    
-807616.57      3.2282238      35.374974      25.892418      16.191191    
-807619.1       3.3017709      35.448633      25.867944      15.79556     
-807625.47      3.5032056      35.744468      25.875297      15.399959    
-807632.84      2.8833357      34.845694      25.861842      15.004414    
-807636.17      2.9595276      35.456541      25.844504      14.608927    
-807635.1       3.4345162      36.192381      25.833574      14.213491    
-807634.86      3.3988647      35.633352      25.841291      13.818081    
-807625.42      3.0887381      36.358676      25.874409      13.422672    
-807621.36      2.9069583      35.679081      25.855747      13.027321    
-807616.49      3.4060529      36.467203      25.897453      12.631963    
-807622.4       3.1939708      35.268459      25.917896      12.236625    
-807626.01      3.2166434      35.769158      25.904518      11.84134     
-807631.43      3.8235687      35.336437      25.85058       11.446144    
-807638         2.8918072      34.764114      25.853548      11.050981    
-807635.86      4.8732974      35.37829       25.832964      10.65587     
-807632.18      3.5647344      34.691667      25.891117      10.260746    
-807627.04      4.0346771      34.747006      25.859296      9.8656845    
-807621.48      3.9303015      34.952259      25.918145      9.4706135    
-807620.81      3.0441881      34.802243      25.931246      9.0755719    
-807622.15      3.2940827      35.009257      25.921824      8.6805762    
-807628.51      2.8434613      35.00377       25.920022      8.28562      
-807633.57      3.5618678      35.357727      25.928419      7.8906969    
-807635.48      3.1041282      35.664083      25.887189      7.4958364    
-807635.87      3.5213538      35.59729       25.857456      7.1010281    
-807629.89      2.8988493      35.221622      25.838712      6.7062631    
-807627.18      3.1351692      34.860007      25.847565      6.3115257    
-807621.03      3.2482498      35.358821      25.837136      5.9168255    
-807620.42      3.2686181      35.912395      25.832852      5.5221587    
-807621.44      3.6552785      34.987298      25.907274      5.1274933    
-807629.58      3.7379796      35.236695      25.863584      4.7328795    
-807631.17      3.9416752      35.626102      25.868182      4.3382967    
-807637.17      3.6518775      34.298449      25.816293      3.9437624    
-807631.69      3.1842155      35.485972      25.866701      3.5492436    
-807629.81      3.1893776      35.116005      25.861524      3.1547582    
-807624.32      3.7099354      35.805981      25.819007      2.7603136    
-807619.84      3.0712248      35.954678      25.866313      2.3658892    
-807617.3       3.2947331      36.015044      25.855075      1.9714982    
-807621.31      3.541234       36.155455      25.840064      1.5771396    
-807626.94      3.6878302      35.54581       25.876939      1.1828074    
-807633.33      3.1436112      34.410873      25.852096      0.78850833   
-807633.84      4.3426876      35.784204      25.853637      0.39423921   
-807633.75      3.224357       34.537358      25.859357      0            
Loop time of 197.112 on 32 procs for 5000 steps with 1080 atoms

Performance: 4.383 ns/day, 5.475 hours/ns, 25.366 timesteps/s, 27.396 katom-step/s
67.7% CPU use with 32 MPI tasks x 1 OpenMP threads

MPI task timing breakdown:
Section |  min time  |  avg time  |  max time  |%varavg| %total
---------------------------------------------------------------
Pair    | 101.83     | 144.65     | 192.99     | 309.2 | 73.39
Neigh   | 0          | 0          | 0          |   0.0 |  0.00
Comm    | 1.8439     | 50.181     | 92.999     | 525.0 | 25.46
Output  | 0.02759    | 0.03043    | 0.031551   |   0.4 |  0.02
Modify  | 1.9246     | 1.9304     | 1.9362     |   0.2 |  0.98
Other   |            | 0.3158     |            |       |  0.16

Nlocal:          33.75 ave          48 max          21 min
Histogram: 8 8 0 0 0 0 0 8 0 8
Nghost:        1106.25 ave        1119 max        1092 min
Histogram: 8 0 8 0 0 0 0 0 8 8
Neighs:              0 ave           0 max           0 min
Histogram: 32 0 0 0 0 0 0 0 0 0
FullNghs:       5494.5 ave        7896 max        3378 min
Histogram: 8 8 0 0 0 0 0 8 0 8

Total # of neighbors = 175824
Ave neighs/atom = 162.8
Neighbor list builds = 0
Dangerous builds = 0

reset_timestep 0


variable interval equal 1000
thermo 10

variable nintervals equal $(v_PERIOD/v_interval)
variable nintervals equal 100
variable efield equal 1e-2*36.36*cos((step/${PERIOD})*2*3.14)
variable efield equal 1e-2*36.36*cos((step/100000)*2*3.14)
fix born all addbornforce 0.0 0.0 v_efield

variable Px equal f_born[1]+c_polarization[1]
variable Py equal f_born[2]+c_polarization[2]
variable Pz equal (f_born[3]+c_polarization[3])/vol
variable pe equal pe

fix aveP all ave/time 1 $(v_interval/2) ${interval} v_efield v_Pz v_pe f_born file Pz.${MODEL}.${STRUCTURE}.${TEMP}.$L.${ITER}
fix aveP all ave/time 1 500 ${interval} v_efield v_Pz v_pe f_born file Pz.${MODEL}.${STRUCTURE}.${TEMP}.$L.${ITER}
fix aveP all ave/time 1 500 1000 v_efield v_Pz v_pe f_born file Pz.${MODEL}.${STRUCTURE}.${TEMP}.$L.${ITER}
fix aveP all ave/time 1 500 1000 v_efield v_Pz v_pe f_born file Pz.BaTiO3-E0.${STRUCTURE}.${TEMP}.$L.${ITER}
fix aveP all ave/time 1 500 1000 v_efield v_Pz v_pe f_born file Pz.BaTiO3-E0.BaTiO3-sc333.${TEMP}.$L.${ITER}
fix aveP all ave/time 1 500 1000 v_efield v_Pz v_pe f_born file Pz.BaTiO3-E0.BaTiO3-sc333.330.$L.${ITER}
fix aveP all ave/time 1 500 1000 v_efield v_Pz v_pe f_born file Pz.BaTiO3-E0.BaTiO3-sc333.330.2.${ITER}
fix aveP all ave/time 1 500 1000 v_efield v_Pz v_pe f_born file Pz.BaTiO3-E0.BaTiO3-sc333.330.2.9

thermo_style custom step time temp press pe f_born v_efield v_Pz spcpu cpuremain

# dump 4a all custom 1000 dump.hyst.${MODEL}.${STRUCTURE}.${TEMP}.$L.${ITER}.bin id type xu yu zu fx fy fz
# dump_modify 4a sort id

fix nvt all nvt temp ${TEMP} ${TEMP} $(100*dt)
fix nvt all nvt temp 330 ${TEMP} $(100*dt)
fix nvt all nvt temp 330 330 $(100*dt)
fix nvt all nvt temp 330 330 0.2000000000000000111

run $(v_PERIOD)
run 100000
WARNING: non-constant efield is experimental, strongly distrust scalar/vector output (src/fix_addbornforce.cpp:193)
Per MPI rank memory allocation (min/avg/max) = 3.516 | 3.516 | 3.516 Mbytes
   Step          Time           Temp          Press          PotEng         f_born        v_efield         v_Pz          S/CPU         CPULeft    
         0   0              339.81937      129766.13     -807633.75     -295.72465      0.3636         0.055617462    0              0            
        10   0.02           335.88714      133360.89     -807628.18     -300.7979       0.36359993     0.056571608    28.895073      3460.4752    
        20   0.04           350.74712      137830.14     -807624.51     -306.60642      0.36359971     0.057664062    28.98103       3454.986     
        30   0.06           342.02969      140852.27     -807619.11     -310.89514      0.36359935     0.058470707    29.010249      3451.7665    
        40   0.08           344.91363      141358.68     -807618.27     -312.28288      0.36359885     0.058731784    28.896024      3453.392     
        50   0.1            331.89293      139408.68     -807620.89     -307.97047      0.36359821     0.057920841    29.008062      3451.556     
        60   0.12           329.71109      134983.38     -807626.75     -301.99338      0.36359742     0.056796836    28.990953      3450.5551    
        70   0.14           323.70594      130210.53     -807630.89     -297.22675      0.36359649     0.055900505    28.94569       3450.5125    
        80   0.16           325.70899      128576.11     -807633.55     -295.00308      0.36359541     0.055482455    28.919498      3450.7849    
        90   0.18           331.83198      129081.12     -807634.63     -294.98288      0.36359419     0.055478843    28.957983      3450.4096    
       100   0.2            335.24677      133886.06     -807629.13     -301.1995       0.36359283     0.056648245    29.021897      3449.2807    
       110   0.22           345.19094      137334.23     -807624.39     -307.63526      0.36359132     0.057858892    29.046519      3448.0291    
       120   0.24           333.84229      142456.21     -807618.85     -311.8517       0.36358968     0.058652171    29.029894      3447.0933    
       130   0.26           327.93202      140794.78     -807620.38     -309.84327      0.36358788     0.058274719    29.017768      3446.3583    
       140   0.28           326.91705      139634.84     -807622.17     -308.14575      0.36358595     0.057955761    29.094764      3445.0289    
       150   0.3            333.52007      132741.7      -807629.6      -301.88004      0.36358387     0.056777636    29.04028       3444.2601    
       160   0.32           316.1258       130902.07     -807631.43     -297.74302      0.36358165     0.055999888    29.009326      3443.7738    
       170   0.34           325.03084      127324.98     -807637.2      -293.46308      0.36357928     0.05519527     28.936277      3443.815     
       180   0.36           328.62861      131261.12     -807634.13     -297.15003      0.36357677     0.055889107    28.921168      3443.9135    
       190   0.38           331.33304      132507.28     -807629.25     -302.63644      0.36357412     0.056921427    28.915882      3443.9983    
       200   0.4            327.622        139690.77     -807622.83     -308.54935      0.36357132     0.058034005    28.914224      3444.0502    
       210   0.42           320.76249      139654.35     -807621.07     -309.53262      0.36356838     0.058219414    28.966701      3443.7662    
       220   0.44           326.41828      140384.26     -807620.78     -310.5888       0.3635653      0.058418564    29.000348      3443.295     
       230   0.46           319.014        136624.69     -807623.71     -306.701        0.36356207     0.057687821    29.019444      3442.7366    
       240   0.48           333.72215      133141.86     -807630.8      -301.58047      0.3635587      0.056725219    28.944712      3442.5655    
       250   0.5            328.90489      128353.78     -807635.84     -295.8597       0.36355519     0.05564972     28.916058      3442.5172    
       260   0.52           326.87205      128218.08     -807635.8      -295.57034      0.36355153     0.055595851    28.908456      3442.4809    
       270   0.54           328.27589      130039.68     -807633.33     -298.29153      0.36354773     0.056108285    28.877398      3442.5593    
       280   0.56           325.39182      135233.75     -807627.31     -303.91028      0.36354379     0.057165786    28.998832      3442.0905    
       290   0.58           324.00058      138181.71     -807623.92     -307.1092       0.3635397      0.057768154    29.018127      3441.5518    
       300   0.6            317.21524      140318.9      -807619.55     -310.44758      0.36353547     0.058396793    29.001622      3441.0909    
       310   0.62           315.00241      139678.35     -807619.78     -309.89277      0.3635311      0.058293132    29.044934      3440.4723    
       320   0.64           325.36525      136865.84     -807625.27     -305.76185      0.36352658     0.057516791    29.002933      3440.0261    
       330   0.66           336.60089      132322.26     -807632.32     -300.13858      0.36352192     0.056459722    29.041811      3439.4467    
       340   0.68           321.32027      129427.8      -807633.25     -297.02013      0.36351712     0.055873843    29.056274      3438.8309    
       350   0.7            324.6689       129053.85     -807634.48     -296.17272      0.36351217     0.055715189    29.014028      3438.3734    
       360   0.72           329.71804      130731.02     -807633.04     -298.28398      0.36350708     0.05611314     29.088073      3437.6791    
       370   0.74           325.8232       135653        -807626.81     -303.85298      0.36350185     0.057161602    29.089947      3436.9979    
       380   0.76           335.82289      137952.32     -807624.15     -307.83041      0.36349647     0.057910703    29.050892      3436.4555    
       390   0.78           331.52764      140635.66     -807621.69     -309.56154      0.36349095     0.058237258    29.004213      3436.065     
       400   0.8            331.74753      138562.48     -807623.17     -308.07815      0.36348529     0.057959092    29.00278       3435.6808    
       410   0.82           325.93539      136639.48     -807624.58     -305.76583      0.36347948     0.057524993    29.02195       3435.2433    
       420   0.84           323.78893      132032.6      -807630.33     -299.6042       0.36347353     0.056366702    29.025527      3434.8001    
       430   0.86           326.76009      130765.87     -807633.42     -296.77475      0.36346744     0.055835314    28.976414      3434.4969    
       440   0.88           320.52487      129291.42     -807632.97     -296.28398      0.3634612      0.055743937    28.968541      3434.2127    
       450   0.9            331.52209      133088.45     -807630.36     -300.29898      0.36345482     0.056500324    28.95752       3433.9551    
       460   0.92           332.23026      133895.12     -807627.31     -303.3159       0.3634483      0.057068973    28.988417      3433.6139    
       470   0.94           334.75026      139843.44     -807623.06     -307.70646      0.36344163     0.05789612     29.049943      3433.1179    
       480   0.96           339.24846      138198.87     -807622.61     -308.7442       0.36343482     0.058092463    29.006234      3432.7358    
       490   0.98           339.93329      139381.41     -807622.4      -308.80634      0.36342786     0.058105267    28.991211      3432.3914    
       500   1              335.6831       134745.3      -807627.64     -302.89695      0.36342077     0.056994464    28.966337      3432.1061    
       510   1.02           337.90198      133080.25     -807630.76     -9593.0642      0.36341353     0.056409701    28.899453      3431.9741    
       520   1.04           323.37513      130205.04     -807632.15     -9481.3756      0.36340614     0.055754076    28.818195      3432.0206    
       530   1.06           334.31064      131273.93     -807631.7      -9537.2692      0.36339862     0.056083914    28.844058      3431.9939    
       540   1.08           346.8327       131195.27     -807632.43     -9564.1312      0.36339095     0.056243063    28.874806      3431.8873    
       550   1.1            339.22806      136512.52     -807625.05     -9759.2812      0.36338313     0.057391901    28.908456      3431.6991    
       560   1.12           343.6222       137969.83     -807623.08     -9837.7529      0.36337518     0.05785464     28.947024      3431.4235    
       570   1.14           330.92875      141650.63     -807618.77     -9909.4231      0.36336707     0.058277423    28.937458      3431.1653    
       580   1.16           334.63872      137777.93     -807622.2      -9810.5296      0.36335883     0.057697138    28.947544      3430.8834    
       590   1.18           337.60074      137114.69     -807624.83     -9728.8912      0.36335044     0.057218332    28.932897      3430.6289    
       600   1.2            333.7976       131683.51     -807629.52     -9556.6525      0.36334191     0.056206667    28.924066      3430.3888    
       610   1.22           339.15142      131840.76     -807630.86     -9526.8857      0.36333324     0.056032934    28.905737      3430.181     
       620   1.24           335.70718      130889.24     -807631.41     -9486.1016      0.36332442     0.055794414    28.871191      3430.0351    
       630   1.26           354.50746      133322.03     -807629.85     -9609.6069      0.36331546     0.056522229    28.916484      3429.7972    
       640   1.28           345.08886      136631.27     -807623.76     -9758.0185      0.36330636     0.057396601    28.95714       3429.4806    
       650   1.3            347.27747      139378.89     -807620.91     -9851.8097      0.36329711     0.057949755    28.983922      3429.1143    
       660   1.32           337.48294      140221.32     -807618.33     -9886.1706      0.36328772     0.058153374    28.918586      3428.866     
       670   1.34           340.96231      139022.8      -807621.34     -9801.014       0.36327819     0.057653971    28.928595      3428.5971    
       680   1.36           338.49387      135294.76     -807624.45     -9686.3217      0.36326851     0.056980817    28.87285       3428.4233    
       690   1.38           356.46294      131333.88     -807630.71     -9562.7497      0.36325869     0.056255412    28.823242      3428.3303    
       700   1.4            352.84582      131381.46     -807631.49     -9519.5936      0.36324873     0.056003071    28.849934      3428.1846    
       710   1.42           340.69479      131546.57     -807630.81     -9490.6477      0.36323863     0.055834338    28.803296      3428.1118    
       720   1.44           350.74438      134881.06     -807627.58     -9639.8459      0.36322838     0.056713684    28.917185      3427.8426    
       730   1.46           345.25529      136117.98     -807623.66     -9750.6981      0.36321798     0.057367498    28.85069       3427.6798    
       740   1.48           343.55866      141597.77     -807619.14     -9892.2378      0.36320745     0.058201924    28.945754      3427.3594    
       750   1.5            329.66567      137975.44     -807620.33     -9803.6098      0.36319677     0.057682169    28.897721      3427.1143    
       760   1.52           344.43762      138771.66     -807622.38     -9810.3085      0.36318595     0.057723302    28.877841      3426.8976    
       770   1.54           347.50518      133102.54     -807627.72     -9670.2048      0.36317498     0.056900659    28.949687      3426.5668    
       780   1.56           349.71905      133411.21     -807630.24     -9609.0614      0.36316387     0.056542613    28.913336      3426.2909    
       790   1.58           325.79063      129504.71     -807632.66     -9442.2774      0.36315262     0.055562927    28.982637      3425.9094    
       800   1.6            331.37092      133478.85     -807629.54     -9576.8874      0.36314122     0.056356805    28.920794      3425.6202    
       810   1.62           334.63246      132271.2      -807628.35     -9645.1472      0.36312968     0.056760296    28.915923      3425.3368    
       820   1.64           337.67513      138524.86     -807623.56     -9816.6759      0.363118       0.057771575    28.939541      3425.0177    
       830   1.66           329.9128       137143.68     -807623.9      -9782.3443      0.36310618     0.057571407    28.931512      3424.7095    
       840   1.68           341.93303      139586.13     -807623.42     -9851.966       0.36309421     0.057983059    28.884528      3424.4667    
       850   1.7            340.43855      135200.59     -807627.18     -9734.6295      0.3630821      0.057294394    28.933552      3424.1531    
       860   1.72           345.50921      135590.42     -807629.64     -9678.6383      0.36306984     0.056966773    28.909448      3423.8719    
       870   1.74           329.78894      129994.78     -807633.61     -9489.5329      0.36305745     0.05585564     28.914312      3423.5827    
       880   1.76           320.5344       132484.63     -807631.01     -9532.5441      0.3630449      0.056110743    28.881097      3423.3369    
       890   1.78           322.15211      130671.1      -807630.89     -9549.4421      0.36303222     0.056212172    28.892694      3423.0734    
       900   1.8            347.8384       134946.24     -807629.51     -9708.4737      0.36301939     0.057150321    28.892409      3422.8085    
       910   1.82           321.41848      136280.89     -807624.54     -9755.5913      0.36300642     0.057429737    28.878347      3422.5601    
       920   1.84           324.28255      140051.31     -807621.91     -9851.866       0.36299331     0.057998588    28.903566      3422.277     
       930   1.86           341.82973      135846.88     -807626.12     -9801.6675      0.36298005     0.057705173    28.932827      3421.9554    
       940   1.88           322.89419      137563.03     -807624.55     -9766.1737      0.36296665     0.057498334    28.934827      3421.6307    
       950   1.9            316.42939      132593.05     -807629.22     -9593.4518      0.36295311     0.056483541    28.914458      3421.3309    
       960   1.92           311.80369      132921.98     -807629.53     -9560.4919      0.36293942     0.056291606    28.924639      3421.0176    
       970   1.94           321.16264      129812.06     -807632.43     -9512.7111      0.36292559     0.056012409    28.865847      3420.7756    
       980   1.96           321.66         132472.58     -807629.38     -9612.0159      0.36291162     0.056599311    28.96615       3420.4102    
       990   1.98           338.12299      133244.83     -807630.1      -9663.3245      0.3628975      0.05690365     28.839294      3420.197     
      1000   2              337.05995      136621.55     -807626.52     -9773.5704      0.36288325     0.057555107    28.781098      3420.0508    
      1010   2.02           331.67529      138082.05     -807623.99     -307.26219      0.36286884     0.057903785    28.976027      3419.6712    
      1020   2.04           327.0658       137914.57     -807623.78     -306.87677      0.3628543      0.057833471    29.020303      3419.2413    
      1030   2.06           328.09139      135214.05     -807626.68     -304.05153      0.36283961     0.05730335     29.04362       3418.7865    
      1040   2.08           333.07681      131924.53     -807631.75     -299.68558      0.36282478     0.056482827    29.017439      3418.3635    
      1050   2.1            316.70297      132678.53     -807629.72     -299.39878      0.3628098      0.056431101    28.980015      3417.9837    
      1060   2.12           331.9663       130554.7      -807633.02     -298.23094      0.36279469     0.056213328    28.967052      3417.6191    
      1070   2.14           334.15236      132800        -807631.52     -299.86347      0.36277943     0.05652342     28.929729      3417.2961    
      1080   2.16           326.95171      133537.14     -807629.04     -301.44541      0.36276402     0.056824024    28.935067      3416.9668    
      1090   2.18           320.87628      138089.69     -807622.7      -306.87415      0.36274848     0.057849849    29.004989      3416.5615    
      1100   2.2            329.52078      136962.9      -807624.75     -306.04551      0.36273279     0.057696135    28.981194      3416.1828    
      1110   2.22           334.91655      138305.29     -807625.39     -305.94009      0.36271695     0.057678778    28.976138      3415.8101    
      1120   2.24           338.7501       133416.76     -807630.07     -301.72786      0.36270098     0.056887154    28.970205      3415.4441    
      1130   2.26           332.9575       133830.41     -807629.77     -301.06106      0.36268486     0.056763959    28.932868      3415.1176    
      1140   2.28           325.09561      130391.86     -807631.8      -297.8255       0.3626686      0.056156425    28.977071      3414.7447    
      1150   2.3            325.78975      131959.75     -807631.8      -297.7411       0.36265219     0.05614305     28.999743      3414.3494    
      1160   2.32           326.72782      132605.96     -807630.25     -299.33127      0.36263564     0.056445474    28.950418      3414.005     
      1170   2.34           318.65007      136758.42     -807624.53     -303.75552      0.36261895     0.057282399    28.956847      3413.654     
      1180   2.36           327.68274      137618.39     -807623.64     -305.65848      0.36260212     0.057643935    29.061151      3413.1994    
      1190   2.38           342.39433      137817.67     -807625.03     -306.07878      0.36258514     0.057725903    29.026704      3412.7805    
      1200   2.4            344.68832      136115.69     -807625.87     -305.28753      0.36256802     0.057579393    28.996336      3412.3925    
      1210   2.42           328.35256      135664.91     -807626.09     -302.58383      0.36255076     0.057072174    28.980426      3412.0207    
      1220   2.44           335.86927      133906.84     -807629.63     -299.80177      0.36253335     0.056550147    28.913027      3411.7145    
      1230   2.46           322.8154       131780.31     -807630.04     -297.39021      0.3625158      0.056097982    28.931991      3411.3894    
      1240   2.48           334.8975       132478.7      -807630.96     -297.94041      0.36249811     0.056204511    28.984438      3411.0142    
      1250   2.5            335.53265      133856.45     -807628.5      -300.29446      0.36248028     0.056651375    28.990401      3410.6339    
      1260   2.52           335.94345      136991.81     -807624.72     -303.88705      0.3624623      0.05733197     29.042471      3410.2056    
      1270   2.54           346.01273      137131.75     -807625.31     -304.52973      0.36244418     0.057456093    28.971219      3409.8446    
      1280   2.56           349.56793      137788.76     -807623.92     -306.24268      0.36242592     0.057782189    28.930313      3409.5213    
      1290   2.58           339.71757      136716.23     -807624.35     -304.34822      0.36240751     0.057427656    28.92714       3409.2007    
      1300   2.6            327.94389      135334.77     -807624.93     -301.92905      0.36238896     0.056974097    28.986557      3408.8259    
      1310   2.62           343.29029      131863.07     -807630.87     -298.03104      0.36237027     0.056241444    28.935382      3408.4975    
      1320   2.64           343.40611      131869.56     -807631.24     -297.607        0.36235143     0.056164343    29.001781      3408.1097    
      1330   2.66           328.57734      132706.06     -807627.48     -299.15379      0.36233245     0.05645921     28.935125      3407.7814    
      1340   2.68           341.62492      134967.32     -807628.58     -299.8146       0.36231333     0.056586911    28.923476      3407.4632    
      1350   2.7            343.72478      136527.77     -807625.59     -303.08347      0.36229407     0.057206918    28.857092      3407.2026    
      1360   2.72           344.56499      137920.74     -807622.41     -306.42896      0.36227466     0.057841477    28.918995      3406.887     
      1370   2.74           337.28357      139067.07     -807621.89     -305.92497      0.36225511     0.057749459    28.944847      3406.5488    
      1380   2.76           335.13572      136628.96     -807624.75     -302.87812      0.36223542     0.057177413    28.907732      3406.2421    
      1390   2.78           337.87015      134383.12     -807628.03     -300.06407      0.36221558     0.056649278    28.930138      3405.9158    
      1400   2.8            340.66892      132550.76     -807629.77     -298.93007      0.3621956      0.056438304    28.879466      3405.632     
      1410   2.82           339.9784       131546.04     -807631.17     -297.63827      0.36217548     0.056197532    28.985776      3405.2585    
      1420   2.84           327.15397      132661.38     -807629.88     -297.4478       0.36215522     0.056164712    28.946532      3404.9178    
      1430   2.86           329.56735      134293.4      -807627.63     -300.45893      0.36213481     0.056736476    28.914919      3404.6032    
      1440   2.88           333.14384      136764.23     -807624.41     -304.59202      0.36211426     0.057520203    28.890228      3404.3083    
      1450   2.9            331.73768      137304.45     -807622.72     -306.5809       0.36209357     0.057899098    28.973922      3403.9448    
      1460   2.92           336.3638       136974.07     -807625.62     -304.67214      0.36207273     0.057541932    28.943115      3403.6063    
      1470   2.94           325.33963      135540.44     -807626.43     -302.69711      0.36205176     0.057172231    28.967404      3403.2483    
      1480   2.96           332.02356      133559.9      -807629.83     -300.50273      0.36203064     0.056761076    29.002145      3402.863     
      1490   2.98           324.17243      132079.43     -807630.84     -298.58213      0.36200937     0.056401612    28.976256      3402.4985    
      1500   3              310.97782      131823.83     -807630.95     -296.77598      0.36198796     0.056063749    29.044857      3402.0808    
      1510   3.02           337.08792      131884.89     -807633.75     -9527.8925      0.36196642     0.056250464    28.922208      3401.7593    
      1520   3.04           318.29375      134379.52     -807627.56     -9646.0662      0.36194472     0.056951547    28.938651      3401.4247    
      1530   3.06           333.46467      136745.31     -807626.52     -9749.1389      0.36192289     0.057563574    28.971108      3401.0651    
      1540   3.08           320.56375      137009.51     -807625.17     -9737.4837      0.36190091     0.057498247    28.881499      3400.7741    
      1550   3.1            336.86043      136955.05     -807627.71     -9728.169       0.36187879     0.057446757    28.858895      3400.4997    
      1560   3.12           331.18306      134187.63     -807628.69     -9674.6446      0.36185653     0.0571342      28.839858      3400.2388    
      1570   3.14           315.83831      134603.15     -807627.82     -9631.3703      0.36183412     0.056882163    28.873618      3399.9513    
      1580   3.16           330.33146      130709.65     -807633.91     -9501.6182      0.36181157     0.056119353    28.91263       3399.634     
      1590   3.18           321.58416      132065.83     -807631.63     -9532.2972      0.36178888     0.056304084    28.914014      3399.3153    
      1600   3.2            326.94443      131088.36     -807631.05     -9577.0597      0.36176605     0.056572051    28.942969      3398.975     
      1610   3.22           324.12763      135666.38     -807626.5      -9704.0672      0.36174307     0.05732593     28.948007      3398.631     
      1620   3.24           323.88818      135212.7      -807627.21     -9680.6416      0.36171995     0.057191201    28.928104      3398.3014    
      1630   3.26           331.1329       138306.33     -807625.54     -9761.2226      0.36169669     0.057670965    28.891143      3397.9983    
      1640   3.28           320.15615      136605.53     -807624.2      -9754.8093      0.36167329     0.057636804    28.887553      3397.6972    
      1650   3.3            331.25587      136020.59     -807627.7      -9686.365       0.36164974     0.057236124    28.936066      3397.3609    
      1660   3.32           322.59186      132314.65     -807630.25     -9560.1906      0.36162605     0.056494268    28.934768      3397.0255    
      1670   3.34           324.21413      131931.59     -807631.46     -9523.2731      0.36160222     0.056279819    28.91941       3396.7008    
      1680   3.36           327.1376       132315.72     -807632.2      -9510.332       0.36157824     0.056207068    28.919188      3396.376     
      1690   3.38           328.82311      133529.03     -807630        -9582.0614      0.36155413     0.056634773    28.867145      3396.0872    
      1700   3.4            328.9205       135014        -807627.92     -9641.9346      0.36152987     0.056992478    28.819007      3395.8311    
      1710   3.42           332.40956      137121.29     -807626.19     -9708.1134      0.36150546     0.057387528    28.819605      3395.5737    
      1720   3.44           343.18099      138578.63     -807624.91     -9788.9801      0.36148092     0.057869484    28.876501      3395.2761    
      1730   3.46           331.34734      137159.48     -807624.66     -9738.8074      0.36145623     0.05757681     28.785085      3395.0403    
      1740   3.48           330.90235      136107.97     -807627.27     -9643.7946      0.3614314      0.057019002    28.852481      3394.7576    
      1750   3.5            327.27547      132420.33     -807630.06     -9532.1355      0.36140643     0.056362711    28.843541      3394.48      
      1760   3.52           336.22162      132206.48     -807631        -9532.959       0.36138131     0.056371498    28.898986      3394.1646    
      1770   3.54           333.29478      130288.21     -807631.91     -9487.3374      0.36135605     0.056105644    28.877509      3393.8631    
      1780   3.56           338.33771      133468.45     -807629.71     -9571.9578      0.36133065     0.056610046    28.907061      3393.5416    
      1790   3.58           336.99545      134554.91     -807627.59     -9630.8869      0.36130511     0.056962589    28.930752      3393.2043    
      1800   3.6            335.8369       139080.03     -807622.21     -9792.3448      0.36127942     0.057921661    28.921747      3392.8727    
      1810   3.62           333.43554      136420.27     -807624.05     -9719.4457      0.3612536      0.057494573    28.937856      3392.5305    
      1820   3.64           335.06798      138234.07     -807624.67     -9696.3685      0.36122763     0.057362186    28.970006      3392.1677    
      1830   3.66           333.22519      133181.41     -807627.78     -9587.5839      0.36120151     0.056722734    28.930658      3391.8302    
      1840   3.68           335.80205      135336.74     -807627.47     -9600.9761      0.36117526     0.056806095    28.902562      3391.5105    
      1850   3.7            333.5778       129716.21     -807632.2      -9438.645       0.36114886     0.055849712    28.853655      3391.2217    
      1860   3.72           345.45765      133645.31     -807632.4      -9476.5863      0.36112232     0.056078337    28.89929       3390.9033    
      1870   3.74           324.40618      132880.85     -807627.97     -9525.6046      0.36109564     0.056372572    28.926485      3390.5676    
      1880   3.76           343.24372      137436.9      -807623.81     -9737.8522      0.36106881     0.057632936    28.879302      3390.2613    
      1890   3.78           347.77724      136141.71     -807625.37     -9707.0806      0.36104184     0.057455106    28.858587      3389.9674    
      1900   3.8            339.56265      138295.28     -807624.02     -9710.2107      0.36101474     0.057477949    28.882437      3389.6582    
      1910   3.82           337.6796       136847.88     -807624.63     -9682.4726      0.36098748     0.057318085    28.802891      3389.3978    
      1920   3.84           347.64934      135310.46     -807626.7      -9658.1326      0.36096009     0.057178337    28.809005      3389.1326    
      1930   3.86           343.5244       133263.58     -807630.68     -9512.9664      0.36093255     0.056323217    28.940412      3388.7866    
      1940   3.88           330.29669      130847.94     -807631.53     -9428.6121      0.36090487     0.055828063    28.938336      3388.4418    
      1950   3.9            334.94534      132950.47     -807629.74     -9510.8245      0.36087705     0.056319196    28.974708      3388.0751    
      1960   3.92           333.74845      132869.07     -807627.61     -9581.8027      0.36084909     0.056743896    28.911567      3387.7465    
      1970   3.94           338.89318      137019.29     -807625.09     -9691.5603      0.36082098     0.057398357    28.895254      3387.4273    
      1980   3.96           336.22079      136323.23     -807626.55     -9644.2608      0.36079273     0.057122697    28.886935      3387.1128    
      1990   3.98           331.14545      139778.36     -807622.66     -9750.961       0.36076434     0.057759225    28.886492      3386.7982    
      2000   4              330.35087      134708.6      -807625.74     -9665.7351      0.36073581     0.057258923    28.808373      3386.5293    
      2010   4.02           323.13665      135531.01     -807626.21     -300.81246      0.36070713     0.057028061    28.92939       3386.1889    
      2020   4.04           340.54285      129765.07     -807634.75     -295.13624      0.36067831     0.055956434    28.931664      3385.8471    
      2030   4.06           323.90002      133244.56     -807630.16     -297.65145      0.36064935     0.056437838    28.997247      3385.4675    
      2040   4.08           331.3087       129815.56     -807632.28     -296.98657      0.36062025     0.056316313    29.071064      3385.0462    
      2050   4.1            323.0363       135362.12     -807628.48     -299.73111      0.36059101     0.056841358    29.107682      3384.605     
      2060   4.12           322.39925      133321.77     -807628.76     -299.69862      0.36056162     0.056839829    29.056858      3384.1933    
      2070   4.14           328.10239      138467.09     -807624.33     -304.97777      0.36053209     0.057845793    28.999226      3383.8146    
      2080   4.16           316.44966      135645.33     -807624.66     -303.31467      0.36050242     0.057535084    29.114074      3383.3723    
      2090   4.18           329.91316      136809.55     -807626.49     -303.27814      0.36047261     0.057532912    28.99424       3382.9973    
      2100   4.2            321.80344      132117.15     -807631.83     -297.00967      0.36044265     0.056348444    29.051788      3382.5908    
      2110   4.22           320.38761      133140.14     -807630.76     -297.81364      0.36041256     0.05650569     29.067293      3382.1764    
      2120   4.24           323.15097      129766.64     -807633.09     -296.00656      0.36038232     0.056167537    29.03475       3381.7804    
      2130   4.26           321.67958      132895.04     -807631.75     -297.08055      0.36035193     0.05637608     29.017109      3381.3945    
      2140   4.28           328.57125      133901.96     -807631.29     -298.49487      0.36032141     0.056649271    29.012735      3381.0114    
      2150   4.3            321.57595      135435.71     -807626.84     -301.97358      0.36029075     0.057314348    29.022103      3380.6236    
      2160   4.32           325.04397      137533.2      -807624.88     -304.34163      0.36025994     0.057768742    29.011689      3380.2418    
      2170   4.34           329.06295      136341.65     -807627.18     -302.53262      0.36022899     0.057430298    28.92666       3379.906     
      2180   4.36           316.90543      136594.49     -807626.53     -301.33364      0.36019789     0.057207631    28.918318      3379.5746    
      2190   4.38           318.76917      131596.88     -807630.2      -297.88476      0.36016666     0.056557772    28.953498      3379.2243    
      2200   4.4            315.8642       132772.91     -807629.6      -297.82098      0.36013528     0.056550589    28.974028      3378.8632    
      2210   4.42           324.35736      129629.04     -807634.11     -294.36113      0.36010377     0.05589852     29.01397       3378.4812    
      2220   4.44           310.59459      134297.58     -807628.99     -297.25584      0.36007211     0.056453183    28.928203      3378.1445    
      2230   4.46           336.23853      132101.31     -807631.04     -298.73738      0.3600403      0.05673956     28.934055      3377.8047    
      2240   4.48           322.43456      138653.53     -807623.56     -303.88678      0.36000836     0.057722713    28.933242      3377.4652    
      2250   4.5            333.60522      135826.18     -807627.48     -301.39027      0.35997627     0.05725361     28.963144      3377.1102    
      2260   4.52           327.55225      138277.23     -807624.28     -303.36228      0.35994404     0.057633382    28.985448      3376.7438    
      2270   4.54           323.63862      133196.3      -807627.71     -299.26322      0.35991167     0.056859748    28.952584      3376.3945    
      2280   4.56           327.7834       135059.51     -807627.84     -299.30014      0.35987916     0.0568719      28.94119       3376.051     
      2290   4.58           336.33354      130079.75     -807633.72     -294.4687       0.35984651     0.055958925    28.958294      3375.6988    
      2300   4.6            324.91441      133210.85     -807630.43     -295.81696      0.35981371     0.056220263    28.93657       3375.3576    
      2310   4.62           329.58109      133128.87     -807629.21     -297.56125      0.35978077     0.056556945    28.928987      3375.0203    
      2320   4.64           336.05783      136009.77     -807626.39     -301.02493      0.35974769     0.057220542    28.899231      3374.6978    
      2330   4.66           341.13178      136626.22     -807626.58     -301.32039      0.35971447     0.057281993    28.92555       3374.362     
      2340   4.68           336.56978      137331.92     -807625.61     -301.48248      0.35968111     0.057318125    28.935523      3374.0211    
      2350   4.7            328.3481       136688.26     -807623.52     -302.27021      0.3596476      0.057473241    28.982168      3373.657     
      2360   4.72           339.22319      134408.15     -807627.1      -300.07042      0.35961396     0.057060316    28.950606      3373.3087    
      2370   4.74           335.00071      132873.74     -807630.25     -296.17643      0.35958017     0.056325139    28.977335      3372.9473    
      2380   4.76           334.30495      131945.84     -807631.42     -294.79807      0.35954624     0.056068302    29.036905      3372.5569    
      2390   4.78           336.04027      132562.51     -807629.8      -296.56676      0.35951216     0.056410039    28.963202      3372.2028    
      2400   4.8            337.34765      132084.43     -807629.54     -296.99617      0.35947795     0.056497094    28.970117      3371.8454    
      2410   4.82           340.00729      135956.61     -807627.39     -299.39421      0.35944359     0.056958714    28.955658      3371.495     
      2420   4.84           339.40787      135125.73     -807626.82     -299.98133      0.35940909     0.057075888    28.940827      3371.1519    
      2430   4.86           330.47607      138662.91     -807621.69     -303.70279      0.35937446     0.057789521    28.932962      3370.8124    
      2440   4.88           336.80336      135380.16     -807626.31     -300.08009      0.35933967     0.05710571     29.065924      3370.4098    
      2450   4.9            340.06369      136068.95     -807627.82     -298.93782      0.35930475     0.056893863    29.043979      3370.0179    
      2460   4.92           333.8515       131716.56     -807630.3      -295.64899      0.35926969     0.056273424    28.93395       3369.6783    
      2470   4.94           324.70689      132996.63     -807628.68     -295.95409      0.35923448     0.056337018    28.978977      3369.3175    
      2480   4.96           327.51745      131594.68     -807630.46     -294.65188      0.35919913     0.056094651    28.929875      3368.9799    
      2490   4.98           341.54531      134337.75     -807629.81     -297.2336       0.35916364     0.056591741    29.022303      3368.599     
      2500   5              343.45895      133633.32     -807629.1      -298.30966      0.35912801     0.056802252    29.011771      3368.2234    
[...]
     98740   197.48         333.50664      135441.36     -807624.49     -9691.6786      0.36236891     0.057153866    27.624696      44.96498     
     98750   197.5          342.21739      134900.99     -807625.02     -9711.797       0.36238762     0.057269552    27.646533      44.608177    
     98760   197.52         333.79757      133588.96     -807627.02     -9610.2191      0.36240618     0.056667655    27.575117      44.251384    
     98770   197.54         344.53021      133679.02     -807629.19     -9587.5433      0.36242459     0.056531072    27.615537      43.894583    
     98780   197.56         341.98399      134305.52     -807626.25     -9674.4893      0.36244287     0.057040856    27.641863      43.537777    
     98790   197.58         345.02424      135923.37     -807625.89     -9703.3857      0.362461       0.057208367    27.699568      43.180961    
     98800   197.6          344.05139      135547.87     -807628        -9634.2012      0.36247899     0.056797657    27.728444      42.824139    
     98810   197.62         338.50396      135020.42     -807627.43     -9634.3052      0.36249683     0.056795474    27.7178        42.467319    
     98820   197.64         336.98706      135181.98     -807625.04     -9714.4522      0.36251453     0.057265154    27.671298      42.110504    
     98830   197.66         332.56906      136159.24     -807624.15     -9730.2531      0.36253209     0.057355519    27.699391      41.753685    
     98840   197.68         333.24366      134557.04     -807627.18     -9645.9458      0.36254951     0.056855834    27.711673      41.396863    
     98850   197.7          329.69383      135395.72     -807627.24     -9637.7644      0.36256678     0.056804904    27.689106      41.040043    
     98860   197.72         339.259        133320.54     -807627.46     -9685.971       0.36258391     0.057086337    27.709072      40.683219    
     98870   197.74         337.22905      134754.16     -807626.33     -9723.0658      0.3626009      0.057302278    27.74417       40.32639     
     98880   197.76         330.90994      133574.39     -807628.85     -9626.1034      0.36261774     0.056728201    27.733101      39.969561    
     98890   197.78         337.66414      134707.84     -807628.77     -9668.2174      0.36263445     0.056973761    27.720188      39.612734    
     98900   197.8          333.16021      134336.35     -807627.33     -9707.4909      0.362651       0.057202584    27.752285      39.255901    
     98910   197.82         321.10214      136169.36     -807624.73     -9743.1117      0.36266742     0.057409885    27.731607      38.89907     
     98920   197.84         333.39436      133864.21     -807629.49     -9653.4162      0.36268369     0.056878816    27.667865      38.542247    
     98930   197.86         330.44883      135171.17     -807628.6      -9673.7035      0.36269982     0.056995815    27.664187      38.185424    
     98940   197.88         337.32947      134418.36     -807628.82     -9704.9838      0.36271581     0.057177593    27.654783      37.828602    
     98950   197.9          329.89706      134477.48     -807628.08     -9698.6694      0.36273165     0.057137896    27.688785      37.471774    
     98960   197.92         318.75661      134008.12     -807629.34     -9613.1735      0.36274735     0.056631761    27.65505       37.114949    
     98970   197.94         326.33875      134060.53     -807629.98     -9629.6441      0.36276291     0.056726358    27.655125      36.758124    
     98980   197.96         320.22605      134567.44     -807625.49     -9750.5386      0.36277832     0.057436084    27.660964      36.401297    
     98990   197.98         322.92889      134431.09     -807626.3      -9737.1301      0.36279359     0.057354686    27.635173      36.044472    
     99000   198            322.12381      135274.97     -807628.31     -9671.1364      0.36280872     0.056963587    27.664855      35.687643    
     99010   198.02         328.44236      134783.18     -807628.89     -302.54886      0.3628237      0.057022649    27.764652      35.330799    
     99020   198.04         323.22748      135430.55     -807625.62     -305.1523       0.36283855     0.057510977    27.729668      34.97396     
     99030   198.06         334.95959      132735        -807629.23     -303.17333      0.36285324     0.057135694    27.71148       34.617122    
     99040   198.08         323.02166      134197.98     -807630.1      -300.55781      0.3628678      0.056640504    27.72497       34.260281    
     99050   198.1          326.05919      132936.05     -807630.06     -301.1295       0.36288221     0.056745985    27.738242      33.903438    
     99060   198.12         324.89251      135740.26     -807625.65     -305.3285       0.36289648     0.057534998    27.787143      33.546588    
     99070   198.14         329.80399      133671.76     -807628.47     -303.14567      0.36291061     0.05712145     27.758397      33.189741    
     99080   198.16         334.68032      134738.98     -807630.37     -301.77965      0.36292459     0.056861862    27.797144      32.832889    
     99090   198.18         328.55694      134724.28     -807628.31     -302.95728      0.36293843     0.057081577    27.825375      32.476033    
     99100   198.2          324.67406      136299.1      -807624.45     -306.19959      0.36295213     0.057690297    27.793502      32.11918     
     99110   198.22         326.35424      134982.76     -807628.12     -302.65733      0.36296568     0.057020779    27.796896      31.762326    
     99120   198.24         324.27432      133586.17     -807629.95     -300.31218      0.36297909     0.056576862    27.79641       31.405471    
     99130   198.26         330.03644      133778.36     -807629.6      -301.34365      0.36299236     0.056769109    27.736727      31.048623    
     99140   198.28         332.00592      133773.97     -807626.34     -304.71814      0.36300548     0.057402742    27.706949      30.691777    
     99150   198.3          327.49435      134017.08     -807627.67     -302.54683      0.36301846     0.056991673    27.690199      30.334932    
     99160   198.32         332.47732      134144.95     -807630.27     -300.3487       0.3630313      0.056575605    27.654233      29.978091    
     99170   198.34         330.31246      136123.25     -807626.38     -303.77164      0.36304399     0.05721837     27.71207       29.621242    
     99180   198.36         342.02536      136162.74     -807625.21     -306.37709      0.36305655     0.057707137    27.715675      29.264392    
     99190   198.38         336.48207      134878.61     -807626.63     -303.7994       0.36306895     0.057219666    27.709281      28.907542    
     99200   198.4          331.73814      134178.51     -807629.35     -300.2171       0.36308122     0.056543041    27.679803      28.550694    
     99210   198.42         335.40823      135256.25     -807626.76     -303.04387      0.36309334     0.057073531    27.661258      28.193847    
     99220   198.44         333.3281       134809.62     -807624.41     -304.96732      0.36310532     0.057433886    27.673266      27.836998    
     99230   198.46         334.12805      134568.06     -807627.05     -302.12991      0.36311715     0.056897668    27.716024      27.480144    
     99240   198.48         339.041        133380.29     -807630.03     -299.60581      0.36312885     0.056420508    27.695426      27.123291    
     99250   198.5          338.62985      135478.72     -807625.54     -303.88822      0.3631404      0.057225133    27.719511      26.766435    
     99260   198.52         332.9929       135591.53     -807622.53     -306.08231      0.3631518      0.057636493    27.799184      26.409571    
     99270   198.54         358.74042      135682.33     -807628.36     -303.57347      0.36316306     0.057162296    27.829615      26.052702    
     99280   198.56         343.46157      134200.15     -807628.61     -301.17418      0.36317418     0.056708778    27.769601      25.695839    
     99290   198.58         338.85731      137170.13     -807625.08     -303.98491      0.36318516     0.057236287    27.760631      25.338977    
     99300   198.6          335.40795      134559.64     -807624.29     -304.39202      0.36319599     0.05731123     27.79498       24.98211     
     99310   198.62         341.13098      134636.79     -807627.17     -302.14626      0.36320668     0.056886722    27.80117       24.625242    
     99320   198.64         341.08996      133079.47     -807630.5      -298.86769      0.36321723     0.056267813    27.761061      24.268377    
     99330   198.66         341.16951      135645.28     -807626.32     -303.12038      0.36322763     0.057066834    27.809951      23.911508    
     99340   198.68         337.99884      135081.23     -807624.63     -304.49674      0.36323789     0.057324335    27.785762      23.55464     
     99350   198.7          344.80913      136151.43     -807626.77     -303.30646      0.36324801     0.057098663    27.784139      23.197771    
     99360   198.72         340.10275      134597.26     -807628.29     -301.29849      0.36325798     0.056719097    27.760356      22.840904    
     99370   198.74         335.57746      136921.48     -807624.58     -304.51363      0.36326781     0.057322793    27.732644      22.484038    
     99380   198.76         330.99353      134846.16     -807623.65     -304.99571      0.3632775      0.057412011    27.776324      22.127168    
     99390   198.78         337.77131      135094.23     -807627.85     -301.79131      0.36328704     0.056807326    27.753512      21.770299    
     99400   198.8          338.25373      133236.4      -807630.83     -299.0522       0.36329644     0.056290276    27.690402      21.413435    
     99410   198.82         334.99694      134770.11     -807626.17     -303.36755      0.3633057      0.057101095    27.679332      21.05657     
     99420   198.84         341.87637      134980.27     -807625.56     -305.18108      0.36331481     0.057441004    27.707367      20.699703    
     99430   198.86         332.74253      137143.08     -807625.47     -304.04033      0.36332378     0.057224879    27.717011      20.342834    
     99440   198.88         337.79883      135292.13     -807628.67     -301.62199      0.36333261     0.056768333    27.719114      19.985963    
     99450   198.9          337.81643      137391.5      -807624.41     -305.99725      0.36334129     0.057590424    27.727118      19.629092    
     99460   198.92         331.70824      135457.66     -807624.37     -305.40748      0.36334983     0.057478075    27.723773      19.27222     
     99470   198.94         338.11697      135099.28     -807629.12     -301.48245      0.36335823     0.056738069    27.749612      18.915346    
     99480   198.96         340.45778      132304.81     -807632.1      -298.95917      0.36336648     0.056261917    27.75008       18.558471    
     99490   198.98         330.11913      135009.04     -807626.66     -303.04528      0.3633746      0.05702962     27.72249       18.201596    
     99500   199            320.7433       134429.5      -807624.7      -303.84164      0.36338256     0.057178233    27.751226      17.84472     
     99510   199.02         338.85478      134988.78     -807629.59     -9646.8895      0.36339039     0.056729821    27.643715      17.487849    
     99520   199.04         333.43767      135448.23     -807627.91     -9678.996       0.36339807     0.056917424    27.633274      17.130978    
     99530   199.06         340.19547      136370.36     -807625.3      -9797.7249      0.3634056      0.057614415    27.67693       16.774104    
     99540   199.08         338.63207      136037.06     -807625.76     -9780.2887      0.363413       0.057510713    27.676711      16.417229    
     99550   199.1          317.77624      135730.86     -807625.87     -9682.9716      0.36342025     0.056937327    27.621306      16.060355    
     99560   199.12         346.98736      133045        -807631.8      -9627.5467      0.36342736     0.056610313    27.648113      15.70348     
     99570   199.14         322.15776      134064.95     -807625.75     -9714.1852      0.36343432     0.057118656    27.665181      15.346602    
     99580   199.16         320.89057      134950.69     -807625.37     -9723.6157      0.36344114     0.057173034    27.651546      14.989725    
     99590   199.18         321.90275      134601.66     -807627.77     -9653.2409      0.36344782     0.0567582      27.584228      14.63285     
     99600   199.2          327.03936      134841.13     -807627.86     -9675.4047      0.36345435     0.056887494    27.613119      14.275972    
     99610   199.22         339.51932      136182.69     -807626.58     -9776.5029      0.36346074     0.0574809      27.651178      13.919091    
     99620   199.24         333.27496      136073.83     -807624.63     -9812.7873      0.36346699     0.057693243    27.653773      13.562209    
     99630   199.26         325.75713      135363.73     -807627.04     -9703.4699      0.3634731      0.057049565    27.608955      13.205329    
     99640   199.28         334.39749      135030.04     -807630.04     -9649.0321      0.36347906     0.056728578    27.649768      12.848445    
     99650   199.3          327.3719       134132.95     -807626.95     -9721.9583      0.36348487     0.057156411    27.691773      12.491559    
     99660   199.32         330.59663      134893.43     -807627.33     -9725.8644      0.36349055     0.057178483    27.722152      12.13467     
     99670   199.34         327.77504      133425.77     -807630.62     -9609.7592      0.36349608     0.056495039    27.681494      11.777783    
     99680   199.36         331.22762      133871.04     -807630.25     -9638.5989      0.36350147     0.056663746    27.67386       11.420894    
     99690   199.38         330.36281      135011.24     -807626.66     -9756.7539      0.36350671     0.057357532    27.652358      11.064006    
     99700   199.4          327.67192      136304.19     -807625.14     -9794.2869      0.36351181     0.057577372    27.646624      10.707117    
     99710   199.42         322.55102      135509.64     -807627.88     -9687.2454      0.36351677     0.056947333    27.661114      10.350227    
     99720   199.44         325.18106      136312.92     -807627.71     -9705.7778      0.36352158     0.057055522    27.643149      9.9933359    
     99730   199.46         327.65613      134934.54     -807626.36     -9765.1728      0.36352625     0.057403939    27.67716       9.6364429    
     99740   199.48         328.00261      134724.1      -807627.08     -9744.2587      0.36353078     0.057280284    27.737377      9.2795471    
     99750   199.5          325.08365      133482.26     -807630.41     -9626.9488      0.36353516     0.056590011    27.70214       8.9226516    
     99760   199.52         323.89885      134008.75     -807629.46     -9654.9224      0.3635394      0.056753786    27.660713      8.5657567    
     99770   199.54         316.27259      134997.62     -807625.56     -9748.9803      0.3635435      0.057306034    27.672485      8.2088604    
     99780   199.56         332.27899      134675.5      -807627.55     -9759.2676      0.36354745     0.05736588     27.651568      7.8519639    
     99790   199.58         306.48943      135528.5      -807626.15     -9687.7855      0.36355126     0.056945105    27.638181      7.4950668    
     99800   199.6          330.25396      134724.46     -807628.75     -9714.1528      0.36355493     0.057099516    27.668929      7.1381679    
     99810   199.62         313.96811      136240.34     -807624        -9796.1554      0.36355845     0.057580968    27.664764      6.7812682    
     99820   199.64         322.36512      134628.99     -807626.8      -9745.9918      0.36356183     0.057285577    27.661349      6.4243676    
     99830   199.66         324.57447      134145.01     -807630.02     -9650.923       0.36356507     0.056726271    27.678075      6.0674658    
     99840   199.68         330.01227      133533.94     -807631.9      -9616.8636      0.36356816     0.056525596    27.610483      5.7105645    
     99850   199.7          317.7963       135227.39     -807626.24     -9743.7387      0.36357111     0.057270873    27.557332      5.3536632    
     99860   199.72         324.47375      133511.13     -807627.56     -9731.6427      0.36357392     0.057199334    27.525017      4.9967613    
     99870   199.74         331.12416      134815.37     -807630.39     -9665.5377      0.36357658     0.056810375    27.605293      4.6398567    
     99880   199.76         336.12439      133376.41     -807630.24     -9691.9634      0.3635791      0.0569653      27.586789      4.2829513    
     99890   199.78         313.28854      136341.55     -807623.31     -9811.1035      0.36358148     0.057665179    27.648092      3.926044     
     99900   199.8          330.02881      134851.29     -807627.48     -9750.2671      0.36358371     0.057307258    27.729002      3.5691346    
     99910   199.82         333.10492      134694.88     -807630.54     -9658.3144      0.3635858      0.05676648     27.751844      3.2122242    
     99920   199.84         321.03868      133369.74     -807628.9      -9655.8239      0.36358775     0.056751538    27.675694      2.855314     
     99930   199.86         322.25425      135259.8      -807625.75     -9756.3485      0.36358955     0.057342081    27.681387      2.4984028    
     99940   199.88         327.17682      133370.19     -807627.85     -9703.3412      0.36359121     0.057030275    27.689733      2.1414906    
     99950   199.9          338.96332      134474.99     -807630.42     -9663.5131      0.36359273     0.056795953    27.677995      1.7845777    
     99960   199.92         315.60987      135210.21     -807625.37     -9715.6913      0.3635941      0.057102408    27.716887      1.4276637    
     99970   199.94         327.43903      136896.42     -807624.12     -9800.8599      0.36359533     0.057602778    27.707416      1.070749     
     99980   199.96         331.89757      135541.95     -807626.38     -9738.7237      0.36359641     0.057237412    27.690376      0.7138335    
     99990   199.98         327.68924      136292.83     -807626.47     -9707.028       0.36359736     0.057050979    27.670437      0.3569172    
    100000   200            339.14532      134136.93     -807628.3      -9692.545       0.36359816     0.056965734    27.654933      0            
Loop time of 3569.18 on 32 procs for 100000 steps with 1080 atoms

Performance: 4.841 ns/day, 4.957 hours/ns, 28.018 timesteps/s, 30.259 katom-step/s
63.2% CPU use with 32 MPI tasks x 1 OpenMP threads

MPI task timing breakdown:
Section |  min time  |  avg time  |  max time  |%varavg| %total
---------------------------------------------------------------
Pair    | 2553.7     | 2805.9     | 3063.3     | 230.2 | 78.61
Neigh   | 0.0016492  | 0.0017721  | 0.0019949  |   0.2 |  0.00
Comm    | 432.56     | 690.06     | 942.23     | 464.3 | 19.33
Output  | 2.3606     | 2.4237     | 2.4321     |   0.8 |  0.07
Modify  | 64.243     | 64.49      | 65.043     |   2.0 |  1.81
Other   |            | 6.334      |            |       |  0.18

Nlocal:          33.75 ave          44 max          24 min
Histogram: 1 3 2 3 4 7 8 2 0 2
Nghost:           1033 ave        1046 max        1014 min
Histogram: 1 1 2 3 5 3 7 3 2 5
Neighs:              0 ave           0 max           0 min
Histogram: 32 0 0 0 0 0 0 0 0 0
FullNghs:      5333.06 ave        6960 max        3791 min
Histogram: 2 2 3 4 5 5 7 2 0 2

Total # of neighbors = 170658
Ave neighs/atom = 158.01667
Neighbor list builds = 4
Dangerous builds = 0

Total wall time: 1:03:00
