
units		metal
atom_style	atomic

read_data ${STRUCTURE}.data
read_data BaTiO3-sc333.data
Reading data file ...
  orthogonal box = (0 0 0) to (11.898253 11.898253 12.912076)
  2 by 4 by 4 MPI processor grid
  reading atoms ...
  135 atoms
  read_data CPU = 0.004 seconds
replicate $L $L $L
replicate 2 $L $L
replicate 2 2 $L
replicate 2 2 2
Replication is creating a 2x2x2 = 8 times larger system...
  orthogonal box = (0 0 0) to (23.796507 23.796507 25.824152)
  2 by 4 by 4 MPI processor grid
  1080 atoms
  replicate CPU = 0.003 seconds

pair_style allegro
pair_coeff	* * ${MODEL}.pth Ba Ti O
pair_coeff	* * BaTiO3-E0.pth Ba Ti O
mass 1 137.3
mass 2 47.9
mass 3 15.9994

timestep 0.002
compute polarization all allegro polarization 3
compute allegro will evaluate the quantity polarization of length 3 (src/compute_allegro.cpp:53)
compute polarizability all allegro polarizability 9
compute allegro will evaluate the quantity polarizability of length 9 (src/compute_allegro.cpp:53)

thermo_style custom pe fmax fnorm spcpu cpuremain

variable efield equal 1e-2*36.36
fix born all addbornforce 0.0 0.0 ${efield}
fix born all addbornforce 0.0 0.0 0.3636

thermo 10
min_style fire
#minimize 0.0 1e-6 100 100
velocity all create ${TEMP} ${SEED} dist gaussian rot yes mom yes
velocity all create 300 ${SEED} dist gaussian rot yes mom yes
velocity all create 300 4824 dist gaussian rot yes mom yes
fix nvt all nvt temp ${TEMP} ${TEMP} $(100*dt)
fix nvt all nvt temp 300 ${TEMP} $(100*dt)
fix nvt all nvt temp 300 300 $(100*dt)
fix nvt all nvt temp 300 300 0.2000000000000000111
run 5000
Neighbor list info ...
  update: every = 1 steps, delay = 0 steps, check = yes
  max neighbors/atom: 2000, page size: 100000
  master list distance cutoff = 8
  ghost atom cutoff = 8
  binsize = 8, bins = 3 3 4
  1 neighbor lists, perpetual/occasional/extra = 1 0 0
  (1) pair allegro/kk, perpetual
      attributes: full, newton on, kokkos_device
      pair build: full/bin/kk/device
      stencil: full/bin/3d
      bin: kk/device
Per MPI rank memory allocation (min/avg/max) = 3.516 | 3.516 | 3.516 Mbytes
    PotEng          Fmax          Fnorm          S/CPU         CPULeft    
-807708.29      1.5955472      37.043208      0              0            
-807648.16      3.4246204      44.523695      2.5578522      1950.8565    
-807636.49      2.4453391      35.033504      25.968356      1069.3594    
-807607.1       3.2392719      37.242683      25.974763      775.25459    
-807604         4.1340643      50.156815      25.922361      628.10618    
-807570.01      3.892214       39.683785      25.849616      539.77031    
-807604.2       2.8030941      38.051933      25.976959      480.59464    
-807646.61      3.2734474      33.633042      25.969981      438.22361    
-807685.68      2.4478907      33.622819      25.933836      406.38207    
-807669.78      2.9011247      33.380468      25.929149      381.53454    
-807653.58      3.6356278      34.325168      25.955349      361.56031    
-807660.74      2.4404788      26.496694      25.957081      345.14657    
-807629.27      3.7680208      30.353024      25.935664      331.41718    
-807587.83      3.4495862      39.775491      25.9064        319.757      
-807569.33      4.2800097      38.378023      25.94669       309.68661    
-807633.22      3.9567849      33.58967       25.937994      300.91173    
-807654.92      4.3573664      31.244435      25.933254      293.18764    
-807666.31      3.2193938      34.098752      25.939977      286.32407    
-807646.42      4.7135458      45.36326       25.964772      280.17043    
-807681.17      2.8312434      35.993017      25.9194        274.64106    
-807642.69      4.4242804      39.05443       25.910048      269.62939    
-807618.59      3.2454455      38.532352      25.960874      265.04105    
-807563.13      4.7090633      44.955117      25.975955      260.82992    
-807607.1       4.3218357      48.723175      25.928069      256.96627    
-807615.03      4.1245419      38.345952      25.882681      253.40584    
-807645.36      2.9881631      34.348039      25.957137      250.07831    
-807642.99      5.0282167      44.710707      25.966208      246.97464    
-807682.82      2.9756324      36.925321      25.92139       244.08401    
-807664.03      3.5151916      34.201224      25.868886      241.3855     
-807639.82      2.6814828      31.35831       25.943526      238.82836    
-807607.82      3.9729424      33.856556      25.969684      236.40993    
-807605.96      3.8645427      41.711192      25.907985      234.13656    
-807600.5       3.3553453      36.105811      25.838929      231.99623    
-807612.02      3.8641458      32.79382       25.945999      229.93956    
-807643.77      3.4561779      29.876477      25.958954      227.97856    
-807673.6       3.7317221      31.699743      25.924281      226.11446    
-807678.88      2.6337393      31.935579      25.896355      224.33785    
-807645.46      4.8922064      37.433322      25.96053       222.62445    
-807648.78      2.8179305      29.525348      25.943554      220.98403    
-807621.96      3.7685357      33.38256       25.947541      219.40725    
-807604         3.890845       42.958564      25.862181      217.90468    
-807572.62      4.3963897      41.178302      25.944913      216.44274    
-807625.37      3.2698554      35.071403      25.95877       215.02982    
-807650.81      4.523616       36.109497      25.9485        213.66631    
-807675.04      3.0496951      35.142646      25.914803      212.35246    
-807643.42      5.2455808      46.682034      25.935283      211.07678    
-807667.43      3.1591377      34.833273      25.946154      209.83819    
-807644.48      3.7917298      36.718338      25.925562      208.63887    
-807626.08      3.2027066      37.789392      25.935786      207.47201    
-807566.64      4.6006288      42.343185      25.999874      206.32829    
-807603.76      3.7031827      42.366175      25.96723       205.2193     
-807627.14      3.3140476      34.032761      25.920921      204.14473    
-807657.73      2.730108       31.97632       25.956845      203.09208    
-807643.85      4.2855069      40.726758      25.98238       202.06141    
-807673.54      2.5967078      33.422137      25.975337      201.05551    
-807666.72      2.4363978      32.382042      25.88692       200.08284    
-807643.96      2.9244434      30.017106      25.918556      199.12737    
-807600.92      3.856373       34.631496      25.960064      198.18709    
-807598.03      3.70648        37.325979      25.965926      197.26529    
-807610.14      3.4934734      37.624784      25.88715       196.37045    
-807624.17      3.3896559      31.436984      25.956803      195.48495    
-807639.85      3.2375169      32.026829      25.966227      194.61485    
-807664.2       3.3332257      33.081338      25.952926      193.76178    
-807677.35      2.6259223      34.619996      25.864451      192.93271    
-807649.42      4.6888761      36.103928      25.873224      192.11658    
-807632.98      3.1380663      32.745568      25.957824      191.30523    
-807613.65      3.9924968      34.501644      25.972383      190.50537    
-807606.86      4.3262152      44.57378       25.867316      189.728      
-807585.3       4.2438275      40.11509       25.930182      188.95618    
-807617.69      3.0613994      36.11932       25.972491      188.19162    
-807645.83      3.8930952      37.133359      25.931558      187.44164    
-807675.73      3.0233728      36.156674      25.896195      186.70511    
-807651.03      4.2100343      41.312686      25.884964      185.9793     
-807652.1       3.1445515      35.088348      25.940222      185.25798    
-807641         3.2846575      33.961399      25.954446      184.54452    
-807626.03      3.768826       37.824561      25.927112      183.84211    
-807578.58      3.1273931      38.110976      25.924431      183.14826    
-807593.27      3.6492376      39.094275      25.946934      182.46058    
-807631.98      4.0473546      31.079898      25.953557      181.78011    
-807661.92      3.5668906      31.777318      25.944137      181.10787    
-807652.98      4.7512224      35.641049      25.930582      180.44385    
-807658.97      3.2623646      34.700879      25.854265      179.79259    
-807665.59      3.0922509      31.393051      25.901972      179.14415    
-807643.49      2.9174754      31.610107      25.892051      178.50278    
-807603.48      3.3916572      34.832067      25.947738      177.86338    
-807585.28      3.368633       38.485309      25.970362      177.22831    
-807611.68      3.1530787      38.284003      25.912706      176.60318    
-807633.86      2.8528258      31.816144      25.888301      175.98528    
-807644.76      3.0819524      32.982352      25.961815      175.36753    
-807653.3       4.168388       36.816069      25.950814      174.75575    
-807672.83      2.8659906      35.073702      25.880089      174.1538     
-807653.61      3.7175316      35.077773      25.858668      173.55803    
-807629.9       2.6125496      32.781457      25.959627      172.96013    
-807603.03      3.5082078      35.024248      25.973759      172.36589    
-807606.69      3.5084143      42.223831      25.916595      171.77977    
-807602.39      3.5513494      35.56465       25.883233      171.19999    
-807622.67      2.99581        34.043646      25.961693      170.61932    
-807642.41      4.4963648      35.729687      25.98643       170.04116    
-807671.59      3.0497253      35.219822      25.923347      169.47079    
-807660.46      3.9197386      35.275887      25.895652      168.90581    
-807646.09      2.9899334      34.054347      25.951788      168.34108    
-807629.92      3.6183442      33.438084      25.960196      167.7794     
-807623.76      3.8172308      37.116609      25.956977      167.22136    
-807594.8       3.5164811      37.245221      25.947729      166.66722    
-807596.34      3.3228221      37.013255      25.938238      166.11685    
-807627.9       4.8893856      32.98293       25.944649      165.56927    
-807662.64      2.7763492      32.024825      25.926464      165.02575    
-807661.32      3.2620197      34.089365      25.892959      164.48701    
-807652.1       3.4680794      35.349697      25.934926      163.94883    
-807655.28      3.3868389      31.496074      25.909044      163.41483    
-807642.13      3.3090469      30.971804      25.916515      162.88313    
-807610.59      3.5887116      34.182095      25.916796      162.35404    
-807583.39      2.6697535      36.817553      25.963501      161.82511    
-807611.35      3.5131077      35.071241      25.965629      161.29861    
-807639.65      2.6340653      31.671997      25.834295      160.78122    
-807654.15      3.3360254      31.933171      25.934353      160.2611     
-807649.37      4.32525        37.529884      25.933667      159.74333    
-807665.61      2.9868473      34.205107      25.937938      159.22761    
-807653.79      3.5317399      34.515005      25.883551      158.71672    
-807631.36      2.7516933      33.074621      25.890539      158.20759    
-807592.98      3.9326519      37.562796      25.972147      157.69667    
-807603.35      3.7460288      39.064661      25.962041      157.18829    
-807614.21      3.4557781      34.548816      25.869989      156.68619    
-807635.1       2.4679106      31.127104      25.839521      156.18735    
-807640.7       3.4647525      34.60603       25.962733      155.68476    
-807666.56      2.3582091      32.840766      25.958012      155.18425    
-807661.55      2.5759531      34.110669      25.86768       154.68956    
-807647.39      2.6198869      32.471099      25.945764      154.19316    
-807617.85      3.8149549      34.811218      25.974249      153.69727    
-807615.12      3.3635477      36.558767      25.939333      153.20458    
-807601.45      4.0682075      39.20527       25.892098      152.71555    
-807606.43      2.8733778      35.893143      25.852295      152.22976    
-807624.73      4.133995       33.84631       25.878456      151.74438    
-807658.75      2.4613829      32.915826      25.892074      151.25993    
-807663.91      3.2230805      34.260328      25.874528      150.77766    
-807650.6       3.404126       34.985999      25.852445      150.2977     
-807640.6       3.5547992      33.859353      25.927482      149.81611    
-807635.71      3.5149813      32.628321      25.944264      149.33526    
-807613.35      3.9126334      37.225271      25.917167      148.85686    
-807588.27      3.2075101      38.25824       25.888362      148.3809     
-807607.63      2.601393       35.458012      25.96966       147.90311    
-807641.09      2.8281766      32.381574      25.944522      147.42758    
-807659.61      2.5644949      33.487744      25.92575       146.95403    
-807649.33      4.1893036      37.138465      25.944236      146.48103    
-807655.08      3.195945       33.964272      25.944297      146.00923    
-807648.97      3.6176877      33.289821      25.9188        145.53955    
-807632.47      3.3028872      33.706026      25.918959      145.07102    
-807591.61      3.9852663      37.62049       25.947452      144.6026     
-807596.16      3.1954499      38.83326       25.977873      144.13422    
-807618.18      4.0909913      35.997588      25.920578      143.66897    
-807645.51      3.1434883      32.812529      25.921868      143.20473    
-807641.77      5.2787507      37.291471      25.974588      142.73973    
-807659.26      3.1706268      33.744914      25.966161      142.27606    
-807658.43      3.0362182      34.742035      25.923234      141.81486    
-807648.39      2.3748584      31.272263      25.845473      141.35726    
-807613.12      3.2266743      33.716814      25.943855      140.89729    
-807604.9       3.1872927      34.632935      25.976148      140.43723    
-807606.59      3.3267037      36.939603      25.876502      139.98136    
-807622.43      3.232881       32.883722      25.931469      139.5246     
-807630.29      3.7835712      33.28793       25.96214       139.06776    
-807653.23      3.3667655      33.176821      25.951567      138.61214    
-807663.51      3.2066195      34.211443      25.914653      138.15856    
-807654.13      3.5215278      33.813701      25.91115       137.70592    
-807634.4       3.6248507      33.65587       25.953397      137.25279    
-807621.16      3.0886023      33.649751      25.975926      136.79981    
-807614.18      4.087177       37.788238      25.934926      136.34889    
-807601.03      3.3440965      37.072362      25.928041      135.89897    
-807614.26      2.9310633      33.823112      25.939371      135.44948    
-807638.29      3.4059979      32.732222      25.965318      134.99998    
-807662.13      2.8438482      32.339124      25.934315      134.55215    
-807655.38      3.38213        34.237679      25.881113      134.1066     
-807649.85      2.7385591      32.431576      25.936148      133.66015    
-807639.76      3.2971032      31.832342      25.946986      133.21411    
-807630.45      3.3395421      33.398246      25.918396      132.76957    
-807600.34      2.9535361      35.737637      25.878274      132.32683    
-807600.12      2.8761477      35.837759      25.964843      131.88234    
-807621.51      4.1957273      32.733834      25.929694      131.43948    
-807650.83      2.6780758      31.692538      25.886101      130.99846    
-807652.57      3.3052578      32.826138      25.919457      130.55715    
-807653.55      3.1699513      33.14717       25.949991      130.11565    
-807653.59      3.7206118      32.41581       25.927825      129.67535    
-807644.12      3.2381138      31.430539      25.929229      129.23563    
-807617.06      2.8656019      33.779916      25.892131      128.79746    
-807597.11      3.2397861      36.038502      25.987232      128.35741    
-807607.47      3.0307147      36.537408      25.960855      127.91864    
-807629.69      3.0415086      32.939191      25.930779      127.4812     
-807641.78      2.6183562      31.829848      25.933766      127.04424    
-807647.19      3.45517        34.506328      25.919672      126.60819    
-807660.1       2.9574651      33.487462      25.860606      126.17413    
-807652.38      3.150829       33.891404      25.87913       125.74012    
-807634.03      2.7729458      31.911344      25.923262      125.30554    
-807608         3.2815758      34.996694      25.969057      124.87037    
-807607.77      3.2293112      37.37255       25.914451      124.43702    
-807608.7       2.9234178      36.602819      25.843621      124.00584    
-807623.78      3.1991653      33.362813      25.873991      123.57441    
-807635.09      3.6992426      35.31643       25.921929      123.14232    
-807658.4       3.4366086      33.893236      25.927238      122.71057    
-807655.53      2.7274519      34.43763       25.882554      122.28032    
-807642.59      3.5027753      34.008086      25.906297      121.84998    
-807628.47      3.045682       32.847701      25.93503       121.41943    
-807620.93      2.9064217      34.239619      25.949271      120.98901    
-807607.54      3.1562736      35.692884      25.947635      120.55908    
-807605.55      2.8598244      34.821346      25.952616      120.12948    
-807623.24      3.5173476      33.071727      25.965544      119.70004    
-807649.2       2.8741203      31.390318      25.980909      119.2707     
-807655.18      3.1943263      33.078672      25.942431      118.84261    
-807647.77      3.4856253      34.295675      25.938328      118.41503    
-807643.29      3.2690552      33.540095      25.951656      117.98757    
-807636.07      3.3620785      32.510564      25.952907      117.56049    
-807618.28      2.8834374      35.039864      25.918603      117.13452    
-807598.64      3.6622239      36.913946      25.929229      116.70871    
-807609.43      3.6065134      35.412033      25.92498       116.28338    
-807633.64      3.5317033      33.296758      25.921545      115.85848    
-807649.18      2.5789322      33.074218      25.887978      115.43463    
-807644.94      3.7149637      35.736427      25.931596      115.01026    
-807653.45      3.3934364      33.551971      25.926525      114.58634    
-807649.24      3.0697018      32.094313      25.920663      114.1629     
-807634.35      2.8140484      32.107599      25.948542      113.73927    
-807604.91      3.5047488      35.593694      25.959457      113.31577    
-807607.06      2.855046       36.306145      25.955457      112.8927     
-807617.36      3.0759251      34.672959      25.945232      112.47017    
-807635.04      2.4674723      32.374698      25.904558      112.04874    
-807638.76      2.844538       34.434455      25.958012      111.62663    
-807655.59      3.3410272      33.280554      25.974824      111.20454    
-807655.52      3.5062022      33.847625      25.919583      110.78379    
-807645.71      3.9293952      32.177272      25.908158      110.36357    
-807621.73      2.8392984      33.571758      25.952926      109.94284    
-807614.99      3.0213675      34.420999      25.954841      109.52238    
-807610.26      3.0516094      36.260323      25.943371      109.10244    
-807616.62      3.2571088      34.017657      25.930525      108.68303    
-807629.89      3.0502885      32.377456      25.950475      108.26356    
-807648.94      2.7574623      32.413429      25.970904      107.84403    
-807657.05      2.5963664      32.578752      25.9296        107.42551    
-807650.21      3.079613       32.959109      25.919565      107.00744    
-807638.82      2.6738395      32.388058      25.959114      106.58898    
-807626.68      3.2874541      33.295832      25.937069      106.17118    
-807617.36      3.2280975      35.168715      25.917101      105.75397    
-807605.34      3.0123233      35.849899      25.943615      105.3366     
-807615.71      3.5313871      34.449137      25.964165      104.91916    
-807634.57      2.7954704      33.059749      25.977797      104.50176    
-807654.23      2.7605056      32.346301      25.9113        104.08571    
-807648.47      3.9003154      35.449615      25.912875      103.66988    
-807648.19      3.125954       33.666736      25.906818      103.2544     
-807640.43      4.4446146      33.661286      25.953571      102.83842    
-807628.8       3.6353218      33.988496      25.929605      102.42307    
-807603.89      3.7714094      36.711032      25.96821       102.00736    
-807605.17      3.4880676      36.171738      25.956991      101.59208    
-807619.86      2.7686564      34.444609      25.934799      101.17737    
-807639.96      3.0067154      33.409493      25.914901      100.7632     
-807645.02      2.9538073      33.788328      25.944269      100.34882    
-807649.56      3.2426523      34.509976      25.921441      99.935009    
-807650.3       3.0320448      33.340593      25.924628      99.521374    
-807642.42      3.2593184      33.072003      25.958121      99.107471    
-807618.3       3.6840821      34.115039      25.95326       98.693865    
-807605.8       3.3326017      36.075938      25.982464      98.280062    
-807610.81      3.3574787      36.320021      25.919358      97.867386    
-807624.37      3.893414       34.574017      25.927943      97.454799    
-807634.56      4.0214325      33.146269      25.914676      97.042607    
-807644.27      4.9938291      34.690023      25.933334      96.63036     
-807653.7       3.247511       33.985925      25.936918      96.218268    
-807648.61      3.4922404      34.456329      25.919321      95.806622    
-807634.29      3.160813       33.337121      25.978721      95.394366    
-807616.58      2.9118339      34.922818      25.967023      94.982476    
-807613.31      4.0554345      36.634681      25.988128      94.570509    
-807611.58      3.3298977      36.462345      25.929783      94.15952     
-807620.54      3.3116407      35.01777       25.923751      93.748804    
-807635.02      3.4276153      34.270756      25.92729       93.338228    
-807652.82      3.1867044      33.930483      25.913504      92.928018    
-807649.98      3.6645676      35.169836      25.921315      92.517888    
-807644.28      3.9218614      33.649782      25.942534      92.107669    
-807632.86      3.6409637      33.657758      25.98944       91.69704     
-807625.5       3.1150849      33.950834      25.961999      91.286946    
-807609.12      3.2139485      35.780063      25.927318      90.877466    
-807609.94      3.2203115      34.693569      25.939329      90.468013    
-807624.29      3.2794196      33.540793      25.98643       90.058158    
-807645.51      2.7114         32.033586      25.931169      89.649156    
-807649.55      2.8286052      34.080957      25.937811      89.240243    
-807648.73      3.2731632      34.450839      25.919508      88.831718    
-807646.55      3.1578184      33.821963      25.914892      88.423412    
-807637.5       3.3648073      33.801082      25.977557      88.014528    
-807617.9       3.7397153      34.754628      25.983766      87.605744    
-807605.53      3.8632492      36.430843      25.985143      87.197114    
-807612.73      3.9515343      36.074708      25.962856      86.788908    
-807630.58      3.8960917      34.226143      26.000658      86.380436    
-807642.07      2.9439364      33.999482      25.971497      85.97246     
-807646.63      4.945259       35.647886      25.983478      85.564511    
-807650.89      3.3718324      34.256291      25.936406      85.157246    
-807647.69      2.9258726      33.713363      25.932521      84.750175    
-807632.22      3.1676938      33.715034      25.961298      84.342939    
-807613.58      2.860102       34.921997      26.014532      83.93528     
-807611.41      3.758164       35.513888      26.037088      83.52754     
-807617.16      4.5481337      35.024468      25.925633      83.121149    
-807630.44      2.9037744      32.838417      25.934893      82.714801    
-807639.78      3.9108105      33.354895      25.986661      82.308052    
-807651.46      3.2914218      33.70363       25.987548      81.901443    
-807652.13      2.7384195      33.779938      25.921831      81.49566     
-807642.05      3.873465       33.713375      25.909949      81.090134    
-807626.12      3.3410193      33.272223      25.966768      80.684163    
-807619.65      3.2084315      34.512127      25.991586      80.278082    
-807611.6       2.8355213      35.839339      25.940701      79.872652    
-807615.22      2.8197607      34.543154      25.967536      79.467089    
-807628.78      3.0985116      32.852925      25.980536      79.061534    
-807647.4       3.2706804      32.972903      25.931577      78.656592    
-807651.84      3.0730986      33.843293      25.920085      78.25189     
-807647.67      2.5408619      33.627039      25.989095      77.846651    
-807638.42      3.4581814      33.996141      25.993672      77.441503    
-807631.82      3.0462085      32.943076      25.964061      77.036767    
-807615.12      3.1646238      35.581225      25.969302      76.632109    
-807605.55      3.222962       36.312423      25.991666      76.227372    
-807614.71      3.2347924      34.881722      25.94969       75.82315     
-807634.88      4.2898957      33.89743       25.987708      75.418703    
-807644.53      3.4973504      34.288315      25.96683       75.014571    
-807649.15      3.4527926      33.928198      25.91318       74.611041    
-807645.9       3.0469202      35.033129      25.939714      74.207388    
-807642.11      3.5801907      33.001412      25.938605      73.803861    
-807627.97      2.828173       32.797724      25.977486      73.400108    
-807607.69      2.9322073      35.657822      25.977251      72.996477    
-807606.26      2.8917846      36.333959      25.958125      72.593127    
-807620.11      2.9674859      34.800953      25.939366      72.190051    
-807635.39      3.3464355      33.916722      25.958793      71.786921    
-807641.9       3.5270148      35.334746      25.983233      71.3837      
-807648.35      2.8333134      34.918218      26.009499      70.980375    
-807649.31      3.819613       35.05023       25.975761      70.577444    
-807639.23      3.0586567      33.835049      25.955702      70.174788    
-807618.82      4.6392216      35.456715      25.967701      69.772142    
-807612.52      3.4698109      35.737658      25.945862      69.369778    
-807610         4.1516208      36.516717      25.998991      68.967098    
-807621.26      3.4899736      35.367928      26.026103      68.564316    
-807631.67      3.5961428      34.482518      25.953039      68.162215    
-807646.97      3.1028565      33.615253      25.960102      67.760161    
-807650.08      3.626582       35.097895      25.920015      67.358517    
-807649.12      3.562404       33.747427      25.942952      66.956793    
-807633.28      4.3956932      33.747567      25.979259      66.554895    
-807624.58      2.8771755      33.847379      25.926187      66.153495    
-807612.66      3.7185885      36.035708      25.921751      65.752221    
-807612.91      2.8071596      36.037901      25.939023      65.350913    
-807620.41      2.3538021      34.042269      26.002915      64.949237    
-807637.57      2.8391371      33.385125      26.002547      64.547665    
-807650.38      3.448552       33.360285      25.927398      64.146728    
-807648.97      3.8010489      34.951664      25.969354      63.745584    
-807644.69      3.4132129      34.527793      25.950828      63.344665    
-807635.86      4.3337348      33.931904      25.963534      62.943749    
-807624.89      3.3834143      34.949001      25.925407      62.543187    
-807609.7       3.2705075      36.368345      25.92024       62.142747    
-807611.47      2.8413835      35.141955      25.955274      61.742155    
-807624.38      3.6220387      34.945836      26.000677      61.34135     
-807641.6       3.3446885      33.861233      26.021317      60.940503    
-807646.56      3.1596307      34.236488      26.010827      60.53982     
-807649.39      3.950192       34.846613      26.015123      60.139202    
-807644.27      3.5302041      34.694117      26.02696       59.738602    
-807637.51      3.3542145      33.78299       25.954483      59.338555    
-807619.2       2.9958066      35.335653      25.968502      58.938503    
-807608.53      3.5908235      36.516306      25.989921      58.538404    
-807613.47      3.3348412      35.714144      25.994984      58.13836     
-807629.53      3.1045763      33.795487      26.015988      57.738275    
-807638         2.8912767      34.339571      26.022735      57.338237    
-807647.24      3.3238521      33.573935      25.999619      56.938426    
-807650.11      3.5929224      34.389885      25.94267       56.539039    
-807645.88      2.8656302      34.062709      25.934677      56.139776    
-807632.2       3.4713063      34.09334       25.928313      55.740627    
-807617.39      3.3601733      35.152356      25.995701      55.341164    
-807611.24      3.5070957      36.707876      25.988232      54.941825    
-807617.82      3.1027795      34.939524      25.922896      54.542937    
-807627.47      3.3196145      34.174911      25.927257      54.144096    
-807639.64      2.8888374      33.788284      25.957537      53.745159    
-807648.16      3.1835427      34.128567      25.928699      53.346456    
-807650.08      3.4036957      34.705374      25.918584      52.947879    
-807641.81      3.1767693      34.139669      25.963981      52.549128    
-807626.91      3.2275985      34.992286      25.98122       52.150358    
-807619.21      2.7044951      35.468723      25.973325      51.751705    
-807612.44      3.4972893      37.248958      25.983582      51.353073    
-807616.03      3.0078589      36.365886      26.005144      50.954404    
-807624.64      3.7784986      35.836583      25.986246      50.555907    
-807643.25      3.0575427      34.57841       25.963661      50.157597    
-807645.96      4.2570391      36.108448      25.944518      49.759454    
-807645.85      3.5637889      35.038756      25.955161      49.361325    
-807636.55      3.7065958      35.612217      25.996404      48.963063    
-807630.73      2.9890925      35.505193      25.990331      48.564903    
-807615.22      3.0006321      36.278123      25.934123      48.167083    
-807609.17      3.0344908      36.592835      25.950367      47.76925     
-807614.93      3.2515515      35.656299      25.929548      47.371581    
-807631.63      3.477547       34.853009      25.919771      46.97402     
-807642.72      3.1329937      34.417036      25.925605      46.576494    
-807643.87      3.7460569      35.385749      25.928797      46.179015    
-807644.41      4.1694055      34.983771      25.986081      45.781341    
-807640.08      2.7774232      33.803313      25.929905      45.383982    
-807628.73      3.5363594      33.725323      25.935391      44.98666     
-807612.33      3.4007257      36.055782      25.927825      44.589432    
-807611.98      3.0873031      36.011872      25.950894      44.192164    
-807619.97      3.3405421      36.545016      25.9818        43.794827    
-807634.1       3.101283       34.511033      25.927938      43.397779    
-807640.32      3.691115       34.870812      26.004421      43.000472    
-807645.72      3.2190072      35.645213      25.98826       42.603297    
-807646.64      4.1799879      35.368773      25.958116      42.206307    
-807638.23      3.4870953      34.133122      25.953735      41.809394    
-807623.7       2.7610388      33.92399       25.983356      41.412422    
-807616.33      4.149246       35.595229      25.954022      41.015627    
-807616.74      3.3465678      35.896472      25.996249      40.618726    
-807622.52      3.5854605      35.007899      26.004823      40.221855    
-807633.55      3.6445725      33.609271      25.987708      39.82511     
-807642.35      3.8772228      34.498342      25.966156      39.428504    
-807648.64      4.1212628      34.379322      25.963058      39.031966    
-807644.9       3.731115       34.252968      25.921568      38.635636    
-807634.89      4.5888482      33.797677      25.949742      38.239257    
-807625.45      3.6593809      34.415516      25.959914      37.842897    
-807616.68      4.9751151      35.581753      25.927295      37.446706    
-807616.45      4.0982201      35.21892       25.925802      37.050571    
-807622.3       4.6466871      34.434684      25.933597      36.654462    
-807634.85      3.9604959      33.545292      25.938741      36.258386    
-807644.33      4.1849836      34.278921      25.931173      35.862387    
-807647.51      2.8893298      33.198932      25.918063      35.466482    
-807642.39      2.8825562      32.623168      25.963425      35.070479    
-807635.75      2.8985979      33.050189      25.933663      34.674624    
-807627.05      3.0323352      32.954151      25.924901      34.278846    
-807616.83      2.7401725      34.363026      25.94369       33.883058    
-807615.72      3.3288628      34.913147      25.980744      33.487207    
-807625.93      4.2962611      33.741537      25.990647      33.09138     
-807636.94      3.5793029      33.203733      25.996815      32.695587    
-807643.48      3.2514354      34.189034      25.953989      32.299972    
-807645.02      3.349314       33.868964      25.917045      31.904513    
-807641.18      3.5512162      34.448972      25.922652      31.509083    
-807635.29      3.3690925      34.374828      25.919386      31.113709    
-807624.3       3.1684853      34.533137      25.928384      30.718355    
-807614.12      3.5443508      35.864742      25.92299       30.323061    
-807619.4       3.5848548      35.18232       25.956026      29.927725    
-807626.68      3.5573885      35.022386      25.937228      29.532485    
-807636.71      4.12853        33.39462       25.948086      29.137262    
-807642.38      4.1628522      33.807793      25.968285      28.742035    
-807645.49      3.1825043      33.649409      25.94731       28.346907    
-807640.36      3.2451194      34.371185      25.924656      27.95188     
-807633.54      3.8553285      33.282871      25.984105      27.556753    
-807622.17      3.0293936      34.142336      25.985718      27.16167     
-807616.42      3.6852701      35.49703       25.949807      26.766718    
-807619.1       3.3993485      34.838978      25.909246      26.371904    
-807626.09      3.4589536      34.350007      25.935133      25.977071    
-807635.52      3.1217175      34.341964      25.905139      25.582349    
-807642.43      3.4301234      34.766631      25.918115      25.187637    
-807644.55      2.9021767      33.425653      25.921854      24.792958    
-807639.45      4.4943839      34.062867      25.952357      24.398256    
-807630.38      3.0958947      33.507503      25.928252      24.003646    
-807622.86      4.0812624      34.592606      25.932202      23.609069    
-807616.52      4.2986269      35.237178      25.898565      23.2146      
-807617.2       3.2837821      35.501691      25.872008      22.82022     
-807627.17      4.3921681      34.568618      25.962018      22.425703    
-807637.62      3.2730878      34.190953      26.002863      22.031152    
-807642.15      3.2688097      34.667519      25.928882      21.636782    
-807643.02      3.2401408      34.290954      25.959829      21.242395    
-807638.06      4.0055336      34.453762      26.024225      20.847936    
-807631.42      3.2263475      34.654598      25.956511      20.453639    
-807620.72      4.2696504      35.364791      25.924201      20.059436    
-807614.59      3.0096322      36.224751      25.959951      19.665212    
-807618.67      3.5192557      35.987022      25.946939      19.27105     
-807628.58      3.3598368      34.980733      25.962408      18.876901    
-807638.16      3.2964168      34.095709      25.929436      18.482843    
-807640.84      3.0918935      34.71245       25.971083      18.08876     
-807641.74      3.3542158      34.533513      25.936528      17.694766    
-807638.73      3.0227951      33.90313       25.941603      17.300803    
-807629.57      3.7342528      34.022638      25.944527      16.906873    
-807618.29      4.6079489      36.135573      25.957895      16.512961    
-807617.42      3.7600378      35.124178      25.949356      16.119099    
-807623.32      4.6251746      34.490284      25.964113      15.725254    
-807631.75      3.002423       33.059631      25.938079      15.33148     
-807637.98      3.7885071      33.859278      25.953472      14.937723    
-807644.59      2.9062895      32.582202      25.975648      14.543976    
-807643.93      3.0590182      33.451383      25.966787      14.150277    
-807638.54      3.0747705      32.669259      25.942186      13.756642    
-807627.95      3.2384474      33.799105      25.926614      13.363059    
-807622.33      3.1817733      34.230586      25.946224      12.96949     
-807620.83      3.3255166      34.474359      25.917336      12.575985    
-807622.2       2.9726965      34.473832      25.945735      12.182484    
-807631.53      2.9854182      33.491685      25.948561      11.789015    
-807639.52      2.713596       33.756078      25.91986       11.395607    
-807644.59      3.0540715      33.795929      25.929407      11.002223    
-807641.73      2.6986698      34.13284       25.888367      10.608906    
-807637.4       3.153728       33.79969       25.924497      10.215589    
-807628.07      3.666694       34.018565      25.931023      9.8222993    
-807621.89      3.077811       35.20239       25.914367      9.4290541    
-807619.03      3.0000331      34.789724      26.099304      9.0357079    
-807623.85      3.7161135      34.124949      26.099042      8.6424046    
-807631.83      2.9639177      33.701739      26.079386      8.2491562    
-807641.62      2.7067651      33.446216      26.040502      7.8559726    
-807643.47      3.5275314      33.608573      25.992119      7.4628553    
-807642.37      2.8847064      33.089064      26.034086      7.0697497    
-807635.98      3.3482521      33.701655      26.033182      6.6766818    
-807628.85      3.0421938      33.176428      26.013478      6.2836604    
-807619.05      3.624426       34.968468      26.034063      5.8906651    
-807618.81      3.680497       34.947418      26.009159      5.497717     
-807625.29      3.4297525      34.036893      26.066292      5.1047812    
-807633.86      2.9697642      33.777664      26.072704      4.7118811    
-807640.32      2.887128       33.707668      25.99994       4.3190435    
-807642.88      3.7532576      33.880749      25.972251      3.9262478    
-807640.96      4.2399252      33.794411      25.980545      3.5334815    
-807635.96      3.0813611      33.999901      25.95629       3.140753     
-807625.17      3.531779       34.991689      26.028341      2.7480396    
-807618.14      3.7997752      35.131637      26.06501       2.3553542    
-807618.87      3.2773069      35.451881      26.057753      1.9627063    
-807625.4       3.3170075      34.921477      26.062648      1.5700937    
-807634.17      3.4523152      33.761721      26.060541      1.1775171    
-807637         3.4457344      35.35924       25.952267      0.78498257   
-807642.44      2.7363903      34.385557      25.930192      0.39247758   
-807641.02      3.3195993      33.691237      25.98784       0            
Loop time of 196.231 on 32 procs for 5000 steps with 1080 atoms

Performance: 4.403 ns/day, 5.451 hours/ns, 25.480 timesteps/s, 27.519 katom-step/s
67.3% CPU use with 32 MPI tasks x 1 OpenMP threads

MPI task timing breakdown:
Section |  min time  |  avg time  |  max time  |%varavg| %total
---------------------------------------------------------------
Pair    | 101.58     | 144.32     | 192.19     | 311.5 | 73.55
Neigh   | 0          | 0          | 0          |   0.0 |  0.00
Comm    | 1.7559     | 49.62      | 92.37      | 531.3 | 25.29
Output  | 0.026329   | 0.027103   | 0.028181   |   0.2 |  0.01
Modify  | 1.9395     | 1.9468     | 1.9571     |   0.3 |  0.99
Other   |            | 0.3134     |            |       |  0.16

Nlocal:          33.75 ave          48 max          21 min
Histogram: 8 8 0 0 0 0 0 8 0 8
Nghost:        1106.25 ave        1119 max        1092 min
Histogram: 8 0 8 0 0 0 0 0 8 8
Neighs:              0 ave           0 max           0 min
Histogram: 32 0 0 0 0 0 0 0 0 0
FullNghs:       5494.5 ave        7896 max        3378 min
Histogram: 8 8 0 0 0 0 0 8 0 8

Total # of neighbors = 175824
Ave neighs/atom = 162.8
Neighbor list builds = 0
Dangerous builds = 0

reset_timestep 0


variable interval equal 1000
thermo 10

variable nintervals equal $(v_PERIOD/v_interval)
variable nintervals equal 100
variable efield equal 1e-2*36.36*cos((step/${PERIOD})*2*3.14)
variable efield equal 1e-2*36.36*cos((step/100000)*2*3.14)
fix born all addbornforce 0.0 0.0 v_efield

variable Px equal f_born[1]+c_polarization[1]
variable Py equal f_born[2]+c_polarization[2]
variable Pz equal (f_born[3]+c_polarization[3])/vol
variable pe equal pe

fix aveP all ave/time 1 $(v_interval/2) ${interval} v_efield v_Pz v_pe f_born file Pz.${MODEL}.${STRUCTURE}.${TEMP}.$L.${ITER}
fix aveP all ave/time 1 500 ${interval} v_efield v_Pz v_pe f_born file Pz.${MODEL}.${STRUCTURE}.${TEMP}.$L.${ITER}
fix aveP all ave/time 1 500 1000 v_efield v_Pz v_pe f_born file Pz.${MODEL}.${STRUCTURE}.${TEMP}.$L.${ITER}
fix aveP all ave/time 1 500 1000 v_efield v_Pz v_pe f_born file Pz.BaTiO3-E0.${STRUCTURE}.${TEMP}.$L.${ITER}
fix aveP all ave/time 1 500 1000 v_efield v_Pz v_pe f_born file Pz.BaTiO3-E0.BaTiO3-sc333.${TEMP}.$L.${ITER}
fix aveP all ave/time 1 500 1000 v_efield v_Pz v_pe f_born file Pz.BaTiO3-E0.BaTiO3-sc333.300.$L.${ITER}
fix aveP all ave/time 1 500 1000 v_efield v_Pz v_pe f_born file Pz.BaTiO3-E0.BaTiO3-sc333.300.2.${ITER}
fix aveP all ave/time 1 500 1000 v_efield v_Pz v_pe f_born file Pz.BaTiO3-E0.BaTiO3-sc333.300.2.1

thermo_style custom step time temp press pe f_born v_efield v_Pz spcpu cpuremain

# dump 4a all custom 1000 dump.hyst.${MODEL}.${STRUCTURE}.${TEMP}.$L.${ITER}.bin id type xu yu zu fx fy fz
# dump_modify 4a sort id

fix nvt all nvt temp ${TEMP} ${TEMP} $(100*dt)
fix nvt all nvt temp 300 ${TEMP} $(100*dt)
fix nvt all nvt temp 300 300 $(100*dt)
fix nvt all nvt temp 300 300 0.2000000000000000111

run $(v_PERIOD)
run 100000
WARNING: non-constant efield is experimental, strongly distrust scalar/vector output (src/fix_addbornforce.cpp:193)
Per MPI rank memory allocation (min/avg/max) = 3.516 | 3.516 | 3.516 Mbytes
   Step          Time           Temp          Press          PotEng         f_born        v_efield         v_Pz          S/CPU         CPULeft    
         0   0              308.83427      126562.42     -807641.02     -293.26035      0.3636         0.055153997    0              0            
        10   0.02           312.28411      132169.87     -807633.18     -301.77461      0.36359993     0.0567553      28.086514      3560.0911    
        20   0.04           317.1256       139942.18     -807623.88     -311.79802      0.36359971     0.058640456    28.072565      3560.6072    
        30   0.06           306.18142      142731.73     -807619.13     -315.11278      0.36359935     0.059263927    28.074894      3560.4464    
        40   0.08           307.01799      142725.58     -807620.07     -314.32641      0.36359885     0.059116114    28.051138      3560.9418    
        50   0.1            314.70829      136611.23     -807626.86     -308.86684      0.36359821     0.058089424    28.092102      3560.0553    
        60   0.12           313.52909      131774.84     -807633.42     -302.15504      0.36359742     0.056827241    28.082372      3559.5529    
        70   0.14           294.77728      125004.89     -807640.14     -293.01834      0.36359649     0.055109015    28.065896      3559.3892    
        80   0.16           292.07718      125509.64     -807642.5      -290.30605      0.36359541     0.054599066    28.093403      3558.7422    
        90   0.18           298.22371      126873.11     -807639.44     -294.54846      0.36359419     0.05539714     28.100989      3558.0527    
       100   0.2            310.3897       133659.34     -807631.17     -304.65957      0.36359283     0.057298998    28.11982       3557.1929    
       110   0.22           309.06044      138705.09     -807625.31     -310.6193       0.36359132     0.05842012     28.103278      3556.6143    
       120   0.24           296.22437      143328.86     -807620.23     -314.1047       0.36358968     0.05907591     28.092058      3556.1912    
       130   0.26           294.94149      141742.23     -807621.08     -313.34026      0.36358788     0.058932425    28.089346      3555.8048    
       140   0.28           311.21361      137197.6      -807627.74     -309.17506      0.36358595     0.058149353    28.100647      3555.321     
       150   0.3            298.1351       128916.97     -807636.21     -299.09112      0.36358387     0.056253097    28.118759      3554.701     
       160   0.32           288.4573       125604.07     -807641.84     -292.15767      0.36358165     0.054949389    28.125034      3554.0648    
       170   0.34           297.58702      123200.86     -807643.95     -291.54825      0.36357928     0.054835124    28.11065       3553.5685    
       180   0.36           293.34893      128302        -807636.93     -298.19212      0.36357677     0.056085106    28.131565      3552.9414    
       190   0.38           303.59366      133039.59     -807632.63     -304.08359      0.36357412     0.057193615    28.100289      3552.5502    
       200   0.4            295.32444      140769.44     -807624.17     -311.52118      0.36357132     0.058592966    28.088206      3552.2394    
       210   0.42           291.47811      142099.17     -807620.4      -314.88695      0.36356838     0.059226501    28.117528      3551.7477    
       220   0.44           301.24959      140942.69     -807622.39     -314.29393      0.3635653      0.059115463    28.095459      3551.3949    
       230   0.46           295.41593      134360.68     -807630.49     -305.46523      0.36356207     0.057455383    28.062315      3551.2243    
       240   0.48           301.3245       128132.43     -807639.52     -297.20034      0.3635587      0.055901347    28.073666      3550.9783    
       250   0.5            293.20613      124124.37     -807642.7      -292.87332      0.36355519     0.055087997    28.08382       3550.6723    
       260   0.52           290.63544      124201.5      -807642.75     -292.47686      0.36355153     0.055013978    28.094632      3550.3098    
       270   0.54           303.7664       128272.94     -807639.18     -297.85191      0.36354773     0.056025595    28.093733      3549.9517    
       280   0.56           295.40273      134292.94     -807630.55     -305.40376      0.36354379     0.057446711    28.10879       3549.5261    
       290   0.58           294.72154      141658.87     -807622.27     -313.51513      0.3635397      0.058973129    28.083567      3549.2151    
       300   0.6            289.89762      142495.41     -807620.04     -315.06844      0.36353547     0.059266       28.081364      3548.9105    
       310   0.62           300.57194      141098.83     -807623.85     -312.59068      0.3635311      0.058800629    28.102258      3548.5173    
       320   0.64           308.76476      132418.58     -807633.76     -303.88861      0.36352658     0.057164416    28.091022      3548.171     
       330   0.66           296.6773       128419.58     -807638.13     -297.57609      0.36352192     0.055977686    28.082779      3547.8553    
       340   0.68           282.35953      123295.25     -807642.34     -291.3334       0.36351712     0.054804084    28.096567      3547.4862    
       350   0.7            278.91971      125811.85     -807640.23     -292.88603      0.36351217     0.055096907    28.144284      3546.9461    
       360   0.72           290.58784      128955.53     -807636.96     -297.75887      0.36350708     0.056014357    28.168879      3546.3304    
       370   0.74           304.34035      136028.83     -807628.63     -307.903        0.36350185     0.057923503    28.136679      3545.8382    
       380   0.76           300.01548      140451.99     -807622.92     -312.98152      0.36349647     0.058879758    28.113509      3545.4298    
       390   0.78           290.01481      143965.5      -807618.99     -315.37978      0.36349095     0.059331832    28.110401      3545.0344    
       400   0.8            316.50934      138288.52     -807627.29     -310.73356      0.36348529     0.058458658    28.077999      3544.7429    
       410   0.82           308.85503      134119.8      -807631.98     -304.84178      0.36347948     0.057351146    28.083209      3544.4325    
       420   0.84           288.9603       127161.29     -807638.35     -295.62877      0.36347353     0.055618775    28.101943      3544.0634    
       430   0.86           280.22224      125136.6      -807641.66     -290.96445      0.36346744     0.054742162    28.118588      3543.6462    
       440   0.88           287.66196      125429        -807640.98     -292.59229      0.3634612      0.055049368    28.161084      3543.1106    
       450   0.9            306.69567      130116.87     -807635.86     -300.3369       0.36345482     0.056507459    28.162485      3542.5789    
       460   0.92           305.45034      137324.09     -807627.44     -308.49361      0.3634483      0.058043162    28.115049      3542.1845    
       470   0.94           304.38516      141538.05     -807622.59     -313.11391      0.36344163     0.058913553    28.092862      3541.8513    
       480   0.96           303.72343      142788        -807620.75     -314.70771      0.36343482     0.059214542    28.076832      3541.5593    
       490   0.98           309.33132      138585.34     -807625.95     -310.22442      0.36342786     0.058372094    28.109325      3541.181     
       500   1              310.65684      132980.24     -807632.92     -303.30895      0.36342077     0.057071989    28.128377      3540.7558    
       510   1.02           290.72375      126169.89     -807639.52     -9402.5094      0.36341353     0.05528919     28.078566      3540.4562    
       520   1.04           296.53538      124980.29     -807642.17     -9337.5364      0.36340614     0.054908247    28.089545      3540.1279    
       530   1.06           291.72054      124779.07     -807640.57     -9368.6232      0.36339862     0.055092191    28.069555      3539.846     
       540   1.08           297.16116      133540.28     -807631.92     -9663.3401      0.36339095     0.056826473    28.065588      3539.5707    
       550   1.1            306.24793      136328.86     -807627.65     -9842.9972      0.36338313     0.057884214    28.022645      3539.3914    
       560   1.12           305.15619      144224.38     -807620.15     -10070.325      0.36337518     0.059222369    28.067024      3539.1052    
       570   1.14           299.51514      141043.09     -807620.66     -10028.625      0.36336707     0.058978451    28.097978      3538.7482    
       580   1.16           313.7206       139356.57     -807625.77     -9923.1251      0.36335883     0.058359328    28.094235      3538.3995    
       590   1.18           314.52403      130264.07     -807636.32     -9590.085       0.36335044     0.056401973    28.063916      3538.1152    
       600   1.2            293.93008      128721.34     -807637.37     -9457.7557      0.36334191     0.055625014    28.087919      3537.7781    
       610   1.22           286.83539      123912.4      -807640.6      -9324.2625      0.36333324     0.054841194    28.07469       3537.4678    
       620   1.24           295.41452      128520.14     -807637.82     -9446.8295      0.36332442     0.055563427    28.038356      3537.2298    
       630   1.26           296.63049      131626.71     -807631.46     -9656.1267      0.36331546     0.056795851    28.021938      3537.0211    
       640   1.28           319.10634      139573.01     -807625.57     -9939.585       0.36330636     0.058464574    27.962266      3536.9261    
       650   1.3            313.62404      141146.34     -807622.25     -10019.884      0.36329711     0.058938391    27.980779      3536.7867    
       660   1.32           311.01262      142856.53     -807621.7      -10020.239      0.36328772     0.058942003    28.029766      3536.5468    
       670   1.34           315.47981      135803.16     -807628.88     -9809.4383      0.36327819     0.057703526    28.017836      3536.3259    
       680   1.36           313.32689      131337.76     -807634.28     -9620.6908      0.36326851     0.056594736    28.019404      3536.0981    
       690   1.38           302.14161      125287.11     -807640.04     -9384.1304      0.36325869     0.055204637    28.004268      3535.8942    
       700   1.4            288.47438      126515.9      -807639.61     -9333.0707      0.36324873     0.05490577     27.998879      3535.6957    
       710   1.42           298.73004      129424.67     -807637.06     -9459.3788      0.36323863     0.05565038     28.057454      3535.3887    
       720   1.44           302.6703       134072.95     -807629.19     -9727.0934      0.36322838     0.057226984    28.023984      3535.1388    
       730   1.46           316.15208      140327.46     -807624.33     -9940.2582      0.36321798     0.058482761    28.014986      3534.9016    
       740   1.48           310.33978      142080.69     -807621.02     -10017.14       0.36320745     0.058936799    28.018193      3534.6556    
       750   1.5            307.42832      141440.85     -807621.24     -9993.3337      0.36319677     0.058798461    27.959487      3534.5059    
       760   1.52           307.28512      136102.96     -807627.78     -9783.7652      0.36318595     0.057567123    27.994079      3534.293     
       770   1.54           310.62278      131370.41     -807633.74     -9603.6764      0.36317498     0.056509197    28.002795      3534.0621    
       780   1.56           307.16694      125217.87     -807641.28     -9348.8419      0.36316387     0.055011403    28.061793      3533.7323    
       790   1.58           289.23601      127513.25     -807637.61     -9384.1507      0.36315262     0.055220881    28.064405      3533.3978    
       800   1.6            298.01071      127607.23     -807635.92     -9482.9968      0.36314122     0.055804291    28.045512      3533.0925    
       810   1.62           318.77342      136515.61     -807629.19     -9788.8303      0.36312968     0.05760585     28.013802      3532.8353    
       820   1.64           314.1806       138333.44     -807624.77     -9916.9572      0.363118       0.058361736    27.976029      3532.6341    
       830   1.66           302.3609       144430.33     -807618.18     -10074.89       0.36310618     0.059293109    27.989416      3532.4085    
       840   1.68           313.62169      138148.09     -807624.33     -9936.2556      0.36309421     0.058479139    27.935365      3532.2615    
       850   1.7            317.31749      136302.53     -807629.24     -9797.565       0.3630821      0.057664809    27.986714      3532.0329    
       860   1.72           296.80921      128706.2      -807635.89     -9501.8888      0.36306984     0.055926457    27.986199      3531.802     
       870   1.74           287.84383      128446.3      -807637.99     -9396.5077      0.36305745     0.055308091    28.007451      3531.5374    
       880   1.76           293.34615      124842.12     -807640.33     -9357.0869      0.3630449      0.055077961    28.015265      3531.2594    
       890   1.78           302.04086      131173.55     -807634.96     -9572.2948      0.36303222     0.056346693    28.01543       3530.9795    
       900   1.8            310.64249      133943.29     -807631.27     -9740.0615      0.36301939     0.057336267    28.040563      3530.6626    
       910   1.82           306.15181      141163.34     -807623.48     -9975.1092      0.36300642     0.058722007    28.023325      3530.3687    
       920   1.84           303.83291      140642.57     -807622.33     -10008.786      0.36299331     0.058922386    28.038307      3530.0529    
       930   1.86           309.7634       139645.81     -807625.53     -9936.1194      0.36298005     0.058496729    28.021477      3529.759     
       940   1.88           298.80347      134281.34     -807631.59     -9702.8808      0.36296665     0.057125697    28.043573      3529.4342    
       950   1.9            296.36155      128721.03     -807637.35     -9510.8405      0.36295311     0.055997149    28.023199      3529.1358    
       960   1.92           286.80738      125632.19     -807640.58     -9367.3413      0.36293942     0.055154346    27.989608      3528.8802    
       970   1.94           292.29816      126356.34     -807641        -9383.0454      0.36292559     0.055248916    28.026167      3528.5751    
       980   1.96           298.85818      131063.92     -807635.08     -9606.5269      0.36291162     0.05656699     28.044924      3528.2447    
       990   1.98           299.81619      134854.22     -807629.32     -9801.1045      0.3628975      0.057714984    28.057971      3527.8973    
      1000   2              298.83196      141083.57     -807623.46     -9984.8257      0.36288325     0.058799158    27.931828      3527.709     
      1010   2.02           281.04604      139601.73     -807622.06     -311.10917      0.36286884     0.058628753    28.149817      3527.2456    
      1020   2.04           309.11626      139519.95     -807626.8      -310.18413      0.3628543      0.058456771    28.098921      3526.8468    
      1030   2.06           297.94282      130935.08     -807633.69     -301.9166       0.36283961     0.056900989    28.086239      3526.4642    
      1040   2.08           294.33746      130219.64     -807637.52     -297.41289      0.36282478     0.056054485    28.062964      3526.1103    
      1050   2.1            289.51682      123196.19     -807643.63     -290.8047       0.3628098      0.054811278    28.083809      3525.7314    
      1060   2.12           297.58113      128816.25     -807639.08     -296.26971      0.36279469     0.055843657    28.077146      3525.3608    
      1070   2.14           292.36988      128387.86     -807635.61     -299.22304      0.36277943     0.0564027      28.110738      3524.9511    
      1080   2.16           298.00661      139182.77     -807626.65     -308.75897      0.36276402     0.058202667    28.156498      3524.4895    
      1090   2.18           292.64698      137515.38     -807625.71     -309.06511      0.36274848     0.058262874    28.143028      3524.0453    
      1100   2.2            290.08181      143803.43     -807620.36     -313.77885      0.36273279     0.059154035    28.093072      3523.6595    
      1110   2.22           300.76261      134821.77     -807629.1      -306.62717      0.36271695     0.057808312    28.071245      3523.2988    
      1120   2.24           297.9951       134470        -807631.56     -303.38722      0.36270098     0.057200005    28.083308      3522.9248    
      1130   2.26           297.85388      124464.88     -807641.8      -293.12519      0.36268486     0.05526768     28.084421      3522.5498    
      1140   2.28           291.0968       128103.33     -807639.46     -294.24487      0.3626686      0.055481279    28.094726      3522.1639    
      1150   2.3            295.35429      125298.18     -807639.85     -294.39503      0.36265219     0.055512104    28.119864      3521.7511    
      1160   2.32           305.47958      132748.04     -807633.46     -301.86659      0.36263564     0.056923563    28.100702      3521.36      
      1170   2.34           315.2068       134609.82     -807630.75     -305.80248      0.36261895     0.057668416    28.119687      3520.9491    
      1180   2.36           291.65023      141828.82     -807621.25     -311.69942      0.36260212     0.058783192    28.120261      3520.5386    
      1190   2.38           292.84642      139374.73     -807622.47     -310.4451       0.36258514     0.058549383    28.101447      3520.1488    
      1200   2.4            307.73072      136623.69     -807627.32     -307.34105      0.36256802     0.057966701    28.096787      3519.7644    
      1210   2.42           297.48629      131931.97     -807632.29     -300.63303      0.36255076     0.056704221    28.089815      3519.3876    
      1220   2.44           303.67844      127324.78     -807638.42     -295.00794      0.36253335     0.055645911    28.102429      3518.9984    
      1230   2.46           298.60926      126902.71     -807638.09     -294.26936      0.3625158      0.055509283    28.10943       3518.6025    
      1240   2.48           309.17378      126954.41     -807638.69     -294.97299      0.36249811     0.055644726    28.13402       3518.1825    
      1250   2.5            306.0637       133770.02     -807630.76     -302.17528      0.36248028     0.057006196    28.140533      3517.7571    
      1260   2.52           314.04151      135767.09     -807628.04     -305.9419       0.3624623      0.057719642    28.158802      3517.3146    
      1270   2.54           305.50437      141321.88     -807621.43     -311.10643      0.36244418     0.058696929    28.110837      3516.9207    
      1280   2.56           311.83868      137924.89     -807624.57     -308.8278       0.36242592     0.058269953    28.091837      3516.5459    
      1290   2.58           307.90698      139050.76     -807625.64     -306.9606       0.36240751     0.057920588    28.09343       3516.1699    
      1300   2.6            305.86543      129940.43     -807633.6      -298.78878      0.36238896     0.056381529    28.081689      3515.8055    
      1310   2.62           305.91801      130076.39     -807636.12     -296.07305      0.36237027     0.05587195     28.040799      3515.4803    
      1320   2.64           301.3457       125363.23     -807639.7      -292.0075       0.36235143     0.055107606    28.070447      3515.1265    
      1330   2.66           304.02157      131658.8      -807633.68     -298.29276      0.36233245     0.056296707    28.078004      3514.7655    
      1340   2.68           307.05513      131313.32     -807632.66     -299.90344      0.36231333     0.056603677    28.096616      3514.3872    
      1350   2.7            313.47184      139677.5      -807624.36     -309.01353      0.36229407     0.058326214    28.08447       3514.0206    
      1360   2.72           295.38873      139156.61     -807621.74     -309.35449      0.36227466     0.058393698    28.083396      3513.655     
      1370   2.74           312.91992      141337.11     -807622.51     -310.88685      0.36225511     0.058686114    28.066413      3513.3051    
      1380   2.76           309.20253      133451.86     -807629.64     -303.4165       0.36223542     0.057279048    28.095773      3512.9285    
      1390   2.78           307.88903      132327.33     -807633.86     -299.03509      0.36221558     0.056455018    28.128874      3512.5225    
      1400   2.8            300.79381      125901.36     -807638.54     -293.48125      0.3621956      0.05540956     28.142126      3512.1055    
      1410   2.82           304.71785      126795.72     -807638.54     -294.07498      0.36217548     0.055524741    28.078104      3511.7459    
      1420   2.84           304.81711      129157.87     -807635.93     -296.80055      0.36215522     0.056042496    28.093055      3511.3733    
      1430   2.86           314.77994      134158.69     -807631.77     -302.50875      0.36213481     0.057123549    28.101817      3510.9932    
      1440   2.88           300.23832      139409.35     -807623.28     -309.10006      0.36211426     0.058371517    28.155823      3510.5667    
      1450   2.9            303.41873      140762.87     -807621.8      -311.14204      0.36209357     0.058760489    28.145982      3510.1497    
      1460   2.92           304.98248      138689.44     -807625.42     -307.88553      0.36207273     0.058148829    28.110832      3509.7635    
      1470   2.94           311.59695      134003.58     -807631.05     -303.25532      0.36205176     0.057277663    28.070513      3509.4119    
      1480   2.96           293.60432      130390.36     -807633.05     -298.88729      0.36203064     0.05645594     28.10495       3509.0313    
      1490   2.98           303.605        125456.4      -807640.06     -293.36212      0.36200937     0.055415563    28.080521      3508.6714    
      1500   3              291.8948       128530.64     -807637.75     -294.00563      0.36198796     0.055540404    28.09633       3508.2985    
      1510   3.02           299.76212      129237.12     -807636.12     -9504.032       0.36196642     0.056109598    28.043831      3507.9692    
      1520   3.04           307.11861      135770.07     -807628.16     -9790.9658      0.36194472     0.057807052    28.105855      3507.5885    
      1530   3.06           301.54466      136838.26     -807626.09     -9840.3733      0.36192289     0.058102265    28.074305      3507.234     
      1540   3.08           297.34661      142018.01     -807622.32     -9939.8311      0.36190091     0.058693075    28.081066      3506.8739    
      1550   3.1            293.13641      136529.47     -807626.42     -9797.5817      0.36187879     0.057856653    28.048506      3506.5401    
      1560   3.12           307.57224      135240.88     -807630.62     -9726.2487      0.36185653     0.057438951    28.05227       3506.2031    
      1570   3.14           294.27868      127392.44     -807637.11     -9465.1843      0.36183412     0.05590068     28.044787      3505.8717    
      1580   3.16           290.41907      129343.27     -807638.05     -9415.7252      0.36181157     0.055612044    28.094483      3505.5007    
      1590   3.18           284.80015      125901.96     -807639.29     -9358.103       0.36178888     0.055275177    28.011056      3505.1956    
      1600   3.2            305.69266      132370.15     -807634.53     -9601.9671      0.36176605     0.056719181    27.966755      3504.9246    
      1610   3.22           304.38197      133723.22     -807631        -9716.3445      0.36174307     0.057398458    28.030973      3504.6024    
      1620   3.24           303.73125      141181.91     -807624.34     -9925.4507      0.36171995     0.058637482    28.04844       3504.2663    
      1630   3.26           284.08871      138998.94     -807622.93     -9886.113       0.36169669     0.058408839    28.034096      3503.9409    
      1640   3.28           298.74251      138280.33     -807626.06     -9850.6679      0.36167329     0.058203189    28.065478      3503.5913    
      1650   3.3            298.69865      132087.08     -807633.02     -9629.5091      0.36164974     0.056900166    28.059395      3503.2462    
      1660   3.32           296.97576      128731.72     -807638.1      -9456.507       0.36162605     0.055881567    28.030468      3502.9228    
      1670   3.34           290.63073      125139.11     -807640.3      -9357.777       0.36160222     0.055301784    28.06038       3502.5765    
      1680   3.36           296.81318      127425.9      -807639.78     -9401.9313      0.36157824     0.055566408    27.99294       3502.2804    
      1690   3.38           307.48728      130836.36     -807635.94     -9572.9797      0.36155413     0.056581096    28.053754      3501.9385    
      1700   3.4            298.73746      135699.39     -807629.35     -9748.0422      0.36152987     0.057619669    28.061474      3501.5907    
      1710   3.42           290.35885      140087.2      -807623.59     -9893.8943      0.36150546     0.058485733    28.022009      3501.2718    
      1720   3.44           297.09109      139141.77     -807625.1      -9874.8932      0.36148092     0.058377376    28.078153      3500.9115    
      1730   3.46           296.63721      137712.45     -807627.41     -9795.1176      0.36145623     0.057909722    28.026134      3500.589     
      1740   3.48           294.1616       131747.78     -807632.96     -9604.1085      0.3614314      0.056784358    28.045067      3500.2523    
      1750   3.5            303.20853      128802.9      -807638.15     -9472.4193      0.36140643     0.056009614    28.031961      3499.9249    
      1760   3.52           289.94402      125760.23     -807640.24     -9344.6272      0.36138131     0.05525783     28.03622       3499.5941    
      1770   3.54           297.91707      129435.67     -807637.54     -9458.9538      0.36135605     0.05593779     28.0342        3499.2644    
      1780   3.56           287.31294      130987.25     -807632.22     -9579.2122      0.36133065     0.05665295     28.02043       3498.944     
      1790   3.58           306.8121       137520.53     -807628.3      -9780.8353      0.36130511     0.057849469    27.979713      3498.6518    
      1800   3.6            298.36849      138249.77     -807625.12     -9838.9276      0.36127942     0.058197198    28.02043       3498.3305    
      1810   3.62           305.49674      140016.48     -807623.75     -9901.2229      0.3612536      0.058569861    28.028131      3498.0035    
      1820   3.64           308.34178      135011.09     -807628.72     -9747.0798      0.36122763     0.057662186    28.043589      3497.6656    
      1830   3.66           306.25821      133354.53     -807632.57     -9601.1293      0.36120151     0.056802872    28.022245      3497.342     
      1840   3.68           310.35057      127367.95     -807639.53     -9387.329       0.36117526     0.055542009    28.031675      3497.0116    
      1850   3.7            283.08713      128838.83     -807636.25     -9359.906       0.36114886     0.055383803    28.023325      3496.6866    
      1860   3.72           303.05794      127949.38     -807636.71     -9427.6636      0.36112232     0.055788834    27.976198      3496.393     
      1870   3.74           311.38744      131978.76     -807632.02     -9606.104       0.36109564     0.056848967    27.988678      3496.0903    
      1880   3.76           310.84625      136525.42     -807627.67     -9737.6844      0.36106881     0.057631942    28.031033      3495.7589    
      1890   3.78           310.28797      140050.48     -807622.85     -9883.2196      0.36104184     0.058497654    28.051193      3495.4139    
      1900   3.8            321.43187      138379.38     -807624.56     -9872.4204      0.36101474     0.058438122    28.119621      3495.024     
      1910   3.82           314.46829      136505.61     -807628.05     -9725.0987      0.36098748     0.057570422    28.110136      3494.6406    
      1920   3.84           312.2387       131363.18     -807633.76     -9531.5653      0.36096009     0.05642903     28.063646      3494.2876    
      1930   3.86           307.03604      127885.29     -807637.32     -9391.2779      0.36093255     0.055602738    28.005654      3493.9721    
      1940   3.88           306.54387      127016.39     -807638.37     -9354.4325      0.36090487     0.055388836    28.020583      3493.6465    
      1950   3.9            300.92454      128764.61     -807635.88     -9409.969       0.36087705     0.055721971    28.03414       3493.312     
      1960   3.92           310.62019      133439.83     -807631.51     -9593.885       0.36084909     0.056815448    28.030166      3492.9797    
      1970   3.94           309.46826      136970.92     -807625.9      -9771.7636      0.36082098     0.057873362    28.017891      3492.6549    
      1980   3.96           312.24252      140500.76     -807622.56     -9891.0627      0.36079273     0.058584498    28.051847      3492.3085    
      1990   3.98           303.5038       139248.47     -807623.42     -9829.0622      0.36076434     0.058221852    28.063806      3491.9544    
      2000   4              312.08862      136356.78     -807628.54     -9707.5127      0.36073581     0.05750641     28.079309      3491.5907    
      2010   4.02           307.03447      130572.58     -807633.5      -297.85638      0.36070713     0.056467647    28.13146       3491.1949    
      2020   4.04           302.64583      128449.41     -807637.23     -293.63928      0.36067831     0.055672618    28.097383      3490.8204    
      2030   4.06           296.6653       126496.04     -807638.94     -291.35935      0.36064935     0.055244789    28.085192      3490.4535    
      2040   4.08           293.27874      130265.98     -807634.83     -295.16308      0.36062025     0.055970533    28.099754      3490.0779    
      2050   4.1            325.31163      132116.44     -807634.58     -300.1499       0.36059101     0.056920778    28.09052       3489.7081    
      2060   4.12           293.42884      138602.96     -807623.66     -306.86984      0.36056162     0.058199898    28.083396      3489.3427    
      2070   4.14           303.90995      139440.36     -807624.33     -307.89704      0.36053209     0.058399497    28.104023      3488.965     
      2080   4.16           303.52424      139697.48     -807625.33     -306.95291      0.36050242     0.058225212    28.079921      3488.6019    
      2090   4.18           304.51452      133861.52     -807630.58     -302.08461      0.36047261     0.057306495    28.094797      3488.23      
      2100   4.2            297.19265      130530.2      -807633.94     -297.80808      0.36044265     0.056499917    28.091567      3487.8602    
      2110   4.22           297.55366      126785.12     -807639.78     -292.15171      0.36041256     0.055431425    28.083473      3487.4953    
      2120   4.24           287.69376      127662.8      -807638.51     -292.10046      0.36038232     0.05542635     28.104216      3487.1183    
      2130   4.26           307.59723      129131.45     -807637.24     -296.25248      0.36035193     0.05621894     28.103449      3486.742     
      2140   4.28           303.88973      134791.04     -807631.54     -301.56263      0.36032141     0.057231479    28.094797      3486.3709    
      2150   4.3            296.62411      138681.58     -807625.66     -306.48972      0.36029075     0.058171507    28.119709      3485.9856    
      2160   4.32           291.65764      138857.42     -807624.44     -307.08345      0.36025994     0.058289182    28.152219      3485.5819    
      2170   4.34           307.30668      138132.05     -807627.48     -306.22406      0.36022899     0.05813105     28.152678      3485.1785    
      2180   4.36           296.2308       133460.96     -807630.87     -301.3225       0.36019789     0.057205517    28.095156      3484.8081    
      2190   4.38           306.66949      129500.58     -807637.81     -295.74503      0.36016666     0.056151512    28.07872       3484.4471    
      2200   4.4            291.42109      126074.63     -807640.38     -291.03198      0.36013528     0.055261486    28.06374       3484.0946    
      2210   4.42           283.96309      128316.54     -807637.56     -292.73792      0.36010377     0.055590278    28.046798      3483.7517    
      2220   4.44           300.05115      129133.71     -807635.88     -296.68922      0.36007211     0.056345575    28.080383      3483.3898    
      2230   4.46           298.35197      134726.56     -807629.79     -302.50478      0.3600403      0.057455107    28.104917      3483.0144    
      2240   4.48           293.41898      137523.35     -807626.67     -304.94001      0.36000836     0.057922773    28.087633      3482.6486    
      2250   4.5            297.25323      141027.04     -807623.67     -308.3267       0.35997627     0.058571289    28.125222      3482.2623    
      2260   4.52           303.42704      136272.82     -807627.72     -305.13741      0.35994404     0.057970625    28.124896      3481.8765    
      2270   4.54           301.90482      134113.52     -807631.48     -301.00094      0.35991167     0.057189913    28.142464      3481.4813    
      2280   4.56           293.6304       127908.19     -807637.59     -293.71342      0.35987916     0.055810333    28.089225      3481.1154    
      2290   4.58           298.2457       128280.51     -807639.57     -292.19364      0.35984651     0.055526587    28.046281      3480.7728    
      2300   4.6            286.49757      127109.34     -807637.48     -292.67465      0.35981371     0.055623065    28.103664      3480.3992    
      2310   4.62           302.39043      131389.27     -807634.67     -297.61497      0.35978077     0.056567154    28.101381      3480.0269    
      2320   4.64           303.95202      133789.26     -807631.18     -301.23431      0.35974769     0.057260341    28.102611      3479.6542    
      2330   4.66           304.76093      138355.87     -807625.8      -306.61143      0.35971447     0.058287838    28.047995      3479.3106    
      2340   4.68           293.78812      138912.63     -807623.3      -307.53593      0.35968111     0.058469012    28.052364      3478.9646    
      2350   4.7            297.64393      136908.05     -807626.79     -304.40367      0.3596476      0.057878896    28.093039      3478.597     
      2360   4.72           307.64799      132478.84     -807634.25     -298.17713      0.35961396     0.056700294    28.069385      3478.242     
      2370   4.74           295.95684      128939.61     -807636.8      -293.8787       0.35958017     0.055888171    28.130604      3477.855     
      2380   4.76           292.12869      127830.12     -807637.28     -292.69955      0.35954624     0.05566918     28.160281      3477.4529    
      2390   4.78           302.5123       127399.35     -807639.59     -291.71005      0.35951216     0.055486242    28.18638       3477.0378    
      2400   4.8            307.98437      131589.85     -807635.15     -296.72692      0.35947795     0.056445875    28.121167      3476.6566    
      2410   4.82           310.64075      134045.36     -807630.17     -301.96628      0.35944359     0.05744804     28.115148      3476.2788    
      2420   4.84           294.47161      140403.85     -807622.39     -307.2222       0.35940909     0.058453571    28.100879      3475.9084    
      2430   4.86           303.76741      138203.59     -807625.7      -305.13778      0.35937446     0.058062576    28.116722      3475.53      
      2440   4.88           289.09053      137957.85     -807625.2      -303.28667      0.35933967     0.057715927    28.076606      3475.1722    
      2450   4.9            311.49424      131256.92     -807632.87     -298.58053      0.35930475     0.056825863    28.088172      3474.8085    
      2460   4.92           303.99566      130260.76     -807634.84     -295.17828      0.35926969     0.05618383     28.108508      3474.4347    
      2470   4.94           299.37222      124939.13     -807639.33     -289.81753      0.35923448     0.055168878    28.138576      3474.0461    
      2480   4.96           301.17101      129250.15     -807635.86     -293.08598      0.35919913     0.055796541    28.113658      3473.6701    
      2490   4.98           310.05606      130278.5      -807632.62     -297.37551      0.35916364     0.05661876     28.108702      3473.2967    
      2500   5              314.11445      137339.52     -807626        -304.07577      0.35912801     0.057900199    28.081771      3472.9367    
[...]
     98740   197.48         294.76677      132436.77     -807633.88     -9635.6889      0.36236891     0.056823682    29.740849      43.277091    
     98750   197.5          293.66851      133499.95     -807631.5      -9696.6407      0.36238762     0.057180177    29.739533      42.933531    
     98760   197.52         293.80741      131664.82     -807633.61     -9626.3106      0.36240618     0.05676254     29.761614      42.589969    
     98770   197.54         297.41718      133845.61     -807631.9      -9687.1163      0.36242459     0.057118185    29.755101      42.246409    
     98780   197.56         293.92545      133084.19     -807632.1      -9659.8974      0.36244287     0.056954822    29.742054      41.902853    
     98790   197.58         288.03235      134378.26     -807629.22     -9718.9176      0.362461       0.057299939    29.745897      41.559298    
     98800   197.6          302.88232      134342.66     -807631.18     -9714.9884      0.36247899     0.057273931    29.75065       41.215743    
     98810   197.62         301.52604      134901.38     -807630.53     -9723.4385      0.36249683     0.057320926    29.742449      40.872191    
     98820   197.64         301.19412      133495.86     -807630.94     -9702.9968      0.36251453     0.057197626    29.730696      40.528643    
     98830   197.66         299.61523      133794.18     -807631.94     -9656.2739      0.36253209     0.056919445    29.736278      40.185095    
     98840   197.68         293.59198      133691.21     -807630.24     -9679.1452      0.36254951     0.05705152     29.738446      39.841548    
     98850   197.7          306.38346      132900.43     -807633.17     -9640.2726      0.36256678     0.056819688    29.756888      39.498       
     98860   197.72         300.26979      134035.1      -807631.08     -9672.5111      0.36258391     0.057007008    29.760872      39.154453    
     98870   197.74         297.51905      132840.82     -807630.96     -9662.9417      0.3626009      0.05694794     29.743944      38.81091     
     98880   197.76         302.08491      135598.61     -807629.45     -9727.7292      0.36261774     0.057327098    29.719138      38.467372    
     98890   197.78         309.34287      133383.3      -807630.98     -9711.8978      0.36263445     0.057231166    29.759016      38.12383     
     98900   197.8          301.00222      135341.75     -807629.36     -9721.4606      0.362651       0.057284902    29.749494      37.780291    
     98910   197.82         292.72242      133585.03     -807629.4      -9684.8455      0.36266742     0.05706656     29.752529      37.436752    
     98920   197.84         314.0827       134305.4      -807631.74     -9701.0723      0.36268369     0.05715961     29.754137      37.093216    
     98930   197.86         303.75449      131989.31     -807632.3      -9637.3251      0.36269982     0.05678148     29.756332      36.74968     
     98940   197.88         308.08286      133947.92     -807631.84     -9667.7911      0.36271581     0.05695847     29.752511      36.406146    
     98950   197.9          309.53665      132514.2      -807632.78     -9646.426       0.36273165     0.056830114    29.749587      36.062614    
     98960   197.92         311.37816      134805.57     -807630.64     -9722.0955      0.36274735     0.057273427    29.742851      35.719085    
     98970   197.94         305.4351       134111.46     -807630.7      -9696.7891      0.36276291     0.057121896    29.737767      35.375557    
     98980   197.96         295.80958      135586.7      -807628.73     -9718.4253      0.36277832     0.057246918    29.71986       35.032033    
     98990   197.98         289.23064      133938.35     -807628.66     -9693.8884      0.36279359     0.057099979    29.72118       34.688511    
     99000   198            308.80744      134164.33     -807630.99     -9707.3374      0.36280872     0.057176813    29.722673      34.344989    
     99010   198.02         298.61817      132909.65     -807630.49     -302.57968      0.3628237      0.057028457    29.831422      34.001457    
     99020   198.04         305.17768      133316.4      -807631.73     -302.255        0.36283855     0.056964933    29.831105      33.657927    
     99030   198.06         305.38014      131943.86     -807631.97     -302.20607      0.36285324     0.056953406    29.834095      33.314398    
     99040   198.08         309.12739      133882.29     -807631.22     -303.60861      0.3628678      0.05721543     29.805787      32.970873    
     99050   198.1          299.18326      134403.79     -807630.51     -303.09979      0.36288221     0.057117274    29.783734      32.627353    
     99060   198.12         304.15225      133497.48     -807631.24     -303.23324      0.36289648     0.057140175    29.771942      32.283835    
     99070   198.14         298.00402      133429.88     -807630.03     -303.79941      0.36291061     0.057244634    29.812161      31.940315    
     99080   198.16         294.79295      133712.15     -807630.09     -303.55898      0.36292459     0.057197125    29.805192      31.596797    
     99090   198.18         302.00687      133526.46     -807632.43     -302.4179       0.36293843     0.056979949    29.821164      31.253279    
     99100   198.2          299.3345       132749.13     -807632.09     -302.66101      0.36295213     0.057023602    29.820655      30.909763    
     99110   198.22         301.9637       133296.94     -807631.73     -303.67398      0.36296568     0.057212316    29.820903      30.566248    
     99120   198.24         302.16077      133132.52     -807633.26     -302.50136      0.36297909     0.056989289    29.812335      30.222736    
     99130   198.26         295.13671      133366.55     -807632.12     -302.98801      0.36299236     0.057078885    29.839324      29.879223    
     99140   198.28         289.83909      132751.92     -807632.18     -302.55486      0.36300548     0.056995225    29.830707      29.535712    
     99150   198.3          292.75616      133217.82     -807631.9      -303.53453      0.36301846     0.05717773     29.821065      29.192204    
     99160   198.32         292.29214      133564.34     -807632.21     -303.38549      0.3630313      0.057147634    29.82122       28.848698    
     99170   198.34         295.27565      132845.98     -807633.62     -302.59829      0.36304399     0.056997358    29.828482      28.505193    
     99180   198.36         303.47002      133482.52     -807633.48     -304.02016      0.36305655     0.057263202    29.779335      28.161694    
     99190   198.38         289.63125      132617.37     -807632.12     -303.66011      0.36306895     0.05719343     29.838266      27.818191    
     99200   198.4          293.71634      133976.47     -807632.7      -303.68444      0.36308122     0.057196082    29.835425      27.474689    
     99210   198.42         288.47009      131891.09     -807633.56     -302.23763      0.36309334     0.056921688    29.830278      27.13119     
     99220   198.44         284.12974      134684.44     -807630.33     -304.81044      0.36310532     0.057404342    29.819263      26.787694    
     99230   198.46         288.15077      132297.7      -807633.02     -302.77661      0.36311715     0.057019457    29.767838      26.444204    
     99240   198.48         289.4815       134645.27     -807632.36     -303.49313      0.36312885     0.057152553    29.798746      26.100713    
     99250   198.5          292.7509       131620.77     -807633.86     -302.50111      0.3631404      0.056963928    29.807022      25.757222    
     99260   198.52         295.76269      133733.38     -807631.75     -304.85101      0.3631518      0.057404634    29.834405      25.413731    
     99270   198.54         296.28946      131409.08     -807634.56     -302.08796      0.36316306     0.056882576    29.819456      25.070243    
     99280   198.56         290.53827      134452.61     -807631.91     -303.73895      0.36317418     0.057191704    29.836028      24.726755    
     99290   198.58         294.45227      132314.95     -807633.2      -303.09072      0.36318516     0.057067923    29.82696       24.38327     
     99300   198.6          291.13023      134460.42     -807630.43     -305.14996      0.36319599     0.057453937    29.816512      24.039787    
     99310   198.62         289.95882      132789.44     -807632.63     -302.71553      0.36320668     0.056993902    29.82235       23.696305    
     99320   198.64         297.6796       133739.14     -807631.88     -304.40365      0.36321723     0.05731007     29.821027      23.352825    
     99330   198.66         296.69583      132703.95     -807632.32     -303.78799      0.36322763     0.057192522    29.823549      23.009346    
     99340   198.68         295.03353      133903.7      -807631.02     -304.64405      0.36323789     0.057352067    29.804813      22.66587     
     99350   198.7          283.72897      133216.16     -807631.22     -302.77936      0.36324801     0.056999435    29.823978      22.322395    
     99360   198.72         300.59024      133139.78     -807633.82     -302.41584      0.36325798     0.056929438    29.829159      21.978921    
     99370   198.74         288.19905      133489.04     -807629.92     -304.45021      0.36326781     0.057310855    29.826127      21.635449    
     99380   198.76         308.91035      132483.82     -807633.76     -303.42064      0.3632775      0.057115522    29.829464      21.291978    
     99390   198.78         294.55971      134320.18     -807631.01     -303.97105      0.36328704     0.057217626    29.821008      20.948509    
     99400   198.8          296.67731      132555.03     -807632.76     -302.46577      0.36329644     0.056932808    29.80544       20.605043    
     99410   198.82         293.60861      134880.12     -807629.81     -304.8297       0.3633057      0.057376307    29.805142      20.261579    
     99420   198.84         291.92746      132750.43     -807631.2      -303.19065      0.36331481     0.057066365    29.802139      19.918116    
     99430   198.86         299.23899      134653.38     -807631.3      -303.88719      0.36332378     0.057196056    29.823108      19.574654    
     99440   198.88         301.37355      131960.84     -807633.17     -302.22993      0.36333261     0.056882754    29.839         19.231192    
     99450   198.9          300.85995      134691.85     -807630.82     -304.37         0.36334129     0.057284168    29.836774      18.887733    
     99460   198.92         305.42606      132520.74     -807632.67     -303.14943      0.36334983     0.057053107    29.827277      18.544275    
     99470   198.94         290.96229      135218.05     -807628.71     -304.91972      0.36335823     0.057384953    29.840586      18.200818    
     99480   198.96         293.10377      132534.9      -807631.25     -302.73484      0.36336648     0.056972471    29.834871      17.857364    
     99490   198.98         295.27492      135373.79     -807629.37     -304.69374      0.3633746      0.057339842    29.845767      17.51391     
     99500   199            287.3628       132830.5      -807629.76     -303.20287      0.36338256     0.057058026    29.833162      17.170459    
     99510   199.02         306.67976      134713.68     -807631.32     -9732.4948      0.36339039     0.057233234    29.766         16.827013    
     99520   199.04         301.06959      131759.21     -807632.71     -9662.2768      0.36339807     0.056819106    29.765394      16.483568    
     99530   199.06         321.40775      134485.43     -807632.81     -9744.9242      0.3634056      0.057303927    29.740361      16.140127    
     99540   199.08         300.00557      133064.81     -807631.02     -9709.0106      0.363413       0.05709158     29.741275      15.796687    
     99550   199.1          308.68672      134838.63     -807630.86     -9748.5826      0.36342025     0.05732313     29.745866      15.453248    
     99560   199.12         283.62236      133317.18     -807628.67     -9708.665       0.36342736     0.057087292    29.734067      15.109811    
     99570   199.14         298.45013      134919        -807629.16     -9754.9922      0.36343432     0.057358598    29.707915      14.766377    
     99580   199.16         295.47468      133427.4      -807629.7      -9725.6006      0.36344114     0.057184704    29.684252      14.422945    
     99590   199.18         303.04614      134463.03     -807631.32     -9704.3115      0.36344782     0.057058481    29.737859      14.079512    
     99600   199.2          296.99854      133503.53     -807631.02     -9685.9559      0.36345435     0.056949531    29.769485      13.73608     
     99610   199.22         317.24965      132925.55     -807633.32     -9700.5294      0.36346074     0.057034214    29.764361      13.392649    
     99620   199.24         303.63748      133552.2      -807630.68     -9723.7958      0.36346699     0.057170027    29.755305      13.049219    
     99630   199.26         303.00004      133185.72     -807631.84     -9684.716       0.3634731      0.056939305    29.754341      12.705792    
     99640   199.28         294.88834      134798.72     -807629.34     -9726.5138      0.36347906     0.057184108    29.753333      12.362366    
     99650   199.3          306.54199      133261.46     -807629.95     -9763.2044      0.36348487     0.057398901    29.752782      12.018941    
     99660   199.32         303.41734      135303.95     -807629.58     -9759.3783      0.36349055     0.057375512    29.744778      11.675518    
     99670   199.34         296.28787      133773.08     -807630.66     -9693.829       0.36349608     0.056989279    29.73592       11.332097    
     99680   199.36         309.31637      133964.6      -807631.51     -9723.4049      0.36350147     0.057162307    29.751082      10.988677    
     99690   199.38         295.51972      133383.93     -807630.09     -9710.4716      0.36350671     0.05708545     29.760024      10.645258    
     99700   199.4          298.17222      134353.74     -807629.77     -9734.0348      0.36351181     0.05722317     29.754792      10.30184     
     99710   199.42         307.83453      132202.03     -807633.4      -9665.1223      0.36351677     0.056817281    29.750569      9.9584244    
     99720   199.44         291.15157      134959.62     -807628.98     -9735.0554      0.36352158     0.057227631    29.750761      9.61501      
     99730   199.46         301.03025      133502.87     -807630.57     -9734.6705      0.36352625     0.057224633    29.758039      9.2715969    
     99740   199.48         302.71425      135369.77     -807630.68     -9742.7615      0.36353078     0.057271482    29.760562      8.9281852    
     99750   199.5          297.24207      132341.13     -807631.93     -9687.0719      0.36353516     0.056943432    29.757037      8.5847751    
     99760   199.52         307.07194      134657.96     -807632.15     -9728.6087      0.3635394      0.05718693     29.75789       8.2413664    
     99770   199.54         291.83716      132750.62     -807631.21     -9702.0705      0.3635435      0.05703029     29.753963      7.8979593    
     99780   199.56         297.45369      134080.87     -807631.04     -9739.0091      0.36354745     0.057246799    29.756431      7.5545536    
     99790   199.58         295.75397      132401.09     -807633.17     -9673.8538      0.36355126     0.056863214    29.733579      7.2111499    
     99800   199.6          294.88226      134546.62     -807631.03     -9744.5327      0.36355493     0.057278088    29.749419      6.8677473    
     99810   199.62         293.64764      133163.88     -807631.33     -9739.1502      0.36355845     0.057245896    29.760018      6.5243459    
     99820   199.64         300.47116      134174.81     -807632.26     -9744.5973      0.36356183     0.057277381    29.748041      6.1809463    
     99830   199.66         287.76931      133055.2      -807631.93     -9706.0694      0.36356507     0.057050411    29.725548      5.8375485    
     99840   199.68         299.06235      133543.28     -807632.31     -9748.283       0.36356816     0.057298047    29.762461      5.4941514    
     99850   199.7          285.12877      132935.11     -807631.6      -9714.5331      0.36357111     0.05709921     29.750847      5.1507561    
     99860   199.72         289.44225      133032.75     -807632.17     -9717.9011      0.36357392     0.057118566    29.746533      4.8073622    
     99870   199.74         290.57097      133673.4      -807633.21     -9692.4933      0.36357658     0.056968809    29.740867      4.4639699    
     99880   199.76         289.20976      133113.14     -807632.23     -9718.4018      0.3635791      0.057120694    29.753623      4.1205788    
     99890   199.78         301.32927      133615.2      -807632.81     -9755.313       0.36358148     0.057337268    29.732801      3.7771895    
     99900   199.8          292.93102      132751.13     -807632.44     -9730.999       0.36358371     0.05719401     29.749073      3.4338014    
     99910   199.82         286.86019      134891.3      -807630.57     -9761.0102      0.3635858      0.057370072    29.756208      3.0904147    
     99920   199.84         296.38856      132771.06     -807632.99     -9727.1037      0.36358775     0.057170481    29.76008       2.7470294    
     99930   199.86         286.20094      134119.6      -807630.87     -9745.9076      0.36358955     0.057280716    29.761168      2.4036455    
     99940   199.88         286.53098      133118.61     -807632.72     -9688.0956      0.36359121     0.056940671    29.726425      2.0602634    
     99950   199.9          288.22295      133378.18     -807631.88     -9716.4961      0.36359273     0.057107353    29.739125      1.7168826    
     99960   199.92         301.56384      131557.24     -807634.14     -9700.1294      0.3635941      0.057010945    29.738149      1.3735032    
     99970   199.94         289.99599      133468.64     -807631.52     -9725.9761      0.36359533     0.057162661    29.750612      1.0301253    
     99980   199.96         298.96882      132755.66     -807632.9      -9716.7025      0.36359641     0.057107987    29.752343      0.68674872   
     99990   199.98         301.16717      133616.48     -807632.03     -9745.6581      0.36359736     0.057278019    29.750724      0.34337364   
    100000   200            298.04152      134223.16     -807631.45     -9744.1622      0.36359816     0.057269102    29.74332       0            
Loop time of 3433.73 on 32 procs for 100000 steps with 1080 atoms

Performance: 5.032 ns/day, 4.769 hours/ns, 29.123 timesteps/s, 31.453 katom-step/s
61.9% CPU use with 32 MPI tasks x 1 OpenMP threads

MPI task timing breakdown:
Section |  min time  |  avg time  |  max time  |%varavg| %total
---------------------------------------------------------------
Pair    | 2568.9     | 2800.3     | 3039.4     | 221.7 | 81.55
Neigh   | 0.00082225 | 0.00087812 | 0.0010117  |   0.0 |  0.00
Comm    | 321.17     | 560.27     | 791.56     | 495.6 | 16.32
Output  | 2.3392     | 2.3468     | 2.3535     |   0.2 |  0.07
Modify  | 64.639     | 64.835     | 65.147     |   1.5 |  1.89
Other   |            | 6.021      |            |       |  0.18

Nlocal:          33.75 ave          42 max          23 min
Histogram: 1 0 2 5 6 3 4 7 3 1
Nghost:        1030.22 ave        1049 max        1017 min
Histogram: 4 4 3 2 4 11 2 0 1 1
Neighs:              0 ave           0 max           0 min
Histogram: 32 0 0 0 0 0 0 0 0 0
FullNghs:      5388.12 ave        6710 max        3679 min
Histogram: 1 1 1 5 6 3 5 6 2 2

Total # of neighbors = 172420
Ave neighs/atom = 159.64815
Neighbor list builds = 2
Dangerous builds = 0

Total wall time: 1:00:36
