
units		metal
atom_style	atomic

read_data ${STRUCTURE}.data
read_data BaTiO3-sc333.data
Reading data file ...
  orthogonal box = (0 0 0) to (11.898253 11.898253 12.912076)
  2 by 4 by 4 MPI processor grid
  reading atoms ...
  135 atoms
  read_data CPU = 0.010 seconds
replicate $L $L $L
replicate 2 $L $L
replicate 2 2 $L
replicate 2 2 2
Replication is creating a 2x2x2 = 8 times larger system...
  orthogonal box = (0 0 0) to (23.796507 23.796507 25.824152)
  2 by 4 by 4 MPI processor grid
  1080 atoms
  replicate CPU = 0.004 seconds

pair_style allegro
pair_coeff	* * ${MODEL}.pth Ba Ti O
pair_coeff	* * BaTiO3-E0.pth Ba Ti O
mass 1 137.3
mass 2 47.9
mass 3 15.9994

timestep 0.002
compute polarization all allegro polarization 3
compute allegro will evaluate the quantity polarization of length 3 (src/compute_allegro.cpp:53)
compute polarizability all allegro polarizability 9
compute allegro will evaluate the quantity polarizability of length 9 (src/compute_allegro.cpp:53)

thermo_style custom pe fmax fnorm spcpu cpuremain

variable efield equal 1e-2*36.36
fix born all addbornforce 0.0 0.0 ${efield}
fix born all addbornforce 0.0 0.0 0.3636

thermo 10
min_style fire
#minimize 0.0 1e-6 100 100
velocity all create ${TEMP} ${SEED} dist gaussian rot yes mom yes
velocity all create 320 ${SEED} dist gaussian rot yes mom yes
velocity all create 320 18260 dist gaussian rot yes mom yes
fix nvt all nvt temp ${TEMP} ${TEMP} $(100*dt)
fix nvt all nvt temp 320 ${TEMP} $(100*dt)
fix nvt all nvt temp 320 320 $(100*dt)
fix nvt all nvt temp 320 320 0.2000000000000000111
run 5000
Neighbor list info ...
  update: every = 1 steps, delay = 0 steps, check = yes
  max neighbors/atom: 2000, page size: 100000
  master list distance cutoff = 8
  ghost atom cutoff = 8
  binsize = 8, bins = 3 3 4
  1 neighbor lists, perpetual/occasional/extra = 1 0 0
  (1) pair allegro/kk, perpetual
      attributes: full, newton on, kokkos_device
      pair build: full/bin/kk/device
      stencil: full/bin/3d
      bin: kk/device
Per MPI rank memory allocation (min/avg/max) = 3.516 | 3.516 | 3.516 Mbytes
    PotEng          Fmax          Fnorm          S/CPU         CPULeft    
-807708.29      1.595364       37.042733      0              0            
-807644.43      3.327669       45.954279      2.1357787      2336.3854    
-807635.29      2.4772114      35.457304      25.86785       1262.1101    
-807606.65      3.541398       37.781395      25.862154      903.77474    
-807602.07      4.0560404      50.133908      25.776097      724.57378    
-807568.49      3.7276511      39.69611       25.790708      616.87628    
-807601.41      2.8191179      38.953106      25.856139      544.8679     
-807647.51      3.1425882      32.843034      25.829664      493.35078    
-807683.79      2.5666552      34.558955      25.834917      454.6113     
-807667.97      3.6369375      34.025929      25.827721      424.40046    
-807651.62      3.8472185      35.436973      25.880526      400.11565    
-807660.33      2.559912       27.74016       25.849735      380.19646    
-807626.41      2.6791327      31.684856      25.82087       363.55025    
-807585.18      3.4289182      40.860751      25.823124      349.40415    
-807567.13      3.4656093      38.996502      25.871898      337.19825    
-807632.97      3.3709219      34.215692      25.830988      326.58808    
-807653.93      3.4168675      31.501735      25.815368      317.26285    
-807663.03      2.8289296      35.036565      25.844024      308.97694    
-807646.86      4.5166992      44.843305      25.874395      301.55651    
-807679.14      2.5522762      36.686345      25.825444      294.89508    
-807641.84      3.9751611      39.333406      25.804244      288.86869    
-807615.36      3.3781272      39.211309      25.859908      283.3603     
-807562.15      4.4859407      45.664415      25.88381       278.30977    
-807605.08      4.5685551      49.071677      25.826809      273.6825     
-807613         4.4711634      39.547861      25.789036      269.41982    
-807640.05      3.2122019      35.602937      25.869608      265.44418    
-807642.87      4.8817145      44.949074      25.881509      261.74139    
-807680.43      3.0805176      37.869559      25.842615      258.29444    
-807663.25      3.1917503      34.640365      25.786394      255.08029    
-807636.04      3.9227699      32.71739       25.873502      252.03986    
-807607.34      3.0698153      33.942033      25.902302      249.16962    
-807604.89      3.7771404      42.178745      25.852507      246.4709     
-807595.59      3.1198821      37.141526      25.782716      243.93198    
-807606.9       3.2703331      34.132485      25.871174      241.50467    
-807641.29      3.7575754      30.991129      25.879628      239.19567    
-807672.07      3.4905669      32.260547      25.857312      237.00097    
-807675.92      2.763934       32.845016      25.783621      234.92095    
-807643.38      4.1867838      38.753052      25.867659      232.91664    
-807647.39      2.5286409      31.184731      25.852984      231.00014    
-807623.22      3.421809       33.468807      25.814818      229.16884    
-807599.81      3.7783695      43.866014      25.767344      227.41795    
-807568.47      4.606465       41.895714      25.817211      225.72515    
-807621.98      2.990017       36.348502      25.87375       224.08527    
-807647.84      3.8947274      36.172766      25.813017      222.51337    
-807670.95      2.9194774      35.269212      25.776121      221.00104    
-807641.69      4.9429395      46.220365      25.824517      219.53134    
-807666.11      2.8009701      34.825754      25.86642       218.10252    
-807644.67      3.647771       35.901427      25.879787      216.71611    
-807623.66      3.3856802      37.591548      25.869187      215.37287    
-807566.05      4.1203839      42.465312      25.875035      214.06787    
-807599.76      3.6638233      43.571387      25.889675      212.79764    
-807621.55      3.7197214      35.666369      25.824517      211.57066    
-807653.5       3.1604023      33.356407      25.836824      210.37438    
-807640.42      4.4657059      41.535231      25.868173      209.2047     
-807672.48      2.7048685      34.276848      25.849576      208.06631    
-807665.3       2.6594942      33.705695      25.7433        206.96817    
-807642.56      2.8229565      30.617892      25.831626      205.88484    
-807601.81      3.1121022      34.468183      25.864491      204.82212    
-807598.27      3.3466514      37.215767      25.852405      203.78409    
-807604.8       3.5387554      38.883105      25.735878      202.78123    
-807618.92      3.3497789      31.926449      25.80522       201.79119    
-807635.92      3.9292648      32.98589       25.863225      200.81465    
-807663.17      3.7183531      33.706238      25.890031      199.8543     
-807674.12      2.8497651      35.893849      25.793018      198.92226    
-807645.53      3.9573847      38.905802      25.820451      198.00443    
-807634.24      2.9981476      33.922722      25.862454      197.09871    
-807613.11      4.2406744      36.659003      25.845732      196.21036    
-807605.75      4.1268627      44.533637      25.798185      195.34159    
-807578.27      4.3484252      41.033454      25.766667      194.48999    
-807614.34      3.6064669      36.931868      25.856728      193.64337    
-807643.43      5.6158753      37.028793      25.788716      192.81616    
-807671.38      3.6071177      36.866725      25.754649      192.00443    
-807648.23      5.6908703      41.679849      25.823064      191.19835    
-807651.1       4.4573967      36.238151      25.861169      190.4004     
-807642.51      5.2101689      34.801201      25.813557      189.61767    
-807624.73      3.7585915      37.893364      25.796503      188.84694    
-807576.5       3.7582534      40.371447      25.809314      188.08522    
-807588.45      3.7227154      40.279238      25.876116      187.32772    
-807623.72      3.6402393      33.990192      25.812847      186.58486    
-807656.05      3.022641       32.38188       25.820004      185.85043    
-807648.65      3.5270691      36.603931      25.819459      185.12471    
-807655.44      4.026764       36.311696      25.782093      184.41026    
-807664.97      2.8474647      32.956548      25.805308      183.702      
-807643.68      3.6532132      32.480825      25.791628      183.00249    
-807602.68      2.7172149      35.993043      25.827861      182.30772    
-807583.52      3.6267721      39.554671      25.834147      181.61972    
-807603.77      3.8105102      41.696736      25.79429       180.9416     
-807622.8       3.7103756      35.270322      25.797623      180.26992    
-807635.42      3.4676218      36.147975      25.783974      179.60565    
-807650.56      3.7067971      37.690041      25.818779      178.94519    
-807670.18      2.9853726      36.358969      25.783027      178.29324    
-807652.58      3.7368198      35.984645      25.756173      177.64891    
-807629.42      3.4846758      34.370933      25.805062      177.00689    
-807607.64      3.6425185      35.145006      25.840311      176.36802    
-807605.11      3.8490346      42.753511      25.824139      175.73556    
-807595.43      3.1798561      37.428849      25.818584      175.10862    
-807612.85      4.5898545      36.228429      25.825625      174.48623    
-807638.27      4.1689018      36.155891      25.84581       173.86743    
-807668.09      4.5929173      36.159801      25.82337       173.25474    
-807655.29      4.5492638      37.787291      25.768034      172.64997    
-807646.29      4.5364095      35.822958      25.833001      172.04564    
-807634.05      3.7397459      35.309729      25.709639      171.45294    
-807625.51      4.2229383      36.86044       25.827213      170.85733    
-807592.84      3.8017884      38.336427      25.829883      170.26561    
-807591.06      3.660479       37.966757      25.827046      169.67799    
-807621.6       3.7838899      33.559209      25.770506      169.09738    
-807656.12      3.1794588      32.680161      25.720991      168.52318    
-807656.78      3.7229032      34.13046       25.722862      167.95235    
-807648.44      4.0854101      36.651407      25.840031      167.37848    
-807655.95      4.7435276      32.768656      25.782525      166.81115    
-807641.64      3.6134947      32.832941      25.817089      166.24523    
-807613.82      3.65972        35.285946      25.816275      165.68257    
-807582.96      3.7996319      39.479355      25.845787      165.12152    
-807607.96      3.2908406      37.445619      25.830503      164.56433    
-807630.7       3.2925605      34.262586      25.789352      164.01221    
-807647.06      3.6175738      33.513492      25.787169      163.46306    
-807643.5       4.5662548      38.725848      25.787698      162.91667    
-807664.76      3.1435932      34.686611      25.789407      162.37291    
-807650.83      3.8510284      35.684138      25.736331      161.83437    
-807632.43      2.9575147      33.349631      25.766606      161.2969     
-807596.14      3.7856376      37.828171      25.828592      160.75897    
-807604.95      3.7647764      40.132259      25.807731      160.22451    
-807607.7       4.0378629      37.609612      25.781151      159.69369    
-807626.93      3.9685723      33.877499      25.755696      159.16638    
-807634.51      4.6555348      36.902588      25.809225      158.63887    
-807662.87      3.1219417      34.307772      25.797669      158.11411    
-807658.5       3.4816763      34.805039      25.800625      157.59141    
-807643.73      2.9877577      33.893884      25.823561      157.06982    
-807623.4       3.4344877      34.432172      25.81217       156.55082    
-807616.95      3.2374434      36.195885      25.820981      156.03349    
-807601.48      3.7158595      38.469902      25.763518      155.52061    
-807599.82      3.9855127      38.271471      25.781977      155.00886    
-807621.42      3.4719922      35.392729      25.827171      154.49709    
-807650.78      3.2624197      35.249815      25.820441      153.98747    
-807657.3       3.1631746      36.45163       25.774876      153.48155    
-807645.54      4.5196361      38.07946       25.774528      152.97739    
-807642.76      4.205185       35.913559      25.774913      152.47492    
-807634.86      3.413245       34.174159      25.840386      151.97152    
-807612.75      3.1792353      37.106236      25.790838      151.47176    
-807588.01      3.8053237      37.93956       25.800658      150.97323    
-807605.41      3.3371514      36.397176      25.794978      150.4765     
-807634.1       3.086465       33.533468      25.777415      149.98199    
-807651.13      3.3430365      33.249993      25.766764      149.48938    
-807645.22      3.8703437      37.343747      25.815809      148.9964     
-807652.93      3.6319421      34.636986      25.780278      148.5062     
-807648.45      3.3034662      34.166661      25.788576      148.01711    
-807630.04      3.1120432      34.115599      25.788478      147.52941    
-807597.59      3.2219144      36.870092      25.800784      147.04263    
-807597.66      3.2602245      38.225419      25.853357      146.55531    
-807612.5       3.1650585      36.128146      25.771133      146.07225    
-807634.15      2.6886944      33.719025      25.803132      145.58933    
-807638.63      3.6197154      36.403441      25.807006      145.10754    
-807654.94      3.8989782      35.606248      25.813445      144.62677    
-807654.69      3.8435808      36.907191      25.785302      144.14818    
-807644.81      3.4723857      34.376755      25.758568      143.67167    
-807618.04      4.3725433      36.212184      25.807475      143.19467    
-807606.49      3.444097       37.529893      25.795991      142.71919    
-807603.96      3.6877045      38.699775      25.791721      142.24497    
-807613.31      3.1449864      35.375403      25.776106      141.77236    
-807627.14      3.6253037      33.838591      25.795643      141.30018    
-807649.02      3.5527029      33.386206      25.766402      140.82999    
-807659.86      2.4574474      34.307855      25.715087      140.36245    
-807651.57      3.2915961      34.400304      25.770553      139.89414    
-807636.11      3.3300393      34.45154       25.822141      139.4252     
-807627.48      3.0813228      33.353703      25.827446      138.95711    
-807612.6       3.2375804      37.238425      25.816526      138.49032    
-807597.71      3.1117086      37.900759      25.797771      138.02506    
-807610.62      2.8064444      35.110377      25.80036       137.56065    
-807632.11      3.3110336      35.410253      25.770915      137.09803    
-807654.54      3.0253037      34.373239      25.80675       136.63524    
-807651.29      4.4586653      35.980691      25.785799      136.17394    
-807647.4       3.791734       35.401106      25.753555      135.71444    
-807639.42      4.6569202      35.303738      25.827511      135.25365    
-807630.34      3.3006466      34.331119      25.790936      134.79474    
-807602.36      4.8148198      36.793055      25.785367      134.33681    
-807598.71      3.547162       37.241         25.814171      133.87888    
-807616.47      3.7911641      35.159076      25.834525      133.42118    
-807641.44      3.5618782      32.855736      25.823347      132.9646     
-807645.46      3.216498       34.283241      25.801765      132.50937    
-807649.41      4.0144729      35.484354      25.800625      132.05493    
-807652.2       3.0263813      34.667114      25.753287      131.60251    
-807642.17      3.1274299      33.276634      25.785023      131.14994    
-807617.11      3.6957737      35.796132      25.806226      130.69754    
-807599.06      3.8214535      37.973679      25.80231       130.24594    
-807606.09      3.9016249      38.318159      25.821495      129.79455    
-807620.63      3.3475265      35.285952      25.790956      129.34463    
-807632.35      3.8218669      34.998077      25.78606       128.8955     
-807643.32      3.5910527      35.609813      25.775036      128.4473     
-807655.69      3.1888351      35.161283      25.773983      127.99978    
-807650.53      2.9206148      34.621213      25.797652      127.55229    
-807634.14      2.9961181      33.84687       25.792275      127.10557    
-807614.06      3.688308       35.355772      25.788183      126.65957    
-807608.89      3.828731       37.078118      25.783999      126.21427    
-807606.74      3.4315132      36.819807      25.762783      125.77008    
-807617.81      3.2263862      34.81277       25.792628      125.32576    
-807632.33      3.2596065      35.329097      25.811204      124.88158    
-807651.8       3.3339916      34.997933      25.808031      124.43805    
-807651.18      3.0346013      36.068011      25.785197      123.99562    
-807643.73      4.5716257      36.045369      25.815252      123.55306    
-807630.93      3.6615423      35.171133      25.803138      123.11132    
-807621.08      3.0596191      36.690436      25.80851       122.67001    
-807606.11      3.9430221      37.508671      25.801989      122.22937    
-807604.18      3.2611864      36.34255       25.79787       121.78935    
-807617.49      4.1322028      35.113499      25.821723      121.34933    
-807641.49      2.9428462      33.555251      25.782996      120.91066    
-807648.17      2.922664       35.20773       25.790872      120.47233    
-807646.94      3.5222542      35.28685       25.741709      120.03554    
-807643.43      3.3293318      35.393046      25.787667      119.59823    
-807637.06      2.8275842      33.956949      25.813856      119.16085    
-807617.37      3.1922499      36.184391      25.802157      118.72419    
-807600.76      3.630955       38.178229      25.795607      118.28814    
-807608.39      3.1882595      36.866159      25.825966      117.85192    
-807624.56      4.1140904      35.897799      25.820839      117.41627    
-807641.4       2.947067       34.869855      25.789112      116.98171    
-807643.78      3.8672652      36.230479      25.820298      116.54697    
-807650.55      3.329847       35.626226      25.8253        116.11257    
-807645.94      2.8451941      35.361424      25.784143      115.67941    
-807632.6       3.2705226      35.101647      25.736184      115.24762    
-807608.98      3.2973865      37.013391      25.809575      114.8148     
-807604.96      4.1661345      38.667976      25.788958      114.38278    
-807611.08      3.4641028      37.564461      25.758014      113.95176    
-807626.47      3.321737       34.510413      25.807593      113.52019    
-807636.14      3.3349978      35.142073      25.810022      113.08897    
-807650.65      4.4812712      34.345581      25.787082      112.65857    
-807651.92      3.5342815      34.755052      25.765973      112.22894    
-807644.15      3.8764467      34.691828      25.81018       111.79887    
-807626.18      3.4448336      34.579772      25.810078      111.36918    
-807613.69      3.8147886      36.941263      25.809208      110.93987    
-807607.44      3.6211597      37.776865      25.795858      110.51117    
-807610.68      3.7149533      38.632046      25.825952      110.0823     
-807622.36      3.2776479      35.856042      25.815057      109.65398    
-807641.22      4.4456869      36.094306      25.811171      109.22608    
-807650.8       3.2771865      35.994761      25.78061       108.79906    
-807647.86      3.5069207      35.833167      25.774731      108.37248    
-807638.16      3.1277685      35.0942        25.79656       107.94585    
-807630.73      3.4242643      33.844035      25.793841      107.51961    
-807614.88      2.7725         36.278724      25.789915      107.09375    
-807604.85      3.4701064      37.57343       25.789669      106.66822    
-807610.62      3.0247501      36.055964      25.837478      106.24222    
-807630.72      3.7905765      35.020578      25.816444      105.81689    
-807643.97      2.973898       35.181959      25.80285       105.3921     
-807647.01      3.2529796      35.682718      25.782035      104.96795    
-807645.74      4.2882155      34.903174      25.802915      104.54377    
-807640.87      3.1613738      34.91382       25.800502      104.11993    
-807629.82      3.4121099      34.303387      25.771946      103.69683    
-807609.27      3.2656663      36.661809      25.818264      103.2733     
-807606.5       4.0179134      37.177955      25.837067      102.84977    
-807616.34      4.0108613      36.6894        25.803673      102.42705    
-807634.08      4.4872256      34.788726      25.846983      102.00395    
-807641.3       3.774061       34.854302      25.836382      101.58131    
-807648.1       3.9729364      35.910671      25.792294      101.15961    
-807650         3.7300303      34.60713       25.791969      100.73818    
-807639.32      3.9143067      35.503157      25.789655      100.31706    
-807623.53      2.7521777      34.968614      25.837067      99.895505    
-807609.59      3.4925511      37.297952      25.874882      99.473675    
-807609.54      3.7762423      37.483583      25.832932      99.052726    
-807620.61      3.0194931      35.473265      25.821337      98.632207    
-807631.27      4.3949762      35.260641      25.814587      98.212042    
-807643.24      3.2108532      34.580693      25.835902      97.791832    
-807651.66      3.1123771      34.129703      25.800088      97.372378    
-807647         2.7345156      34.049388      25.805351      96.953095    
-807636.49      3.0456043      33.77326       25.838471      96.533601    
-807622.02      3.033828       34.091386      25.841572      96.114313    
-807612.63      2.661428       35.560562      25.805444      95.695759    
-807611.28      3.6272708      35.479347      25.802659      95.277477    
-807619.23      3.609463       34.936996      25.824788      94.859133    
-807634.17      3.1724245      33.810912      25.806621      94.441262    
-807645.43      3.9628531      35.080675      25.771501      94.024081    
-807649.44      3.3968754      35.038801      25.756656      93.607309    
-807643.7       3.0493167      34.313857      25.782986      93.19041     
-807632.82      3.3307133      34.886785      25.804203      92.773454    
-807623.14      3.1603609      34.986131      25.813782      92.356594    
-807610.49      3.3927359      36.574891      25.829493      91.939753    
-807606.52      3.2779688      36.669593      25.851412      91.522856    
-807619.44      3.3543758      35.405688      25.796434      91.106859    
-807637.37      2.7756826      34.965886      25.798019      90.691049    
-807644.18      4.3160626      35.878603      25.823409      90.275134    
-807645.7       3.7241786      35.987643      25.814703      89.85953     
-807644.11      3.5860143      35.674461      25.847375      89.443739    
-807635.73      3.6876708      35.346748      25.825445      89.028415    
-807618.91      3.8738902      35.248233      25.804435      88.61354     
-807603.85      3.2044005      37.620738      25.838867      88.198457    
-807608.46      3.2920816      37.093972      25.82395       87.783745    
-807623.62      3.0431646      35.540379      25.786752      87.369657    
-807636.04      3.0369793      34.382745      25.781696      86.955811    
-807644.62      3.6418353      35.127045      25.815639      86.541763    
-807648.25      2.9024948      35.072442      25.80811       86.127986    
-807643.94      3.3424451      35.173694      25.81225       85.714346    
-807630.94      3.4957705      34.179986      25.800971      85.301013    
-807614.1       4.0965576      35.790749      25.853536      84.887282    
-807607.36      2.9300764      37.625786      25.827317      84.474022    
-807612.48      3.9982873      37.084305      25.818455      84.061037    
-807625.01      3.0510397      34.625667      25.832191      83.64808     
-807634.25      3.902343       35.888629      25.860166      83.235004    
-807645.68      3.8334444      35.465058      25.825845      82.822468    
-807647.48      3.0140143      35.865145      25.767558      82.410712    
-807640.14      4.5329823      35.831148      25.779398      81.998993    
-807626.06      3.5798963      36.134214      25.754099      81.587695    
-807615.76      2.9624386      36.689486      25.79906       81.176093    
-807611.77      3.5615528      37.01717       25.777017      80.764874    
-807612.32      3.2604558      36.989556      25.820895      80.353371    
-807626.43      3.3390772      34.993494      25.841175      79.941827    
-807639.1       3.6596036      34.734778      25.801608      79.530836    
-807647.4       2.9703158      34.854323      25.812269      79.119895    
-807644.74      3.3650852      35.393842      25.791876      78.709306    
-807637.91      3.8737336      34.763612      25.825049      78.298549    
-807629.4       3.3072965      34.592355      25.796467      77.888217    
-807617.45      3.2268568      35.698068      25.787816      77.478115    
-807607.89      3.5761895      37.326447      25.798521      77.068058    
-807615.28      3.1982066      35.878372      25.834028      76.657817    
-807631.21      2.8022414      34.436317      25.814307      76.247906    
-807640.75      3.2559995      35.741423      25.817878      75.838108    
-807645.06      3.3368729      35.349677      25.804598      75.428573    
-807645.88      3.820133       35.334033      25.798368      75.019236    
-807640.48      3.3225181      35.109325      25.82157       74.60983     
-807627.33      3.625881       35.640516      25.833743      74.200458    
-807613.54      3.4125197      36.49836       25.813795      73.7914      
-807609.44      3.5141541      36.594866      25.857649      73.382101    
-807621.97      4.5331912      35.956463      25.847128      72.973033    
-807632.51      3.4119868      34.465639      25.815043      72.564377    
-807640.59      3.5168855      35.411036      25.813009      72.155872    
-807647.05      3.3187793      34.606532      25.789999      71.74769     
-807648.71      3.2919598      34.273973      25.807854      71.339488    
-807638.84      2.9836891      33.937327      25.762296      70.931788    
-807625.44      3.5849073      34.2246        25.766218      70.524178    
-807614.28      3.0552922      35.957657      25.830248      70.116169    
-807614.81      3.6210342      35.684765      25.811576      69.708439    
-807621.95      2.927254       34.460427      25.804817      69.300885    
-807632.49      3.3768106      33.729387      25.832993      68.893233    
-807643.1       3.1007346      33.51532       25.809761      68.485886    
-807649.64      3.1027951      33.710458      25.775755      68.078924    
-807645.56      3.2463207      34.414288      25.766534      67.672147    
-807634.41      3.4658082      34.853286      25.788257      67.265317    
-807625.15      3.5736537      34.340652      25.834983      66.85825     
-807613.59      3.6325443      36.342821      25.811166      66.45148     
-807612.96      4.5579198      35.973669      25.701836      66.045637    
-807619.17      3.3510586      36.122561      25.788963      65.639252    
-807635.42      3.8995926      34.188256      25.79992       65.232899    
-807644.67      2.8183584      34.57026       25.839091      64.826374    
-807647.58      3.3043108      35.087251      25.808724      64.420182    
-807641.86      3.5175354      35.003208      25.831623      64.013937    
-807633.45      3.7197593      35.492196      25.822124      63.607871    
-807623.83      2.873612       34.957025      25.826619      63.201884    
-807611.44      3.8418061      37.243132      25.812525      62.796104    
-807608.53      3.6062511      37.681322      25.824513      62.390348    
-807623.1       3.7254592      34.705323      25.828864      61.984671    
-807635.4       3.3961005      35.313723      25.833846      61.579067    
-807643.31      4.9526513      35.45184       25.796584      61.173817    
-807643.6       3.5763012      35.882568      25.808637      60.768589    
-807642.09      4.8301006      35.165601      25.787126      60.363602    
-807634.42      4.0864367      34.578518      25.809102      59.958572    
-807619.8       3.273559       35.354111      25.78609       59.55379     
-807609.15      3.104873       36.144032      25.810386      59.148949    
-807612.58      2.9907589      36.216348      25.807358      58.744227    
-807625.91      3.314402       34.630978      25.754805      58.339928    
-807635.11      3.0944321      35.608627      25.830338      57.935255    
-807640.46      3.5487195      35.567217      25.820678      57.53074     
-807644.16      3.7893584      36.744915      25.790558      57.126502    
-807641.57      3.4832591      36.169604      25.818992      56.722187    
-807630.75      3.4757425      35.741254      25.788793      56.318145    
-807613.9       4.5583634      37.028344      25.763601      55.914341    
-807610.76      2.8237285      37.221813      25.792872      55.510454    
-807615.23      3.1577277      36.194629      25.797198      55.106632    
-807625.02      3.3079665      34.969791      25.778583      54.703004    
-807633.95      3.8690173      35.355278      25.778676      54.299462    
-807643.81      3.446901       35.679305      25.74408       53.896199    
-807646.23      4.0277801      36.096005      25.751169      53.492978    
-807638.12      2.8683682      35.987926      25.735714      53.089922    
-807627.81      3.2638195      35.530211      25.725315      52.687001    
-807615.08      3.6502649      37.543009      25.77211       52.283906    
-807612.44      3.5701381      38.196046      25.777622      51.880864    
-807612.99      4.4759858      38.58241       25.816958      51.477698    
-807624.54      3.177831       35.903333      25.786624      51.074774    
-807635.52      4.4542815      36.484224      25.772899      50.672001    
-807646.47      4.2081411      35.721172      25.781856      50.269262    
-807643.21      4.6810918      36.503214      25.765924      49.866682    
-807635.56      3.7556985      35.520595      25.755745      49.464229    
-807627.67      3.3717428      35.187461      25.764788      49.061808    
-807618.09      3.6978435      37.065584      25.833848      48.659127    
-807609.86      3.4087399      37.326925      25.802619      48.256678    
-807613.79      2.9840451      36.161773      25.79362       47.85435     
-807628.72      3.2767601      34.847743      25.805042      47.452045    
-807641.29      3.0507373      34.400369      25.787107      47.049901    
-807643.33      4.4169387      35.585606      25.816166      46.647699    
-807642.99      3.3513973      35.078603      25.795609      46.245667    
-807638.4       4.1145047      34.973304      25.788496      45.843741    
-807628.76      3.3218612      34.993619      25.792249      45.441873    
-807616.09      3.5913174      36.144116      25.830101      45.039911    
-807609.91      2.9888187      36.651242      25.860415      44.637895    
-807619.87      3.9997969      35.495699      25.845142      44.236023    
-807631.74      3.8395897      34.41194       25.817786      43.834344    
-807639.19      3.416179       34.887842      25.824906      43.432708    
-807644.4       3.0902387      34.927767      25.769327      43.031375    
-807644.68      3.3690618      34.662998      25.761519      42.630142    
-807638.94      3.351013       33.648548      25.782812      42.22889     
-807625.7       2.8701658      34.588421      25.778263      41.827723    
-807614.21      2.864319       35.804932      25.806879      41.42651     
-807614.47      3.1922201      35.528852      25.781916      41.025463    
-807620.99      3.0154705      35.375372      25.771414      40.624524    
-807629.61      3.5188893      35.090303      25.791148      40.223574    
-807638.95      3.8590373      35.401592      25.776736      39.822744    
-807646.18      3.625455       35.018184      25.767477      39.422013    
-807643.49      3.5936889      35.215553      25.750183      39.021408    
-807634.68      3.4071064      34.632449      25.808791      38.620652    
-807621.63      4.288487       35.309856      25.825749      38.219901    
-807617.79      3.2318907      35.376159      25.839713      37.819168    
-807613.79      4.160152       36.12834       25.837246      37.418511    
-807619.9       2.9526913      34.664286      25.841079      37.017908    
-807630.74      3.7486808      34.074345      25.842828      36.617366    
-807641.97      3.6315392      34.726344      25.805451      36.217015    
-807644.73      3.7568444      34.157206      25.797672      35.816752    
-807636.77      3.8801617      35.246812      25.789183      35.416579    
-807632.99      3.5349061      33.937445      25.793821      35.01645     
-807624.65      3.3511844      35.186024      25.800832      34.61636     
-807613.75      2.8844499      36.225754      25.800051      34.216333    
-807610.72      3.0899373      37.124988      25.783873      33.816415    
-807620.94      3.4225562      35.260274      25.765792      33.41661     
-807633.46      3.0970735      35.343792      25.780099      33.016819    
-807639.36      4.3550188      36.086782      25.791829      32.61705     
-807639.71      3.4249055      35.854852      25.807552      32.217293    
-807637.93      3.887646       35.840896      25.756578      31.81774     
-807632.99      2.7193092      34.059054      25.781106      31.418172    
-807620.88      3.1998276      35.110553      25.803166      31.018597    
-807611.29      3.8230391      36.163145      25.801729      30.619084    
-807614.58      3.1449267      35.992956      25.833226      30.219542    
-807623.4       3.6457861      34.968141      25.820471      29.820092    
-807633.08      4.1621081      34.241374      25.820946      29.420699    
-807637.61      3.5522032      35.158448      25.823214      29.021356    
-807644.35      3.7036835      34.422969      25.828468      28.622056    
-807639.01      2.9651271      34.961253      25.805765      28.22287     
-807630.82      4.2558743      34.60381       25.822403      27.823697    
-807618.58      3.1232578      35.572022      25.80278       27.424627    
-807615.63      3.35201        35.914294      25.801687      27.025612    
-807615.23      3.6240823      36.928741      25.793469      26.626669    
-807623.4       3.3922461      35.882709      25.781482      26.227806    
-807632.05      3.730475       34.828575      25.79438       25.828964    
-807641.6       3.3201495      34.818151      25.795798      25.43017     
-807643.89      3.1475933      34.929207      25.786529      25.031447    
-807638.15      3.2041136      34.233806      25.800148      24.632746    
-807628.11      2.8314595      33.986015      25.792819      24.23411     
-807624.48      2.8996621      33.595364      25.762778      23.835585    
-807616.98      3.2356938      35.053603      25.724625      23.437184    
-807618.6       3.2446014      35.282958      25.769256      23.038739    
-807622.84      3.7727245      35.584914      25.811138      22.64026     
-807637.32      3.9616053      34.524172      25.809212      22.241834    
-807642.29      4.4854036      34.679503      25.813996      21.843449    
-807640.02      4.2275444      35.528538      25.789479      21.445157    
-807634.33      3.3180429      35.238444      25.815462      21.046866    
-807631.26      3.827911       34.46857       25.80851       20.648636    
-807622.42      2.92336        35.216023      25.805649      20.25046     
-807615.4       3.2754073      35.504656      25.80857       19.852325    
-807619.59      4.0085213      34.658833      25.788183      19.454271    
-807628.4       3.2940252      33.825321      25.809706      19.056228    
-807638.45      3.0117295      32.839152      25.873606      18.658133    
-807638.11      3.5538493      33.575582      25.822254      18.260167    
-807639.36      2.9390063      33.585371      25.792773      17.862291    
-807636.38      3.3630521      34.266007      25.782662      17.464475    
-807630.3       3.2130853      34.151269      25.794143      17.066686    
-807618.3       3.2412484      35.740285      25.803845      16.668928    
-807615.93      3.0988981      36.030385      25.813558      16.271202    
-807620.85      3.5014833      36.009607      25.869875      15.873447    
-807629.43      3.7930698      34.654619      25.803068      15.475825    
-807633.29      3.5574663      34.87214       25.782156      15.078273    
-807639.63      3.4393045      34.451949      25.774818      14.680771    
-807640         3.4015607      34.615905      25.760836      14.283327    
-807635.21      3.1053869      34.071619      25.747268      13.885938    
-807625.54      3.3435558      34.144496      25.74869       13.488586    
-807618.38      3.140474       34.399316      25.783302      13.091236    
-807617.43      2.6107087      35.137346      25.783757      12.693926    
-807620.75      2.9750281      34.729392      25.78926       12.296651    
-807626.96      2.774546       34.43086       25.784352      11.899421    
-807633.43      3.8435988      35.45673       25.828925      11.502189    
-807640.97      3.2863559      35.348046      25.830076      11.105       
-807637.01      3.4491792      35.55927       25.804593      10.707874    
-807631.05      2.9561771      35.057678      25.768078      10.310819    
-807624.95      3.5712311      35.306         25.811236      9.9137683    
-807619.3       3.607753       36.058131      25.77074       9.5167883    
-807615.97      3.1458486      35.827395      25.75857       9.1198546    
-807618.74      3.8461001      35.323835      25.810008      8.7229218    
-807628.53      3.123038       34.716591      25.83455       8.3260125    
-807638.22      3.0134444      34.181934      25.787528      7.9291735    
-807636.42      3.6873277      35.614573      25.76715       7.5323843    
-807635.8       3.5233388      34.868466      25.78424       7.1356216    
-807631.79      4.3154475      35.450065      25.82014       6.7388769    
-807626.42      3.4048561      35.02492       25.808863      6.3421768    
-807616.25      3.552916       36.961421      25.774521      5.9455308    
-807614.91      3.7530203      36.246622      25.793288      5.5489123    
-807624.16      3.546456       34.491546      25.836419      5.1523131    
-807631.8       4.2396637      34.978472      25.817366      4.7557601    
-807635.57      2.9793179      34.81875       25.849377      4.3592341    
-807636.22      3.8482387      34.922294      25.793047      3.9627647    
-807636.82      3.0961023      34.513074      25.830644      3.5663207    
-807633.93      3.0536008      33.882611      25.837594      3.1699128    
-807624.66      2.8535328      34.104103      25.833944      2.7735438    
-807617.5       2.9937791      34.814382      25.783841      2.3772215    
-807618.72      2.7303472      34.852803      25.77485       1.9809348    
-807626.83      2.8598814      34.429276      25.798126      1.5846788    
-807629.37      3.3380403      34.839478      25.813744      1.1884561    
-807635.74      2.6143089      34.503571      25.867282      0.79226565   
-807639.33      2.9666303      34.997488      25.854586      0.39611408   
-807638.33      2.8201577      34.920818      25.832634      0            
Loop time of 198.048 on 32 procs for 5000 steps with 1080 atoms

Performance: 4.363 ns/day, 5.501 hours/ns, 25.246 timesteps/s, 27.266 katom-step/s
67.7% CPU use with 32 MPI tasks x 1 OpenMP threads

MPI task timing breakdown:
Section |  min time  |  avg time  |  max time  |%varavg| %total
---------------------------------------------------------------
Pair    | 102.38     | 145.65     | 193.82     | 303.4 | 73.54
Neigh   | 0          | 0          | 0          |   0.0 |  0.00
Comm    | 1.8742     | 50.056     | 93.321     | 517.5 | 25.27
Output  | 0.028918   | 0.029996   | 0.031645   |   0.3 |  0.02
Modify  | 1.9483     | 1.9861     | 2.003      |   1.2 |  1.00
Other   |            | 0.3238     |            |       |  0.16

Nlocal:          33.75 ave          48 max          21 min
Histogram: 8 8 0 0 0 0 0 8 0 8
Nghost:        1106.25 ave        1119 max        1092 min
Histogram: 8 0 8 0 0 0 0 0 8 8
Neighs:              0 ave           0 max           0 min
Histogram: 32 0 0 0 0 0 0 0 0 0
FullNghs:       5494.5 ave        7896 max        3378 min
Histogram: 8 8 0 0 0 0 0 8 0 8

Total # of neighbors = 175824
Ave neighs/atom = 162.8
Neighbor list builds = 0
Dangerous builds = 0

reset_timestep 0


variable interval equal 1000
thermo 10

variable nintervals equal $(v_PERIOD/v_interval)
variable nintervals equal 100
variable efield equal 1e-2*36.36*cos((step/${PERIOD})*2*3.14)
variable efield equal 1e-2*36.36*cos((step/100000)*2*3.14)
fix born all addbornforce 0.0 0.0 v_efield

variable Px equal f_born[1]+c_polarization[1]
variable Py equal f_born[2]+c_polarization[2]
variable Pz equal (f_born[3]+c_polarization[3])/vol
variable pe equal pe

fix aveP all ave/time 1 $(v_interval/2) ${interval} v_efield v_Pz v_pe f_born file Pz.${MODEL}.${STRUCTURE}.${TEMP}.$L.${ITER}
fix aveP all ave/time 1 500 ${interval} v_efield v_Pz v_pe f_born file Pz.${MODEL}.${STRUCTURE}.${TEMP}.$L.${ITER}
fix aveP all ave/time 1 500 1000 v_efield v_Pz v_pe f_born file Pz.${MODEL}.${STRUCTURE}.${TEMP}.$L.${ITER}
fix aveP all ave/time 1 500 1000 v_efield v_Pz v_pe f_born file Pz.BaTiO3-E0.${STRUCTURE}.${TEMP}.$L.${ITER}
fix aveP all ave/time 1 500 1000 v_efield v_Pz v_pe f_born file Pz.BaTiO3-E0.BaTiO3-sc333.${TEMP}.$L.${ITER}
fix aveP all ave/time 1 500 1000 v_efield v_Pz v_pe f_born file Pz.BaTiO3-E0.BaTiO3-sc333.320.$L.${ITER}
fix aveP all ave/time 1 500 1000 v_efield v_Pz v_pe f_born file Pz.BaTiO3-E0.BaTiO3-sc333.320.2.${ITER}
fix aveP all ave/time 1 500 1000 v_efield v_Pz v_pe f_born file Pz.BaTiO3-E0.BaTiO3-sc333.320.2.4

thermo_style custom step time temp press pe f_born v_efield v_Pz spcpu cpuremain

# dump 4a all custom 1000 dump.hyst.${MODEL}.${STRUCTURE}.${TEMP}.$L.${ITER}.bin id type xu yu zu fx fy fz
# dump_modify 4a sort id

fix nvt all nvt temp ${TEMP} ${TEMP} $(100*dt)
fix nvt all nvt temp 320 ${TEMP} $(100*dt)
fix nvt all nvt temp 320 320 $(100*dt)
fix nvt all nvt temp 320 320 0.2000000000000000111

run $(v_PERIOD)
run 100000
WARNING: non-constant efield is experimental, strongly distrust scalar/vector output (src/fix_addbornforce.cpp:193)
Per MPI rank memory allocation (min/avg/max) = 3.516 | 3.516 | 3.516 Mbytes
   Step          Time           Temp          Press          PotEng         f_born        v_efield         v_Pz          S/CPU         CPULeft    
         0   0              315.56056      127603.38     -807638.33     -293.38201      0.3636         0.055176878    0              0            
        10   0.02           327.33348      133840.77     -807629.91     -303.51921      0.36359993     0.057083411    30.353159      3294.2443    
        20   0.04           322.38017      138428.34     -807622.78     -310.07671      0.36359971     0.058316727    30.338051      3294.7203    
        30   0.06           328.43278      142928.84     -807620.67     -312.998        0.36359935     0.058866196    30.317547      3295.4044    
        40   0.08           310.45595      141256.3      -807620.32     -310.90604      0.36359885     0.058472839    30.315217      3295.6444    
        50   0.1            326.80684      139279.26     -807624.03     -309.47852      0.36359821     0.058204464    30.339395      3295.1312    
        60   0.12           319.31502      132081.13     -807630.36     -302.15692      0.36359742     0.056827595    30.316796      3295.0875    
        70   0.14           322.57747      127963.97     -807638.02     -294.85793      0.36359649     0.055454992    30.342706      3294.5612    
        80   0.16           303.67152      126243.79     -807639.61     -290.66256      0.36359541     0.054666116    30.346468      3294.0327    
        90   0.18           311.13247      129578.31     -807634.12     -297.21075      0.36359419     0.05589785     30.402269      3292.877     
       100   0.2            336.0757       133082.65     -807631.51     -303.37177      0.36359283     0.057056795    30.447382      3291.3996    
       110   0.22           325.77197      139211.33     -807624.4      -308.97319      0.36359132     0.058110525    30.377172      3290.8206    
       120   0.24           320.96139      141184.88     -807620.74     -311.96271      0.36358968     0.058673049    30.388809      3290.1781    
       130   0.26           315.238        141994.43     -807618.96     -312.95189      0.36358788     0.058859382    30.362208      3289.8055    
       140   0.28           334.78829      137535.63     -807625.9      -308.71215      0.36358595     0.058062288    30.411329      3289.0599    
       150   0.3            320.38133      131479.47     -807632.21     -300.31097      0.36358387     0.056482526    30.410451      3288.3756    
       160   0.32           309.94335      127298.81     -807637.53     -293.5119       0.36358165     0.055204093    30.416691      3287.6939    
       170   0.34           308.17958      125508.45     -807637.66     -293.16453      0.36357928     0.055139118    30.405305      3287.1262    
       180   0.36           317.61451      129427.51     -807634.02     -298.13544      0.36357677     0.056074446    30.394937      3286.6469    
       190   0.38           326.40161      132951.94     -807631.01     -302.42131      0.36357412     0.056880964    30.350372      3286.4376    
       200   0.4            323.3657       140688.71     -807622.86     -309.97696      0.36357132     0.058302519    30.300686      3286.4854    
       210   0.42           325.65551      141660.22     -807619.87     -313.28309      0.36356838     0.058924833    30.339883      3286.2949    
       220   0.44           319.75968      142771.72     -807618.61     -313.58448      0.3635653      0.058982021    30.296576      3286.3054    
       230   0.46           329.75472      135461.26     -807628.43     -305.06938      0.36356207     0.057380928    30.322856      3286.1621    
       240   0.48           321.7007       131983.11     -807632.79     -299.40279      0.3635587      0.056315614    30.330776      3285.9676    
       250   0.5            313.09132      125223.49     -807637.9      -292.9772       0.36355519     0.055107536    30.370638      3285.5896    
       260   0.52           314.57382      127957.62     -807636.17     -294.75437      0.36355153     0.055442371    30.416671      3285.0241    
       270   0.54           328.925        127755.37     -807636.26     -296.65282      0.36354773     0.055800046    30.406866      3284.5154    
       280   0.56           329.92105      136676.12     -807627.98     -304.84875      0.36354379     0.057342313    30.407692      3284.0163    
       290   0.58           324.16267      139947.16     -807620.97     -311.0258       0.3635397      0.058504879    30.450865      3283.3685    
       300   0.6            317.65248      144142.23     -807616.78     -314.1041       0.36353547     0.059084603    30.4185        3282.8584    
       310   0.62           325.38654      139751.95     -807621.85     -310.00297      0.3635311      0.058313862    30.361706      3282.5575    
       320   0.64           336.50226      136737.84     -807628.15     -305.09175      0.36352658     0.057390738    30.352933      3282.2847    
       330   0.66           320.69082      129124.11     -807632.98     -297.95794      0.36352192     0.056049517    30.404522      3281.8395    
       340   0.68           313.3432       128226.35     -807635.3      -294.35992      0.36351712     0.055373418    30.422152      3281.3453    
       350   0.7            329.98057      125230.63     -807639.76     -292.18348      0.36351217     0.054964746    30.442824      3280.797     
       360   0.72           324.27029      132276.35     -807631.09     -299.95613      0.36350708     0.056427704    30.398106      3280.3948    
       370   0.74           325.93731      135899.06     -807623.96     -307.30855      0.36350185     0.057811672    30.345484      3280.1499    
       380   0.76           332.19577      142288.78     -807619.69     -312.31414      0.36349647     0.058754206    30.331785      3279.9397    
       390   0.78           325.32443      141820.77     -807619.28     -311.77602      0.36349095     0.058653864    30.35256       3279.6658    
       400   0.8            335.32431      140734.51     -807622.24     -310.1408       0.36348529     0.058347142    30.327506      3279.4567    
       410   0.82           325.99831      133343.06     -807627.32     -303.75257      0.36347948     0.057146229    30.351608      3279.1783    
       420   0.84           327.27391      129213.1      -807635.09     -296.11321      0.36347353     0.055709916    30.377372      3278.8311    
       430   0.86           311.72602      127546.09     -807637.64     -291.43277      0.36346744     0.054830272    30.421777      3278.3736    
       440   0.88           321.19982      127921.05     -807636.07     -294.41006      0.3634612      0.05539137     30.366555      3278.0571    
       450   0.9            326.50015      132919.88     -807629.84     -301.43301      0.36345482     0.056713689    30.398919      3277.6625    
       460   0.92           325.31796      137417.99     -807624.73     -306.49399      0.3634483      0.057666932    30.397815      3277.2733    
       470   0.94           334.13707      141923.13     -807621.14     -311.33177      0.36344163     0.058578236    30.395312      3276.8925    
       480   0.96           330.16566      140936.06     -807619.54     -312.57573      0.36343482     0.058813393    30.442908      3276.4071    
       490   0.98           328.89148      139853.02     -807622.14     -309.94112      0.36342786     0.058318789    30.434658      3275.9463    
       500   1              328.91632      132298.18     -807631.35     -300.95798      0.36342077     0.056629619    30.380195      3275.6078    
       510   1.02           316.50358      130169.61     -807634.76     -9468.2116      0.36341353     0.055675536    30.267173      3275.5097    
       520   1.04           319.49893      125272.32     -807638.58     -9371.5026      0.36340614     0.055107982    30.251973      3275.4343    
       530   1.06           314.95981      130922.57     -807633.2      -9528.8873      0.36339862     0.056034624    30.291         3275.2695    
       540   1.08           328.25721      131370.31     -807632.43     -9625.0261      0.36339095     0.056601163    30.314613      3275.0511    
       550   1.1            319.4886       139912.57     -807624.37     -9848.7627      0.36338313     0.057918119    30.281845      3274.8931    
       560   1.12           325.99217      140232.68     -807621.63     -9979.2669      0.36337518     0.058686866    30.28392       3274.7249    
       570   1.14           308.88604      143517.97     -807616.74     -10063.902      0.36336707     0.059185916    30.327506      3274.4683    
       580   1.16           314.33885      136102.25     -807626.48     -9784.1708      0.36335883     0.057542118    30.351743      3274.1641    
       590   1.18           310.80125      133246.42     -807631.83     -9598.4494      0.36335044     0.056451167    30.29332       3273.9661    
       600   1.2            310.80435      126603.72     -807636.72     -9451.6067      0.36334191     0.055588849    30.262868      3273.8187    
       610   1.22           315.12825      128301.88     -807637.04     -9460.979       0.36333324     0.0556453      30.301526      3273.5967    
       620   1.24           314.3772       128311.12     -807637.4      -9451.5918      0.36332442     0.055591437    30.24957       3273.4619    
       630   1.26           306.03209      135625.46     -807629.25     -9676.2519      0.36331546     0.056914224    30.148272      3273.4962    
       640   1.28           321.51587      137926.36     -807624.39     -9908.0291      0.36330636     0.058278963    30.200823      3273.4294    
       650   1.3            319.00882      141897.87     -807620.29     -10028.764      0.36329711     0.058990628    30.280955      3273.2206    
       660   1.32           309.51384      139409.58     -807622.33     -9922.1615      0.36328772     0.058365083    30.245244      3273.0668    
       670   1.34           317.32027      135876.9      -807628.17     -9767.4515      0.36327819     0.057456541    30.275993      3272.8579    
       680   1.36           316.74694      130844.03     -807633.11     -9607.7027      0.36326851     0.056518332    30.239131      3272.7042    
       690   1.38           308.49486      128037.35     -807635.48     -9492.3463      0.36325869     0.055841245    30.284977      3272.4734    
       700   1.4            299.29714      127869.57     -807637.03     -9400.8818      0.36324873     0.055304698    30.256326      3272.2841    
       710   1.42           307.77409      129949.61     -807635.42     -9487.8695      0.36323863     0.055817993    30.243532      3272.1104    
       720   1.44           307.83155      135323.84     -807626.52     -9772.8821      0.36322838     0.05749637     30.304282      3271.8409    
       730   1.46           318.30828      138856.78     -807623.36     -9920.4407      0.36321798     0.058366166    30.304878      3271.5688    
       740   1.48           315.89981      141002.31     -807621.57     -9958.7439      0.36320745     0.058593219    30.280396      3271.331     
       750   1.5            327.00174      138373.83     -807625.84     -9868.27        0.36319677     0.058062614    30.280345      3271.0908    
       760   1.52           318.6485       135844.61     -807626.88     -9794.534       0.36318595     0.057630486    30.292549      3270.8308    
       770   1.54           316.32049      131219.7      -807632.27     -9607.1658      0.36317498     0.056529729    30.305994      3270.5502    
       780   1.56           308.49967      127613.18     -807637.72     -9391.2331      0.36316387     0.055260845    30.324968      3270.242     
       790   1.58           315.56883      127256.88     -807639.21     -9370.3692      0.36315262     0.055139785    30.299408      3269.9682    
       800   1.6            311.29781      131117.21     -807632.11     -9574.3256      0.36314122     0.05634173     30.27336       3269.7282    
       810   1.62           318.14286      135344.33     -807626.68     -9773.9489      0.36312968     0.057518275    30.277534      3269.4805    
       820   1.64           324.05832      138984.72     -807625.08     -9843.334       0.363118       0.05792846     30.319978      3269.1747    
       830   1.66           318.65579      140671.35     -807621.16     -9938.0359      0.36310618     0.058487689    30.308977      3268.8828    
       840   1.68           326.27523      139031.39     -807622.58     -9925.1327      0.36309421     0.058413676    30.250066      3268.6657    
       850   1.7            313.9          136206.03     -807625.33     -9774.9594      0.3630821      0.057531761    30.242495      3268.4556    
       860   1.72           332.10964      130450.96     -807635.98     -9508.3479      0.36306984     0.055964474    30.248718      3268.2349    
       870   1.74           318.20105      128162.62     -807636.92     -9412.7301      0.36305745     0.055403576    30.253122      3268.0062    
       880   1.76           314.61701      129308.17     -807633.69     -9498.4488      0.3630449      0.05591005     30.288365      3267.7318    
       890   1.78           317.84892      131839.96     -807630.64     -9609.7219      0.36303222     0.056567005    30.349252      3267.3824    
       900   1.8            336.10168      135487.73     -807628.7      -9747.36        0.36301939     0.05737923     30.378672      3266.9984    
       910   1.82           311.43685      139361.76     -807621.38     -9873.1433      0.36300642     0.058121749    30.348383      3266.6513    
       920   1.84           316.92731      142701.56     -807618.62     -9983.7183      0.36299331     0.058774811    30.299158      3266.3623    
       930   1.86           330.46482      137368.44     -807623.93     -9874.6187      0.36298005     0.058134657    30.314239      3266.0549    
       940   1.88           327.19553      135755.31     -807628.99     -9692.7733      0.36296665     0.057066189    30.261933      3265.807     
       950   1.9            314.53625      129147.63     -807633.66     -9488.2195      0.36295311     0.055863963    30.24691       3265.5746    
       960   1.92           325.38137      129279.41     -807634.68     -9500.6025      0.36293942     0.05593898     30.293587      3265.2875    
       970   1.94           320.3178       127602.41     -807635.63     -9450.8318      0.36292559     0.055648054    30.301107      3264.9913    
       980   1.96           315.6441       133255.31     -807629.95     -9609.2525      0.36291162     0.056583039    30.337388      3264.6543    
       990   1.98           337.11309      134533.76     -807629.55     -9722.0011      0.3628975      0.057249174    30.298222      3264.3602    
      1000   2              330.41214      140613.66     -807620.89     -9968.4845      0.36288325     0.058702927    30.182735      3264.1905    
      1010   2.02           329.03016      138857.66     -807622.19     -310.10475      0.36286884     0.058439468    30.377396      3263.8094    
      1020   2.04           325.77697      138645.57     -807625.03     -306.74416      0.3628543      0.05780848     30.34729       3263.461     
      1030   2.06           319.07672      132980.59     -807630.57     -300.38244      0.36283961     0.056611853    30.371629      3263.0876    
      1040   2.08           321.00954      130488.34     -807632.09     -299.07809      0.36282478     0.056368331    30.370353      3262.7164    
      1050   2.1            308.23707      127985.04     -807635.07     -294.38326      0.3628098      0.055485769    30.379104      3262.337     
      1060   2.12           309.0796       130545.4      -807634.54     -295.00851      0.36279469     0.055605933    30.411024      3261.9264    
      1070   2.14           329.37969      131550.78     -807633.05     -299.4641       0.36277943     0.056448139    30.378588      3261.5497    
      1080   2.16           328.04156      138739.06     -807623.96     -308.36233      0.36276402     0.058127898    30.320691      3261.2315    
      1090   2.18           325.17628      139397.43     -807621.84     -310.19249      0.36274848     0.058475399    30.376597      3260.858     
      1100   2.2            319.66905      139756.57     -807623.34     -307.87422      0.36273279     0.058040886    30.318046      3260.5425    
      1110   2.22           313.15196      136889.86     -807624.19     -306.21829      0.36271695     0.057731227    30.310338      3260.2341    
      1120   2.24           314.68972      133855.67     -807627.13     -303.58648      0.36270098     0.057237574    30.377312      3259.8612    
      1130   2.26           327.29916      129477.42     -807635.44     -297.01697      0.36268486     0.056001462    30.397408      3259.47      
      1140   2.28           316.95533      128333.67     -807638.21     -292.78349      0.3626686      0.055205729    30.445865      3259.0344    
      1150   2.3            319.28392      130053.86     -807634.28     -297.09287      0.36265219     0.056020818    30.464781      3258.5833    
      1160   2.32           321.52159      133261.12     -807628.88     -302.95994      0.36263564     0.057129738    30.378647      3258.2136    
      1170   2.34           322.99799      137019.52     -807625.54     -306.56203      0.36261895     0.057811652    30.333718      3257.8857    
      1180   2.36           313.26201      139615.71     -807623.6      -307.20872      0.36260212     0.057936294    30.365523      3257.5289    
      1190   2.38           314.02806      139654.18     -807622.47     -308.53349      0.36258514     0.058188857    30.328321      3257.206     
      1200   2.4            322.64027      136553.53     -807625.2      -307.07694      0.36256802     0.057916888    30.36855       3256.8471    
      1210   2.42           323.58226      132509.98     -807632.16     -300.28164      0.36255076     0.056637943    30.367004      3256.4901    
      1220   2.44           322.23969      129058.78     -807637.93     -294.3402       0.36253335     0.055519959    30.38          3256.1221    
      1230   2.46           316.17211      128208.31     -807636.41     -295.09662      0.3625158      0.055665333    30.413343      3255.7258    
      1240   2.48           313.44201      131055.52     -807631.7      -299.56918      0.36249811     0.056511769    30.3698        3255.3681    
      1250   2.5            315.15461      133637.19     -807630.2      -301.43656      0.36248028     0.056866835    30.352855      3255.0253    
      1260   2.52           319.29621      138209.63     -807626.74     -305.46833      0.3624623      0.057630298    30.316524      3254.7138    
      1270   2.54           319.24428      138865.59     -807623.41     -308.94984      0.36244418     0.058290042    30.318842      3254.4       
      1280   2.56           304.72015      140059.75     -807620.22     -310.16695      0.36242592     0.058522625    30.31897       3254.0858    
      1290   2.58           323.56285      135329.63     -807629.8      -303.30372      0.36240751     0.05723057     30.358782      3253.7382    
      1300   2.6            316.57523      132748.6      -807633.73     -298.40162      0.36238896     0.05630847     30.399118      3253.3578    
      1310   2.62           311.61416      128077.56     -807635.43     -296.15594      0.36237027     0.055887593    30.407698      3252.9712    
      1320   2.64           305.14105      129980.22     -807633.58     -297.11128      0.36235143     0.056070789    30.378524      3252.6091    
      1330   2.66           307.67483      130462.56     -807634.62     -296.5316       0.36233245     0.055964324    30.363134      3252.2598    
      1340   2.68           312.23755      135230.03     -807630.13     -301.64073      0.36231333     0.056931573    30.371133      3251.9044    
      1350   2.7            310.01601      137436.37     -807624.51     -307.10214      0.36229407     0.057965439    30.380258      3251.5422    
      1360   2.72           312.80938      140621.73     -807621.4      -310.58788      0.36227466     0.058626513    30.357115      3251.1987    
      1370   2.74           321.77943      136460.49     -807627.85     -305.40093      0.36225511     0.057650536    30.247031      3250.9417    
      1380   2.76           321.27985      134967.74     -807630.96     -302.19124      0.36223542     0.057047744    30.190315      3250.728     
      1390   2.78           320.66396      130493.57     -807633.67     -299.41736      0.36221558     0.056527185    30.282708      3250.441     
      1400   2.8            311.90913      129652.75     -807633.79     -297.99111      0.3621956      0.056261025    30.354566      3250.0982    
      1410   2.82           310.68885      127865.13     -807637.57     -293.96597      0.36217548     0.05550416     30.376513      3249.739     
      1420   2.84           313.69989      132301.82     -807634.1      -297.74617      0.36215522     0.056221051    30.368331      3249.3864    
      1430   2.86           313.83778      134835.95     -807627.96     -303.98801      0.36213481     0.057402882    30.366057      3249.0358    
      1440   2.88           314.14156      139301.88     -807622.6      -309.15179      0.36211426     0.058381285    30.358788      3248.6909    
      1450   2.9            315.09885      138137.71     -807625.33     -306.42559      0.36209357     0.057869767    30.341097      3248.3593    
      1460   2.92           312.50957      137716.47     -807626.2      -304.97964      0.36207273     0.057600008    30.327132      3248.0379    
      1470   2.94           322.45344      134780.22     -807628.24     -304.15418      0.36205176     0.057447436    30.340576      3247.7067    
      1480   2.96           318.43396      130919.98     -807631.65     -299.88774      0.36203064     0.056644913    30.39864       3247.3335    
      1490   2.98           309.13941      129641.43     -807635.9      -293.98049      0.36200937     0.05553237     30.365735      3246.9845    
      1500   3              308.74764      128698.11     -807636.27     -293.30245      0.36198796     0.055407566    30.350532      3246.6467    
      1510   3.02           317.70267      133216.43     -807629.55     -9631.7382      0.36196642     0.056863545    30.313091      3246.3354    
      1520   3.04           331.34314      134237.38     -807628.07     -9733.589       0.36194472     0.057468292    30.312192      3246.0246    
      1530   3.06           321.50427      140095.61     -807624.21     -9798.9831      0.36192289     0.057857878    30.201994      3245.7909    
      1540   3.08           320.19737      138156.01     -807625.02     -9762.4907      0.36190091     0.05764591     30.115893      3245.6166    
      1550   3.1            334.79341      138912.24     -807623.61     -9863.465       0.36187879     0.058245706    30.182608      3245.3935    
      1560   3.12           330.99158      132821.56     -807628.7      -9680.3803      0.36185653     0.057168072    30.274019      3245.106     
      1570   3.14           317.38271      133075.84     -807631.98     -9503.029       0.36183412     0.056124188    30.24323       3244.839     
      1580   3.16           314.30332      127950.37     -807636.71     -9337.6172      0.36181157     0.055150715    30.243466      3244.5711    
      1590   3.18           321.73582      131894.99     -807631.51     -9528.3756      0.36178888     0.05628092     30.259944      3244.2911    
      1600   3.2            329.65775      131208.81     -807631.16     -9576.1574      0.36176605     0.056566721    30.333853      3243.9611    
      1610   3.22           338.2028       137252.6      -807627.74     -9713.8722      0.36174307     0.057383853    30.316993      3243.6422    
      1620   3.24           327.68416      137137.52     -807625.38     -9744.8343      0.36171995     0.057570438    30.288224      3243.3423    
      1630   3.26           329.99865      140989.79     -807621.06     -9889.9023      0.36169669     0.058431227    30.291594      3243.0398    
      1640   3.28           329.86268      137630.05     -807624.27     -9787.3942      0.36167329     0.057829334    30.314856      3242.7217    
      1650   3.3            331.20185      134483.36     -807629.91     -9608.4251      0.36164974     0.056775581    30.312134      3242.4052    
      1660   3.32           324.83423      130298.35     -807634.04     -9447.1114      0.36162605     0.055826046    30.314028      3242.0874    
      1670   3.34           311.99609      129509.89     -807631.76     -9464.7441      0.36160222     0.055933929    30.294215      3241.7822    
      1680   3.36           320.85883      130757.13     -807631.65     -9508.073       0.36157824     0.056193716    30.303583      3241.4706    
      1690   3.38           329.23022      131866.42     -807632.17     -9531.2324      0.36155413     0.056334349    30.272438      3241.1786    
      1700   3.4            329.69726      135755.07     -807626.88     -9703.2464      0.36152987     0.057354886    30.259016      3240.8946    
      1710   3.42           316.21817      138688.81     -807620.74     -9843.4881      0.36150546     0.058187767    30.238733      3240.6228    
      1720   3.44           328.78506      139823.36     -807621.27     -9885.3279      0.36148092     0.058439063    30.24976       3240.3435    
      1730   3.46           340.59384      135638.58     -807628.65     -9703.6044      0.36145623     0.057368687    30.258236      3240.0582    
      1740   3.48           332.58149      133589.47     -807631.23     -9588.9572      0.3614314      0.056694776    30.249728      3239.7778    
      1750   3.5            317.92067      129848.32     -807632.07     -9502.7074      0.36140643     0.056188705    30.279781      3239.4783    
      1760   3.52           314.567        130812.25     -807632.87     -9466.7742      0.36138131     0.055980125    30.279532      3239.1786    
      1770   3.54           315.76529      129490.36     -807634.34     -9432.3215      0.36135605     0.055780294    30.284514      3238.8756    
      1780   3.56           320.97449      134111.66     -807630.82     -9575.334       0.36133065     0.056630014    30.308798      3238.5576    
      1790   3.58           314.05571      136346.95     -807624.47     -9757.857       0.36130511     0.057713563    30.301691      3238.2438    
      1800   3.6            324.95701      139708.26     -807622.59     -9872.052       0.36127942     0.058393129    30.265969      3237.951     
      1810   3.62           324.48613      137080.38     -807626.66     -9750.4412      0.3612536      0.057677925    30.202796      3237.6953    
      1820   3.64           322.38216      136791.83     -807628.03     -9701.6033      0.36122763     0.057393154    30.236632      3237.4188    
      1830   3.66           309.4286       131790.25     -807629.85     -9597.0653      0.36120151     0.056778828    30.276599      3237.1183    
      1840   3.68           312.5677       131129.4      -807632.93     -9515.871       0.36117526     0.056302553    30.288358      3236.8107    
      1850   3.7            306.31817      127965.93     -807637.18     -9360.3264      0.36114886     0.055386291    30.275741      3236.51      
      1860   3.72           308.1637       131053.25     -807633.51     -9488.6746      0.36112232     0.056149871    30.283778      3236.2045    
      1870   3.74           310.18514      132774.68     -807629.3      -9641.0767      0.36109564     0.057055936    30.279167      3235.9013    
      1880   3.76           319.91067      137759.7      -807625.89     -9793.5863      0.36106881     0.057962794    30.225513      3235.6284    
      1890   3.78           323.22312      136607.55     -807627.59     -9757.5886      0.36104184     0.057754058    30.240879      3235.3462    
      1900   3.8            307.26031      139128.39     -807625        -9769.424       0.36101474     0.057828452    30.270275      3235.0469    
      1910   3.82           312.30787      134592.29     -807627.59     -9713.6407      0.36098748     0.057502593    30.292581      3234.7347    
      1920   3.84           318.70522      132402.84     -807631.9      -9599.9832      0.36096009     0.056834079    30.357211      3234.3865    
      1930   3.86           288.04429      129717.96     -807633.63     -9408.3588      0.36093255     0.055703869    30.32913       3234.054     
      1940   3.88           319.17343      129145.99     -807637.53     -9417.2164      0.36090487     0.055760588    30.317571      3233.7279    
      1950   3.9            308.31966      129761.48     -807632.68     -9524.088       0.36087705     0.056397736    30.307502      3233.4072    
      1960   3.92           318.11802      134962.3      -807629.54     -9666.0371      0.36084909     0.057242737    30.296311      3233.0925    
      1970   3.94           315.08566      136164.51     -807627.48     -9715.768       0.36082098     0.057541727    30.294856      3232.7785    
      1980   3.96           320.2695       138320.88     -807625.54     -9797.3827      0.36079273     0.058029634    30.306623      3232.458     
      1990   3.98           319.69998      136633.11     -807625.31     -9800.0374      0.36076434     0.058049926    30.303833      3232.1388    
      2000   4              314.01474      135822.67     -807627.34     -9704.4449      0.36073581     0.057488236    30.282503      3231.831     
      2010   4.02           306.96483      131619.29     -807633.18     -296.29956      0.36070713     0.056172504    30.364428      3231.4794    
      2020   4.04           311.09575      129597.57     -807636.18     -293.73909      0.36067831     0.055691541    30.32166       3231.1506    
      2030   4.06           314.31372      129597.32     -807634.26     -296.0221       0.36064935     0.056128895    30.37152       3230.7958    
      2040   4.08           314.05041      130837.37     -807632.29     -297.83218      0.36062025     0.056476663    30.389162      3230.4319    
      2050   4.1            321.87958      134036.77     -807630.55     -300.52454      0.36059101     0.056991826    30.365884      3230.0805    
      2060   4.12           302.71783      137623.82     -807623.79     -304.51535      0.36056162     0.057753353    30.340473      3229.7423    
      2070   4.14           322.07454      138257.43     -807624.07     -306.81789      0.36053209     0.058194811    30.371146      3229.3886    
      2080   4.16           314.26942      137856.69     -807624.65     -304.95356      0.36050242     0.05784596     30.395614      3229.0225    
      2090   4.18           326.77662      134021.55     -807631        -300.13156      0.36047261     0.056935995    30.404095      3228.6526    
      2100   4.2            307.57987      130670.92     -807632.44     -295.92138      0.36044265     0.056141974    30.380961      3228.2947    
      2110   4.22           313.74196      130285.47     -807633.3      -295.6876       0.36041256     0.056102307    30.372061      3227.9415    
      2120   4.24           314.04636      128850.78     -807634.48     -294.39139      0.36038232     0.055861058    30.303089      3227.6232    
      2130   4.26           325.71793      132774.91     -807633.28     -297.00476      0.36035193     0.056361698    30.334945      3227.2888    
      2140   4.28           319.13225      134551.04     -807628.97     -300.31983      0.36032141     0.056995617    30.364975      3226.9396    
      2150   4.3            326.30952      139314.07     -807623.98     -306.08615      0.36029075     0.058094912    30.395235      3226.5757    
      2160   4.32           320.08108      137442.47     -807624.21     -304.95635      0.36025994     0.057885426    30.384503      3226.2173    
      2170   4.34           322.9742       138047.49     -807625.92     -303.38431      0.36022899     0.057591976    30.367921      3225.8673    
      2180   4.36           318.71662      133164.55     -807629.74     -298.88551      0.36019789     0.056742858    30.37513       3225.514     
      2190   4.38           319.92346      133407.4      -807630.49     -298.0812       0.36016666     0.056595069    30.416893      3225.1407    
      2200   4.4            317.43701      128734.3      -807634.87     -293.25996      0.36013528     0.055684538    30.344161      3224.8028    
      2210   4.42           307.37053      130941.72     -807632.69     -293.74748      0.36010377     0.05578199     30.343382      3224.4654    
      2220   4.44           336.30085      130774        -807633.98     -296.41381      0.36007211     0.05629327     30.354234      3224.1229    
      2230   4.46           318.14113      136530.38     -807624.61     -303.06183      0.3600403      0.057560908    30.363736      3223.776     
      2240   4.48           336.15858      136714.3      -807626.63     -303.44579      0.36000836     0.057638948    30.374003      3223.4243    
      2250   4.5            325.61382      138853.14     -807624.08     -304.34461      0.35997627     0.05781483     30.377212      3223.0714    
      2260   4.52           332.6784       135983.84     -807626.22     -303.09101      0.35994404     0.057581845    30.39419       3222.7107    
      2270   4.54           320.6687       133586.15     -807627.8      -299.80583      0.35991167     0.056962843    30.393455      3222.3507    
      2280   4.56           321.53483      131132.82     -807632.56     -294.98191      0.35987916     0.056051365    30.382195      3221.9961    
      2290   4.58           325.29538      128660.96     -807635.79     -292.20311      0.35984651     0.055528387    30.366736      3221.6489    
      2300   4.6            326.72008      130357.26     -807633.38     -294.75939      0.35981371     0.056019272    30.377895      3221.2968    
      2310   4.62           320.03207      132144.91     -807630.05     -297.22433      0.35978077     0.056492906    30.384245      3220.9419    
      2320   4.64           330.3399       136648.14     -807626.63     -301.9436       0.35974769     0.057395167    30.355419      3220.6004    
      2330   4.66           319.75587      137324.39     -807624.2      -302.94512      0.35971447     0.057590861    30.35883       3220.2574    
      2340   4.68           319.26485      139774.05     -807621.71     -305.26152      0.35968111     0.058036598    30.39905       3219.8964    
      2350   4.7            327.5267       135167.95     -807626.48     -301.7457       0.3596476      0.057373513    30.40719       3219.532     
      2360   4.72           325.21734      135267.79     -807628.82     -298.96153      0.35961396     0.056849452    30.402484      3219.17      
      2370   4.74           322.73412      129229.82     -807634.84     -292.72254      0.35958017     0.0556683      30.374428      3218.8208    
      2380   4.76           331.67444      131397.41     -807633.85     -294.80612      0.35954624     0.056069834    30.362589      3218.477     
      2390   4.78           322.80316      128658.82     -807633.93     -293.73771      0.35951216     0.055871926    30.33241       3218.1467    
      2400   4.8            334.07262      134332.54     -807630.93     -298.37693      0.35947795     0.056759755    30.374447      3217.7979    
      2410   4.82           323.77298      133581.66     -807628.93     -299.31875      0.35944359     0.056944357    30.323359      3217.4717    
      2420   4.84           312.3655       140147.18     -807621.5      -305.30285      0.35940909     0.058088386    30.351346      3217.1332    
      2430   4.86           309.27426      136302.4      -807623.96     -302.7888       0.35937446     0.057615604    30.410555      3216.7691    
      2440   4.88           327.02256      136880.53     -807627.26     -302.08155      0.35933967     0.057486591    30.403097      3216.4084    
      2450   4.9            317.59765      130992.27     -807631.51     -296.91685      0.35930475     0.056509231    30.346334      3216.0725    
      2460   4.92           316.24945      132891.93     -807632.26     -296.18206      0.35926969     0.056374888    30.335295      3215.7414    
      2470   4.94           311.78376      128629.26     -807634.7      -293.44636      0.35923448     0.055859652    30.377032      3215.3925    
      2480   4.96           316.44032      131457.85     -807633.85     -295.10154      0.35919913     0.056180256    30.372908      3215.0454    
      2490   4.98           310.19938      131447.92     -807631.17     -297.25021      0.35916364     0.056594903    30.327065      3214.718     
      2500   5              310.64719      136858.17     -807626.42     -302.19871      0.35912801     0.057542782    30.296289      3214.4036    
[...]
     98740   197.48         315.62844      132051.13     -807632.84     -9652.9729      0.36236891     0.05692561     25.502456      45.030374    
     98750   197.5          309.37594      134520.88     -807630.08     -9698.5684      0.36238762     0.057191545    25.531855      44.673424    
     98760   197.52         313.65836      132571.28     -807632.15     -9642.8152      0.36240618     0.056859861    25.533299      44.316467    
     98770   197.54         311.5014       135349.55     -807631.03     -9658.4099      0.36242459     0.056948922    25.534086      43.959503    
     98780   197.56         298.30376      134259.64     -807628.24     -9683.7405      0.36244287     0.0570954      25.506113      43.602537    
     98790   197.58         312.5043       135519.34     -807628.29     -9739.331       0.362461       0.05742029     25.528696      43.245559    
     98800   197.6          306.58271      132995.18     -807629.48     -9669.489       0.36247899     0.057005693    25.522284      42.888576    
     98810   197.62         313.708        135025.1      -807630.5      -9661.1078      0.36249683     0.056953478    25.540777      42.531582    
     98820   197.64         307.03231      133847.74     -807629.23     -9668.697       0.36251453     0.056995434    25.567453      42.174576    
     98830   197.66         322.4142       134930.89     -807629.97     -9705.0347      0.36253209     0.057206868    25.543994      41.817568    
     98840   197.68         321.42448      133276.26     -807632.28     -9621.3237      0.36254951     0.056710705    25.520456      41.460557    
     98850   197.7          312.03308      134459.51     -807629.61     -9657.2254      0.36256678     0.056919608    25.521834      41.103539    
     98860   197.72         310.11489      133303.8      -807628.67     -9675.5124      0.36258391     0.057024696    25.51013       40.746515    
     98870   197.74         315.10933      135257.61     -807627.05     -9742.6015      0.3626009      0.05741741     25.503855      40.389486    
     98880   197.76         320.66489      133564.83     -807629.97     -9669.5076      0.36261774     0.056983989    25.518868      40.032447    
     98890   197.78         316.21763      134774.56     -807629.03     -9670.255       0.36263445     0.056985769    25.515649      39.675401    
     98900   197.8          320.40235      133791.73     -807628.85     -9691.5469      0.362651       0.057108632    25.520674      39.318348    
     98910   197.82         314.71221      135128.51     -807627.53     -9701.5288      0.36266742     0.057164864    25.501629      38.961291    
     98920   197.84         321.61786      132633.28     -807630.99     -9615.0587      0.36268369     0.05665281     25.501247      38.604227    
     98930   197.86         317.28473      133802.59     -807629.69     -9630.6739      0.36269982     0.056742292    25.509371      38.247154    
     98940   197.88         311.00757      134771.21     -807626.55     -9699.9458      0.36271581     0.057147912    25.504191      37.890075    
     98950   197.9          329.61656      134197.69     -807628.46     -9715.5185      0.36273165     0.057237159    25.540919      37.532983    
     98960   197.92         328.43232      134837.23     -807629.22     -9678.9503      0.36274735     0.057019257    25.489689      37.175892    
     98970   197.94         328.02706      134487.03     -807628.74     -9689.5511      0.36276291     0.057079259    25.468538      36.818798    
     98980   197.96         330.5914       135547.42     -807626.92     -9753.888       0.36277832     0.057455813    25.493674      36.461692    
     98990   197.98         313.29718      134606.95     -807626.2      -9699.0824      0.36279359     0.057130573    25.491659      36.10458     
     99000   198            331.74063      134512.71     -807629.88     -9658.3881      0.36280872     0.056888499    25.509334      35.747458    
     99010   198.02         316.86944      132623.25     -807628.93     -300.64655      0.3628237      0.056664112    25.572449      35.390319    
     99020   198.04         316.76837      134760.88     -807627.01     -302.44808      0.36283855     0.057001322    25.548903      35.033177    
     99030   198.06         334.0954       132747.88     -807630.88     -300.98902      0.36285324     0.056724041    25.563308      34.676026    
     99040   198.08         332.34592      134956.84     -807628.62     -302.8485       0.3628678      0.057072188    25.577958      34.318865    
     99050   198.1          327.18391      134310.53     -807627.98     -302.87217      0.36288221     0.057074381    25.589455      33.961696    
     99060   198.12         322.76696      135911.6      -807626.03     -304.17859      0.36289648     0.057318314    25.585065      33.604521    
     99070   198.14         326.23009      134745.72     -807627.64     -303.10102      0.36291061     0.057113038    25.527877      33.247348    
     99080   198.16         317.12912      136462.08     -807625.77     -303.69483      0.36292459     0.057222723    25.550257      32.890164    
     99090   198.18         332.0808       133386.06     -807629.55     -302.14213      0.36293843     0.05692799     25.584439      32.532969    
     99100   198.2          318.45202      135496.12     -807627.08     -302.74387      0.36295213     0.057039214    25.563367      32.17577     
     99110   198.22         320.16352      133612.02     -807628.97     -301.17786      0.36296568     0.056742047    25.566855      31.818563    
     99120   198.24         329.70519      135066.62     -807628.6      -302.93405      0.36297909     0.057070805    25.606621      31.461344    
     99130   198.26         325.07521      134221.13     -807629.14     -301.93252      0.36299236     0.056880045    25.610147      31.104118    
     99140   198.28         324.79283      136274        -807627.95     -303.14414      0.36300548     0.057106234    25.592428      30.746888    
     99150   198.3          323.15385      134881.68     -807628.64     -302.45332      0.36301846     0.056974058    25.60717       30.389649    
     99160   198.32         328.7601       134804.94     -807628.76     -303.28655      0.3630313      0.057128998    25.593388      30.032404    
     99170   198.34         318.12406      135982.9      -807627.49     -303.32952      0.36304399     0.057135093    25.563285      29.675158    
     99180   198.36         322.5712       133791.51     -807629.55     -302.1769       0.36305655     0.056916017    25.543657      29.317906    
     99190   198.38         322.46719      135615.12     -807629.45     -302.42952      0.36306895     0.056961653    25.553062      28.960647    
     99200   198.4          309.10044      133827.94     -807628.13     -302.19789      0.36308122     0.056916104    25.564079      28.603379    
     99210   198.42         324.37419      135075.71     -807628.36     -304.27634      0.36309334     0.057305647    25.564641      28.246105    
     99220   198.44         319.91241      133107.63     -807630.53     -301.789        0.36310532     0.05683532     25.59186       27.88882     
     99230   198.46         315.88581      135143.18     -807628.56     -303.36723      0.36311715     0.057130683    25.561916      27.531532    
     99240   198.48         315.33371      133307.16     -807629.18     -302.93534      0.36312885     0.057047513    25.583273      27.174235    
     99250   198.5          310.52259      135155.23     -807627.31     -304.32912      0.3631404      0.057308159    25.556692      26.816934    
     99260   198.52         311.24021      133579.55     -807629.73     -302.20326      0.3631518      0.056906053    25.579146      26.459624    
     99270   198.54         314.57215      134906.52     -807628.93     -303.5928       0.36316306     0.057165936    27.92212       26.102066    
     99280   198.56         312.75004      133134.51     -807630.64     -301.88864      0.36317418     0.056843304    29.445157      25.744373    
     99290   198.58         309.05581      135553.55     -807628.11     -303.96737      0.36318516     0.057232985    29.447658      25.386684    
     99300   198.6          316.99979      132370.59     -807631.46     -301.85851      0.36319599     0.056834218    29.414646      25.029001    
     99310   198.62         309.54827      136007.52     -807628.63     -303.6139       0.36320668     0.057163043    29.432973      24.67132     
     99320   198.64         314.37113      133401.93     -807630.38     -302.65214      0.36321723     0.056980313    29.437911      24.313643    
     99330   198.66         311.62677      136046.17     -807627.62     -305.03387      0.36322763     0.057427077    29.452292      23.955967    
     99340   198.68         312.75526      133463.75     -807630.02     -302.84108      0.36323789     0.057012641    29.440568      23.598297    
     99350   198.7          305.19352      135952.72     -807628.25     -303.45033      0.36324801     0.057125746    29.484557      23.240627    
     99360   198.72         324.57598      132489.97     -807632.2      -302.27972      0.36325798     0.056903813    29.490375      22.88296     
     99370   198.74         317.90417      134525.39     -807629.39     -304.05145      0.36326781     0.057235789    29.4947        22.525296    
     99380   198.76         304.70606      133385.18     -807629.91     -301.70802      0.3632775      0.056793139    29.481704      22.167637    
     99390   198.78         309.67108      135060.66     -807630.02     -302.1087       0.36328704     0.056867068    29.414331      21.809987    
     99400   198.8          305.87144      134287.96     -807628.4      -303.22478      0.36329644     0.057075676    29.390199      21.452342    
     99410   198.82         314.27236      135027.59     -807628.27     -304.37311      0.3633057      0.057290365    29.427516      21.094697    
     99420   198.84         323.06167      134303.49     -807630.35     -303.32093      0.36331481     0.057090888    29.406248      20.737058    
     99430   198.86         308.71736      134073.95     -807629.08     -302.49941      0.36332378     0.056934855    29.439617      20.37942     
     99440   198.88         314.90665      134999.61     -807628.24     -304.06069      0.36333261     0.057227321    29.410156      20.021788    
     99450   198.9          313.5306       134204.47     -807628.48     -303.4918       0.36334129     0.057118884    29.371057      19.664162    
     99460   198.92         314.74192      134856.95     -807628.51     -303.37934      0.36334983     0.057096377    29.422261      19.306536    
     99470   198.94         320.42348      132920.95     -807631.11     -301.45362      0.36335823     0.056732644    29.408362      18.948914    
     99480   198.96         304.44334      135665.34     -807625.67     -304.41267      0.36336648     0.057288226    29.415437      18.591296    
     99490   198.98         321.34945      133549.51     -807629.03     -303.32083      0.3633746      0.057081476    29.459667      18.233678    
     99500   199            318.18221      135491.1      -807627.93     -303.61267      0.36338256     0.057135143    29.475817      17.876063    
     99510   199.02         319.1523       134562.84     -807628.39     -9700.2962      0.36339039     0.057043886    29.381538      17.518457    
     99520   199.04         324.47011      136248.96     -807627.47     -9743.8743      0.36339807     0.057298942    29.348728      17.160857    
     99530   199.06         322.45082      134032.44     -807628.31     -9702.0907      0.3634056      0.057052049    29.377867      16.803258    
     99540   199.08         325.75093      135115.71     -807628.2      -9713.0296      0.363413       0.057115212    29.210467      16.445672    
     99550   199.1          321.04943      134075.77     -807628.54     -9677.6811      0.36342025     0.056906218    29.377427      16.08808     
     99560   199.12         327.76068      135278.73     -807627.54     -9733.4533      0.36342736     0.057233048    29.380833      15.730491    
     99570   199.14         325.88541      133792.45     -807628.29     -9699.3097      0.36343432     0.057031189    29.346436      15.372908    
     99580   199.16         322.94027      135471.7      -807627.82     -9696.3878      0.36344114     0.057012939    29.367575      15.015326    
     99590   199.18         324.64526      134839.56     -807628.19     -9692.1566      0.36344782     0.056987013    29.425025      14.657746    
     99600   199.2          322.91097      135504.17     -807626.56     -9733.5681      0.36345435     0.057229472    29.389668      14.300171    
     99610   199.22         334.79418      133837.71     -807629.71     -9686.7411      0.36346074     0.056953146    29.34029       13.942601    
     99620   199.24         320.17235      134222.81     -807627.84     -9680.2491      0.36346699     0.056913998    29.314562      13.585036    
     99630   199.26         334.63054      133445.97     -807629.62     -9687.7768      0.3634731      0.0569573      29.337398      13.227473    
     99640   199.28         323.64531      134342.76     -807627.02     -9723.6614      0.36347906     0.057167339    29.350587      12.869913    
     99650   199.3          323.20272      135645.22     -807627.17     -9718.0674      0.36348487     0.057133536    29.351555      12.512357    
     99660   199.32         327.58642      135553.83     -807628.61     -9692.7945      0.36349055     0.056984064    28.948482      12.15482     
     99670   199.34         323.12978      135497.99     -807626.59     -9741.1336      0.36349608     0.057267379    29.323958      11.797271    
     99680   199.36         318.56114      135728.84     -807626.07     -9739.7891      0.36350147     0.057258626    29.351471      11.439724    
     99690   199.38         334.17538      135510.71     -807629.15     -9712.7128      0.36350671     0.057098626    29.304375      11.082182    
     99700   199.4          317.03934      134076.73     -807627.66     -9685.7375      0.36351181     0.056939246    29.385596      10.72464     
     99710   199.42         328.36694      134580.03     -807628.15     -9723.8417      0.36351677     0.057162468    29.361805      10.367103    
     99720   199.44         321.78502      133664.54     -807627.33     -9722.8116      0.36352158     0.057155656    29.388779      10.009568    
     99730   199.46         333.7708       134259.97     -807629.69     -9703.7849      0.36352625     0.057043074    29.388815      9.6520372    
     99740   199.48         332.44983      133351.83     -807630.25     -9685.2415      0.36353078     0.056933359    29.36187       9.2945103    
     99750   199.5          325.86784      134935.59     -807627.59     -9744.3728      0.36353516     0.057280263    29.380053      8.9369862    
     99760   199.52         327.42872      134210.29     -807629.09     -9708.6292      0.3635394      0.057069486    29.398458      8.5794651    
     99770   199.54         320.83522      135462.01     -807628.18     -9710.957       0.3635435      0.057082526    29.362791      8.2219484    
     99780   199.56         326.38721      134513.32     -807630.71     -9661.8864      0.36354745     0.056793464    29.344756      7.8644355    
     99790   199.58         320.33675      135639.89     -807627.03     -9756.3762      0.36355126     0.057348283    29.2962        7.5069272    
     99800   199.6          315.92878      134111.54     -807628.24     -9705.5276      0.36355493     0.057048818    29.254845      7.1494232    
     99810   199.62         323.20372      135890.52     -807629.58     -9697.9346      0.36355845     0.057003634    29.30258       6.7919212    
     99820   199.64         317.71257      134335.99     -807629.7      -9677.3671      0.36356183     0.056882211    29.338106      6.4344217    
     99830   199.66         319.69196      135501.33     -807627.27     -9767.0873      0.36356507     0.057409063    29.338653      6.0769255    
     99840   199.68         322.38536      134880        -807628.78     -9738.3187      0.36356816     0.057239479    29.374261      5.719432     
     99850   199.7          321.03917      135725.63     -807629.91     -9699.4308      0.36357111     0.057010443    29.385094      5.3619417    
     99860   199.72         318.04355      134756.23     -807629.64     -9698.2031      0.36357392     0.057002787    29.319891      5.0044559    
     99870   199.74         323.752        133917.77     -807629.46     -9733.4749      0.36357658     0.057209684    29.330846      4.6469733    
     99880   199.76         321.64753      133707.33     -807630.21     -9705.039       0.3635791      0.057042153    29.279797      4.2894947    
     99890   199.78         317.04761      133848.23     -807630.83     -9668.2324      0.36358148     0.056825448    29.286097      3.9320192    
     99900   199.8          316.36747      134885.38     -807629.91     -9697.6265      0.36358371     0.056997863    29.310672      3.5745466    
     99910   199.82         321.44392      133824.55     -807629.66     -9733.7191      0.3635858      0.057209669    29.259245      3.2170778    
     99920   199.84         310.41637      136594.71     -807627        -9768.9562      0.36358775     0.057416467    29.300523      2.8596118    
     99930   199.86         313.8397       134034.55     -807630.57     -9675.6296      0.36358955     0.056867663    29.3058        2.5021489    
     99940   199.88         315.19593      135785.34     -807628.46     -9748.028       0.36359121     0.057292916    29.285217      2.1446895    
     99950   199.9          313.41681      134157.2      -807629.1      -9724.9928      0.36359273     0.057157292    29.307408      1.7872331    
     99960   199.92         315.90149      135294.83     -807628.61     -9749.4307      0.3635941      0.057300705    29.321284      1.4297799    
     99970   199.94         320.88919      132817.42     -807632.59     -9645.7017      0.36359533     0.056690863    29.350428      1.0723299    
     99980   199.96         319.43106      135402.31     -807629.76     -9730.2076      0.36359641     0.057187361    29.325872      0.71488333   
     99990   199.98         313.28375      134023.88     -807628.76     -9737.7469      0.36359736     0.057231523    29.343908      0.35744      
    100000   200            314.901        136008.68     -807628.56     -9748.2151      0.36359816     0.057292922    29.411061      0            
Loop time of 3574.38 on 32 procs for 100000 steps with 1080 atoms

Performance: 4.834 ns/day, 4.964 hours/ns, 27.977 timesteps/s, 30.215 katom-step/s
63.4% CPU use with 32 MPI tasks x 1 OpenMP threads

MPI task timing breakdown:
Section |  min time  |  avg time  |  max time  |%varavg| %total
---------------------------------------------------------------
Pair    | 2604.7     | 2806.9     | 3142.4     | 218.7 | 78.53
Neigh   | 0.0016545  | 0.0017783  | 0.0019591  |   0.2 |  0.00
Comm    | 357.09     | 692.56     | 894.58     | 440.4 | 19.38
Output  | 2.4335     | 2.4451     | 2.4578     |   0.3 |  0.07
Modify  | 65.842     | 66.333     | 66.893     |   3.3 |  1.86
Other   |            | 6.168      |            |       |  0.17

Nlocal:          33.75 ave          41 max          25 min
Histogram: 1 3 1 4 4 5 5 1 7 1
Nghost:        1041.97 ave        1054 max        1029 min
Histogram: 1 0 6 2 7 2 6 5 1 2
Neighs:              0 ave           0 max           0 min
Histogram: 32 0 0 0 0 0 0 0 0 0
FullNghs:      5309.19 ave        6458 max        3936 min
Histogram: 1 3 2 3 5 4 5 1 7 1

Total # of neighbors = 169894
Ave neighs/atom = 157.30926
Neighbor list builds = 4
Dangerous builds = 0

Total wall time: 1:03:17
