
units		metal
atom_style	atomic

read_data ${STRUCTURE}.data
read_data BaTiO3-sc333.data
Reading data file ...
  orthogonal box = (0 0 0) to (11.898253 11.898253 12.912076)
  2 by 4 by 4 MPI processor grid
  reading atoms ...
  135 atoms
  read_data CPU = 0.004 seconds
replicate $L $L $L
replicate 2 $L $L
replicate 2 2 $L
replicate 2 2 2
Replication is creating a 2x2x2 = 8 times larger system...
  orthogonal box = (0 0 0) to (23.796507 23.796507 25.824152)
  2 by 4 by 4 MPI processor grid
  1080 atoms
  replicate CPU = 0.003 seconds

pair_style allegro
pair_coeff	* * ${MODEL}.pth Ba Ti O
pair_coeff	* * BaTiO3-E0.pth Ba Ti O
mass 1 137.3
mass 2 47.9
mass 3 15.9994

timestep 0.002
compute polarization all allegro polarization 3
compute allegro will evaluate the quantity polarization of length 3 (src/compute_allegro.cpp:53)
compute polarizability all allegro polarizability 9
compute allegro will evaluate the quantity polarizability of length 9 (src/compute_allegro.cpp:53)

thermo_style custom pe fmax fnorm spcpu cpuremain

variable efield equal 1e-2*36.36
fix born all addbornforce 0.0 0.0 ${efield}
fix born all addbornforce 0.0 0.0 0.3636

thermo 10
min_style fire
#minimize 0.0 1e-6 100 100
velocity all create ${TEMP} ${SEED} dist gaussian rot yes mom yes
velocity all create 340 ${SEED} dist gaussian rot yes mom yes
velocity all create 340 8161 dist gaussian rot yes mom yes
fix nvt all nvt temp ${TEMP} ${TEMP} $(100*dt)
fix nvt all nvt temp 340 ${TEMP} $(100*dt)
fix nvt all nvt temp 340 340 $(100*dt)
fix nvt all nvt temp 340 340 0.2000000000000000111
run 5000
Neighbor list info ...
  update: every = 1 steps, delay = 0 steps, check = yes
  max neighbors/atom: 2000, page size: 100000
  master list distance cutoff = 8
  ghost atom cutoff = 8
  binsize = 8, bins = 3 3 4
  1 neighbor lists, perpetual/occasional/extra = 1 0 0
  (1) pair allegro/kk, perpetual
      attributes: full, newton on, kokkos_device
      pair build: full/bin/kk/device
      stencil: full/bin/3d
      bin: kk/device
Per MPI rank memory allocation (min/avg/max) = 3.516 | 3.516 | 3.516 Mbytes
    PotEng          Fmax          Fnorm          S/CPU         CPULeft    
-807708.29      1.5954875      37.044395      0              0            
-807644.1       3.3764313      45.667742      2.6640949      1873.0574    
-807632.96      2.5762791      36.153751      25.90257       1030.7812    
-807605.24      3.7525706      38.052082      25.887654      749.80211    
-807601.53      4.1503117      50.784038      25.875345      609.14217    
-807565.58      3.6427848      41.209077      25.845126      524.63634    
-807601.51      3.1355161      39.609806      25.901891      468.10034    
-807646.63      4.0524242      34.447759      25.934638      427.57283    
-807682.33      2.7865887      35.296034      25.866165      397.14358    
-807665.83      3.6009598      35.464891      25.8658        373.39078    
-807650.4       3.6605879      36.624171      25.926317      354.267      
-807658.06      2.8025815      29.864081      25.836582      338.60966    
-807624.91      3.3257222      33.794597      25.803565      325.51756    
-807582.4       3.9626529      41.805287      25.839203      314.35996    
-807566.4       3.7443879      39.889395      25.892663      304.71328    
-807630.29      3.8099833      35.322289      25.884163      296.30543    
-807651.6       3.9104024      33.86892       25.864618      288.9091     
-807661.67      3.7146064      35.710917      25.858779      282.3399     
-807644.52      5.6388762      46.560036      25.890622      276.44494    
-807677.7       3.2809834      37.836308      25.898452      271.12688    
-807639.47      5.0315863      40.913599      25.873685      266.31088    
-807613.49      3.4434991      39.914771      25.9028        261.90683    
-807560.44      5.0602132      46.8428        25.933027      257.85827    
-807602         4.3523113      49.937198      25.861619      254.15031    
-807611.62      4.1924684      39.705447      25.790101      250.7404     
-807639.27      2.9248225      36.152221      25.863413      247.55137    
-807640.88      4.7614106      45.394571      25.907126      244.56602    
-807679.62      3.244179       38.253201      25.843227      241.78993    
-807662.06      3.278624       35.629987      25.817007      239.19112    
-807634.78      2.7073788      33.456627      25.916509      236.72068    
-807606.66      3.0999826      34.338053      25.916668      234.38916    
-807600.33      3.6424362      42.764303      25.869155      232.1939     
-807594.36      3.5523548      38.904129      25.831119      230.12       
-807603.22      3.5570987      35.886572      25.931792      228.12706    
-807640.19      3.1950008      32.175104      25.921238      226.23083    
-807667.74      3.3473878      34.393593      25.89447       224.42621    
-807673.86      2.7016609      34.763141      25.794914      222.71959    
-807639.7       4.6380741      41.297678      25.871324      221.06995    
-807644.99      3.3712         33.330423      25.883245      219.48461    
-807619.03      3.4456723      36.109394      25.877459      217.96179    
-807596.48      4.0273475      45.865771      25.838237      216.50252    
-807565.21      4.2012481      43.579766      25.907529      215.08399    
-807618.86      3.5989849      38.396369      25.951255      213.70752    
-807643.66      5.3220482      37.898282      25.847151      212.39365    
-807666.74      3.4453814      37.175248      25.827462      211.12497    
-807640.48      5.406347       47.058974      25.901314      209.88431    
-807661.72      3.6063495      37.37401       25.900208      208.68096    
-807643         3.7405513      37.454967      25.828575      207.52271    
-807620.75      3.1861532      38.247363      25.863441      206.39167    
-807565.03      4.3364254      43.646456      25.911777      205.28438    
-807595.15      3.8089195      43.316595      25.918493      204.20504    
-807619.47      3.5832833      36.028273      25.880359      203.15791    
-807648.75      2.7478876      33.705204      25.906901      202.13278    
-807641.42      3.6662275      40.777155      25.933628      201.12841    
-807665.72      3.4965818      36.234758      25.906671      200.15027    
-807664.09      3.0764692      34.74132       25.807356      199.20569    
-807639.45      4.109189       33.866367      25.880031      198.27237    
-807601.06      3.4713366      36.285497      25.928979      197.35257    
-807590.55      4.3346286      40.657395      25.917001      196.45256    
-807600.68      4.9885534      42.154859      25.822394      195.58053    
-807612.04      4.1860118      36.646094      25.882698      194.71805    
-807633.04      2.9276479      34.894701      25.911983      193.86804    
-807656.51      4.1025334      36.483375      25.877468      193.03663    
-807671.46      2.7125143      37.097417      25.770104      192.23052    
-807643.51      4.2105819      40.043214      25.814889      191.43288    
-807632.78      2.964702       34.781272      25.89803       190.63955    
-807612.27      4.187558       37.102118      25.927875      189.85563    
-807601.81      4.0474253      44.554392      25.850973      189.09102    
-807579.85      4.78471        40.219267      25.818813      188.34058    
-807609.88      3.425258       37.591574      25.895651      187.59348    
-807639.93      4.1320102      37.022781      25.86794       186.85924    
-807668.1       2.9893724      36.640563      25.838387      186.13746    
-807648.6       4.6896901      41.576589      25.804091      185.42804    
-807648.31      3.7991886      36.871324      25.88933       184.71998    
-807642.68      4.104596       35.081895      25.919117      184.01805    
-807623.55      3.547585       37.339022      25.899801      183.32619    
-807581.82      3.8417176      39.321661      25.886301      182.6435     
-807584.88      3.1897433      40.212742      25.926983      181.96517    
-807624.03      3.012683       33.516968      25.874003      181.29863    
-807651.77      2.997947       33.494685      25.856257      180.64058    
-807650.27      3.0700981      35.815896      25.912231      179.98493    
-807652.67      3.7975535      37.642239      25.919741      179.33536    
-807663.2       2.6381166      33.235833      25.974186      178.68811    
-807642.24      3.0267917      33.683454      25.96818       178.04762    
-807606.4       3.0032664      36.366021      25.991509      177.4115     
-807584.18      3.3362641      39.667978      26.022015      176.77909    
-807603.27      3.7408457      41.371981      25.917119      176.15994    
-807622.66      3.4146142      34.852133      25.937532      175.54471    
-807636.27      3.4102857      34.990998      26.021991      174.92885    
-807648.14      4.3894625      38.069249      26.003612      174.31944    
-807667.42      2.9722428      36.68294       25.956401      173.71821    
-807652.55      4.1380772      35.689809      25.908335      173.12495    
-807629.89      3.6633161      34.534489      25.937231      172.53428    
-807606.61      3.6384028      35.889422      25.999315      171.944      
-807603.36      3.9441628      42.731542      25.979516      171.35935    
-807593.16      4.2622448      39.354811      25.996412      170.77785    
-807613.2       4.4112324      36.577857      26.01897       170.19904    
-807635.66      3.6168271      36.543401      26.001728      169.6253     
-807662.84      3.9990375      36.481104      25.993618      169.05592    
-807655.74      4.1931217      37.258778      25.912954      168.49511    
-807643.87      3.2212376      35.958206      25.96777       167.93454    
-807632.03      5.007081       34.87453       26.005124      167.37527    
-807621.48      3.6393351      36.946609      26.04802       166.81695    
-807591.64      4.1572147      39.68995       25.950405      166.26758    
-807587.5       4.4064466      39.914992      25.996348      165.71877    
-807616.93      3.1580529      35.06149       25.970518      165.17453    
-807649.88      3.9419957      34.5661        25.911825      164.63654    
-807654.48      3.2840746      35.44194       25.916736      164.10111    
-807648.2       4.829735       37.649684      26.002183      163.56386    
-807650.89      2.9157153      34.554337      25.957255      163.03179    
-807639.39      3.1592382      34.634641      25.964141      162.50204    
-807610.53      3.5711874      37.091749      25.993662      161.97335    
-807581.84      3.5741239      39.657401      25.996744      161.44708    
-807598.99      4.0223644      39.746469      25.926764      160.92687    
-807625.71      3.5766255      34.95393       25.991015      160.40579    
-807643.23      4.3503762      34.58443       25.995857      159.88684    
-807642.36      4.5649169      38.478472      25.979772      159.371      
-807659.24      3.8262892      36.479077      25.828116      158.86479    
-807649.28      3.5973383      36.507781      25.910287      158.35662    
-807632.44      3.1892955      34.803143      25.871321      157.85237    
-807596.6       4.293372       39.071459      25.955914      157.3461     
-807599.13      3.9175548      40.830897      25.94284       156.84243    
-807601.44      3.6636638      38.601233      25.919593      156.34177    
-807623.09      3.2561149      35.092376      25.912444      155.8433     
-807631.68      3.9332586      36.962341      26.02379       155.34165    
-807657.76      3.1735035      35.162741      25.983247      154.84366    
-807656.33      3.1248081      36.099593      25.917646      154.35037    
-807643.19      3.6823375      35.824239      25.945477      153.85755    
-807624.21      4.5270367      35.854633      25.897381      153.36849    
-807615.51      4.0870531      37.062434      25.8639        152.88247    
-807599.51      4.1129337      39.582336      25.913884      152.39585    
-807596.35      3.8331848      39.460531      25.928079      151.91017    
-807615.9       3.4730697      35.930809      25.995555      151.42322    
-807645.39      3.4028902      34.660839      25.949098      150.93971    
-807657.25      3.5851698      35.163617      25.876015      150.46063    
-807646.65      3.4581236      37.636281      25.941242      149.9803     
-807642.08      4.2534943      34.984998      25.936359      149.50156    
-807635.45      3.3493524      34.248084      25.937647      149.02413    
-807615.22      3.200668       36.219937      23.164054      148.66912    
-807588.72      3.4560204      39.058093      26.055074      148.18861    
-807598.91      3.3389374      38.910259      26.002381      147.71147    
-807627.55      3.8942582      35.663082      26.030499      147.2346     
-807648.34      3.1563262      34.666192      26.058047      146.758      
-807644.63      3.9759183      38.264606      25.990473      146.2852     
-807651.43      3.23463        36.137369      25.987284      145.81373    
-807648.08      3.9935912      35.350792      25.891222      145.34695    
-807632.18      2.5401841      34.270052      25.90424       144.88081    
-807600.85      3.3917349      36.925449      25.991473      144.41265    
-807596.82      3.1772406      38.180067      25.94259       143.94734    
-807608.99      3.7741213      37.202339      25.724015      143.49081    
-807629.36      3.5381252      34.391367      25.924305      143.02818    
-807636.41      3.7898788      35.831236      25.97342       142.56488    
-807651.22      3.0470508      35.541261      25.881217      142.10576    
-807655.8       2.8406381      35.018233      25.952851      141.64516    
-807643.43      3.0130027      34.695158      25.941176      141.18593    
-807624.57      3.2746363      34.427566      25.996669      140.72583    
-807607.34      3.5814499      36.751844      7.1345937      142.50921    
-807604.44      3.2562234      38.480942      25.874388      142.03423    
-807611.14      3.7163841      36.528881      25.935542      141.55839    
-807622.33      3.6633351      34.332317      25.923845      141.08407    
-807642.67      2.9253005      33.856586      25.989878      140.60877    
-807657.28      2.7355093      34.263096      23.744584      140.2112     
-807650.39      3.3762017      35.071813      14.749113      140.34926    
-807636.77      3.0066333      34.485441      25.887946      139.87416    
-807628.21      3.118648       33.801489      24.570973      139.44258    
-807613.11      3.3429621      37.350483      20.230741      139.18854    
-807598.24      3.4227057      38.40622       18.473584      139.02622    
-807603.72      3.6494154      37.189405      25.937228      138.54876    
-807628.81      3.9483738      35.187286      21.703926      138.221      
-807647.18      3.153222       34.899391      25.83113       137.74748    
-807648.82      3.689249       35.671256      15.258791      137.79567    
-807643.16      3.5171818      36.157103      25.848286      137.31906    
-807640.97      3.3920848      34.349522      25.964273      136.8402     
-807629.77      2.9470072      35.087502      25.99219       136.36164    
-807604.12      3.7503559      37.59097       25.988756      135.88425    
-807594.52      3.9105923      39.321024      26.004804      135.40748    
-807610.75      3.7518664      37.429369      25.989789      134.93217    
-807632.12      3.2504629      35.180225      25.9611        134.45866    
-807639.4       3.0865983      35.888812      25.974871      133.98577    
-807644.48      3.4254724      37.264949      26.003345      133.5131     
-807650.28      4.1567149      35.543504      25.992332      133.04171    
-807640.57      3.7853623      34.899029      25.964122      132.57201    
-807622.01      3.3693191      34.553381      25.922615      132.10431    
-807601.89      3.8047051      36.922211      25.91713       131.63766    
-807603.93      3.4688922      37.791426      25.917693      131.17186    
-807613.72      3.1449087      36.44364       25.916895      130.70695    
-807626.22      2.7225547      34.579874      25.903532      130.24323    
-807636.71      3.5639086      36.164748      25.887248      129.78075    
-807650.81      2.8836236      35.710075      25.925131      129.31814    
-807645.69      3.029844       35.725114      25.940142      128.85597    
-807634.84      3.7766388      34.976353      25.951219      128.39434    
-807618.54      4.2130823      36.647462      26.004001      127.93225    
-807611.63      3.2134268      37.380244      25.918345      127.473      
-807602.51      3.2740137      38.561313      25.930201      127.01424    
-807609.97      3.2877592      36.670056      25.941556      126.55596    
-807626.57      3.5064962      35.41037       25.966458      126.09785    
-807643.35      2.6907735      35.259874      25.919138      125.64157    
-807646.96      2.9577588      35.901356      25.889373      125.1867     
-807640.71      4.0247929      36.300119      25.973848      124.7306     
-807633.46      3.5608972      35.282319      25.956652      124.27559    
-807624.68      3.0820688      34.747784      25.977618      123.82083    
-807609.36      4.0556873      37.606005      25.994989      123.36637    
-807600.58      4.1010646      37.921873      25.915403      122.91435    
-807613.01      4.1999487      36.499808      25.908838      122.46312    
-807632.09      3.2293292      34.857916      25.938281      122.01189    
-807643.09      3.0739428      35.000018      25.953571      121.56098    
-807642         3.7533059      36.501412      25.947917      121.11083    
-807643.24      3.4263941      35.022116      25.965544      120.66093    
-807638.1       3.6067454      34.943818      25.972454      120.21151    
-807621.37      3.0907646      36.656916      25.97874       119.76258    
-807604.27      3.5114224      38.323308      25.990463      119.31401    
-807605.33      3.9625052      37.876889      25.929389      118.8673     
-807618.13      3.4797875      36.615635      25.921897      118.42131    
-807632.08      3.2379147      34.995708      25.927576      117.97577    
-807637.55      3.4219219      36.308506      25.920742      117.53093    
-807646.82      3.289584       35.413255      25.934875      117.08635    
-807645.42      2.8055249      35.340811      25.938539      116.64226    
-807633.92      3.670018       34.702465      25.937346      116.19872    
-807615.96      3.4639644      35.685274      25.926647      115.75593    
-807609.42      2.9643524      36.068781      26.009788      115.31207    
-807611.8       3.6667559      36.408316      25.986105      114.8692     
-807619.05      3.155783       34.961426      25.897634      114.42851    
-807629.39      3.4398397      34.992479      25.978707      113.98681    
-807643.52      2.9063569      34.316913      25.951835      113.54611    
-807649.52      3.8427803      35.299513      25.914784      113.10658    
-807639.31      3.316711       35.115878      25.934273      112.66718    
-807629.65      4.1928373      35.621683      25.969915      112.22761    
-807619.9       3.4280195      35.474597      25.954507      111.78879    
-807611.95      2.9320248      36.40465       25.909668      111.35124    
-807606.6       3.8276949      36.659974      25.936895      110.91366    
-807619.98      3.7808965      34.381721      25.975328      110.47587    
-807633.57      3.1703235      35.018318      25.93604       110.03921    
-807647.09      3.6239868      34.504959      25.91812       109.6033     
-807640.87      4.0617514      35.892071      25.925384      109.16769    
-807637.68      3.601222       34.700862      26.023927      108.73086    
-807630.27      4.028199       35.503461      26.017756      108.29457    
-807618.92      4.2040521      34.873489      25.989359      107.85919    
-807604.67      3.6553701      36.402711      25.953091      107.42483    
-807607.44      4.1944354      36.867727      25.979174      106.99047    
-807621.78      3.8589755      35.081677      25.98868       106.55636    
-807635.99      3.1072878      34.821629      26.05634       106.12158    
-807640.09      3.1445208      35.594644      26.084051      105.68678    
-807639.87      3.6696886      36.644497      26.077429      105.25252    
-807640.95      4.7397807      35.801765      26.137705      104.81773    
-807627.65      3.2696731      35.818395      26.119658      104.38365    
-807613.36      3.8743988      37.257412      26.172574      103.94919    
-807605.25      3.0612646      37.651305      26.05642       103.51691    
-807613.42      3.604529       37.815024      26.035762      103.08533    
-807621.95      3.4892008      36.42962       26.103216      102.65313    
-807631.3       2.8752567      35.64839       26.125296      102.22099    
-807639.22      5.5115082      36.372901      26.116747      101.78938    
-807643.3       3.4642828      36.158967      26.105819      101.35831    
-807637.45      4.0025513      36.157314      26.142936      100.92709    
-807625.29      3.3479103      34.905018      26.147658      100.49619    
-807613.33      5.7030521      37.400233      26.085886      100.06655    
-807612.03      4.4779657      37.56313       26.069282      99.637499    
-807612.16      5.3967887      37.76423       26.134953      99.207889    
-807620.88      3.7196206      36.232803      26.144502      98.778512    
-807633.06      4.7883015      36.485903      26.121984      98.349807    
-807643         3.4949776      36.235091      26.079053      97.922044    
-807639.96      4.5245239      36.649095      26.101431      97.494318    
-807632.62      3.4053444      35.869759      26.136465      97.066463    
-807624.33      4.8327886      35.373608      26.11276       96.63927     
-807617.2       3.7723463      36.655172      26.081932      96.21282     
-807609.28      4.6515056      36.835618      26.039754      95.787252    
-807612.92      4.8617093      36.789369      26.05559       95.36179     
-807624.74      3.9888223      35.934304      26.048768      94.93673     
-807639.34      3.7527313      35.084154      26.097015      94.51136     
-807641.77      3.6312844      35.958984      26.106337      94.086185    
-807638.99      3.2111654      36.132057      26.076673      93.661698    
-807633.25      3.7914488      35.521173      26.071968      93.237574    
-807628.23      4.1368206      35.459458      26.08167       92.813628    
-807613.3       3.3432673      36.666758      26.083932      92.389952    
-807607.39      3.9857281      37.636998      26.093168      91.96646     
-807616.68      3.5189971      36.414614      26.163395      91.542412    
-807630.04      3.2852437      35.555584      26.167809      91.118616    
-807638.42      3.6265456      35.007725      26.16724       90.695128    
-807638.23      3.6033436      36.554027      26.10311       90.272695    
-807643.3       3.5646388      35.232599      26.112012      89.85044     
-807636.57      3.5816642      35.160647      26.115193      89.42843     
-807622.59      3.3970553      36.186883      26.122359      89.006617    
-807609.84      3.7322155      36.47079       26.132171      88.584969    
-807612.63      4.3679382      36.872679      26.063805      88.164374    
-807617.69      3.8914944      35.944616      26.0855        87.743794    
-807629.42      3.7821745      34.608956      26.113993      87.323159    
-807634.45      4.7022087      36.304678      26.101283      86.90293     
-807642.68      4.537977       35.554937      26.070382      86.483299    
-807639.49      3.4752857      36.092052      26.021302      86.064457    
-807633.26      3.264359       35.475267      26.050802      85.645534    
-807618.53      4.2458659      36.340663      26.084702      85.226489    
-807613.57      4.7311041      37.971896      26.063126      84.807921    
-807613.57      2.9030522      36.864047      26.082806      84.389384    
-807617.08      3.3141138      36.438018      26.092664      83.970984    
-807624.76      2.8939627      35.966059      26.073943      83.55302     
-807637.9       3.1477338      35.576948      26.056107      83.135473    
-807639.83      4.4332649      36.400416      26.03936       82.718327    
-807636.6       3.2331411      35.742701      26.004222      82.301762    
-807629.32      4.1324857      35.849802      26.037149      81.88508     
-807619.46      3.5802632      37.262606      26.091651      81.468073    
-807615.95      3.3609696      37.644347      26.113969      81.051072    
-807609.68      3.1806444      37.249924      26.144305      80.634002    
-807618.07      4.3386518      36.274143      26.159605      80.217013    
-807629.35      3.4453442      36.089349      26.136846      79.800473    
-807637.67      3.3123779      37.437226      26.101021      79.384498    
-807637.41      3.968141       36.814547      26.10896       78.968665    
-807637         3.4634811      36.246616      26.137395      78.552779    
-807629.46      3.502516       36.036658      26.16372       78.136868    
-807620.46      3.176725       36.796952      26.124976      77.721532    
-807609.35      3.6772476      37.779631      26.159609      77.306092    
-807611.93      3.3937227      36.564921      26.136116      76.891079    
-807620.37      2.9606319      36.390246      26.070795      76.476863    
-807632.27      3.2774806      35.772498      26.086836      76.062701    
-807635.82      2.9799317      36.561099      26.0589        75.648983    
-807639.49      3.8260232      35.664721      26.071412      75.235347    
-807636.74      3.4643835      35.792607      26.087843      74.82176     
-807629.89      3.0056347      35.448478      26.082454      74.408411    
-807616.79      3.1739574      36.003719      26.129853      73.994847    
-807610.81      3.3334518      35.920508      26.134117      73.581441    
-807615.05      3.2390798      36.180194      26.064018      73.168819    
-807625.08      3.6972174      35.857328      25.982912      72.757056    
-807630.09      3.1178511      35.716862      26.059697      72.344825    
-807636.28      3.9172165      36.313897      26.0652        71.932725    
-807641.46      3.0179243      35.331697      26.064568      71.520808    
-807636.27      4.0646207      35.892715      26.068896      71.10903     
-807625.11      3.5275447      35.545664      26.087796      70.697276    
-807617.74      4.0427151      35.764356      26.083485      70.28573     
-807616.51      3.2221102      36.089175      26.076944      69.874409    
-807615.47      4.5974388      37.107822      26.040459      69.463542    
-807624.07      3.4913354      35.457951      26.071578      69.052599    
-807629.47      5.5617778      36.318451      26.095103      68.641642    
-807641.24      3.1670884      35.624261      26.126106      68.230619    
-807637.52      4.226044       36.019039      26.142148      67.819647    
-807633.17      3.0561655      35.898236      26.150193      67.408787    
-807624.67      4.467842       36.134861      26.146703      66.998123    
-807618.99      2.8353563      36.41012       26.140091      66.587676    
-807614.3       3.0429235      36.855073      26.057282      66.177995    
-807613.86      3.7096459      37.59901       26.059488      65.768452    
-807626.23      3.4447808      35.313281      26.109322      65.358708    
-807633.93      3.4282794      35.367259      26.123274      64.949024    
-807637.8       2.932451       34.618719      26.137404      64.539401    
-807636.64      3.2977753      35.47761       26.157464      64.129798    
-807633.05      3.631739       35.310098      26.101787      63.720735    
-807625.51      3.1141149      36.06415       26.105199      63.311802    
-807617.67      2.9963376      36.406054      26.083713      62.903163    
-807610.27      3.8734235      37.168944      26.073624      62.494739    
-807618.91      2.9750949      36.26969       26.097329      62.086302    
-807627.22      3.8402733      35.125598      25.991788      61.678704    
-807632.74      3.2585031      35.520233      26.141317      61.270268    
-807635.98      3.3901015      35.599765      26.103243      60.862224    
-807639.18      3.778701       35.317014      26.062282      60.454583    
-807632.15      3.6276551      35.60666       26.007137      60.047428    
-807623.51      3.0154806      35.679974      26.00391       59.640422    
-807613.82      4.0080744      36.823524      26.009333      59.233511    
-807612.93      3.8332314      37.810665      25.99553       58.826811    
-807620.04      3.56255        36.753593      26.033007      58.420007    
-807627.02      3.4043929      35.923413      26.089436      58.012992    
-807633.22      3.6155955      36.252177      26.092711      57.60609     
-807638.52      3.6996905      36.38009       26.05411       57.199548    
-807638.88      4.565045       35.494582      26.069034      56.793046    
-807628.56      4.2474788      36.056778      26.074546      56.38664     
-807620.37      3.8622444      36.884493      26.069233      55.980392    
-807615.41      4.3933962      37.526325      26.100379      55.574093    
-807614.06      3.7703033      37.509972      26.146931      55.167661    
-807618.47      2.9303987      37.203412      26.166302      54.761255    
-807627.95      3.4778667      36.211848      26.149553      54.355074    
-807633.51      3.7146867      37.711926      26.109098      53.949242    
-807637.39      3.7279405      36.819081      26.087002      53.543653    
-807635.63      2.966661       36.297454      26.102924      53.138101    
-807628.96      4.4292171      37.280689      26.088608      52.732746    
-807621.97      3.8944383      37.182417      26.053949      52.327692    
-807616.09      3.7329852      37.646475      26.058103      51.922731    
-807614.25      2.7715296      36.996349      26.111221      51.517613    
-807618.61      3.3546997      36.798055      26.128661      51.112527    
-807629.64      3.0163104      35.786272      26.082825      50.707789    
-807635.91      3.6456533      36.104371      26.049697      50.303329    
-807637.04      3.7661787      36.21345       26.030238      49.899075    
-807635.66      3.9400038      35.851806      26.028861      49.494934    
-807630.03      3.3875344      36.242384      26.030777      49.09089     
-807622.96      3.4435104      36.071366      26.087933      48.68668     
-807612.91      3.7135414      37.249297      26.107608      48.282487    
-807615.81      3.4799142      36.964673      26.126325      47.87832     
-807620.98      5.7345007      37.543073      26.074         47.474504    
-807627.93      3.2403935      37.238751      26.084754      47.070746    
-807633.39      3.9925511      36.719989      26.030858      46.667337    
-807638.13      3.8446865      36.571969      26.014721      46.2641      
-807635.96      3.4192719      36.214494      26.025776      45.860913    
-807628.37      4.0033304      36.44274       26.056562      45.457689    
-807619.45      4.1114372      36.87163       26.113207      45.054323    
-807614.94      3.1079243      37.071667      26.176075      44.650797    
-807616.43      3.7690152      37.077963      26.136035      44.247548    
-807623.92      2.8882662      36.309504      26.078663      43.844642    
-807629.07      3.8266524      36.170747      26.059023      43.441917    
-807635.79      3.119604       34.949023      26.053096      43.039312    
-807640.23      3.170839       34.991749      26.057429      42.636785    
-807635.59      3.1184662      34.67326       26.088741      42.23423     
-807626.06      3.9910368      35.442045      26.087064      41.831779    
-807619.12      3.1555957      35.571996      26.103871      41.429359    
-807616.2       5.0512312      36.998335      26.099142      41.027055    
-807614.68      3.6825885      37.329148      26.001913      40.625215    
-807623.16      4.2764216      35.725457      25.97749       40.223552    
-807628.73      3.5950592      36.875469      26.004728      39.821872    
-807637.87      4.0764168      36.120079      26.055779      39.420092    
-807637.34      3.7293662      36.168609      26.000836      39.018598    
-807632.83      3.3205246      35.774         26.010978      38.617153    
-807627.72      3.5060221      35.464989      26.109512      38.215447    
-807619.42      3.7964072      37.024314      26.098947      37.813869    
-807615.22      4.302711       36.481014      26.059834      37.412516    
-807617.14      3.0969307      35.993854      26.04269       37.011307    
-807622.27      3.7649939      35.933889      26.085001      36.610041    
-807631.1       3.4350599      35.366766      26.072205      36.208906    
-807635.87      4.4193778      35.96607       26.092136      35.807791    
-807635.39      3.5937262      36.40677       26.09887       35.406742    
-807632.54      4.1315391      36.30406       26.0879        35.005815    
-807627.47      3.9912467      35.457902      26.063207      34.605049    
-807619.85      3.3335041      36.356395      26.07286       34.204336    
-807614.5       3.8258879      36.773238      26.061314      33.803741    
-807617.94      2.9183797      36.484201      26.06166       33.403226    
-807625.42      3.5785507      35.435998      26.070762      33.002765    
-807629.48      2.9811872      36.192656      26.079509      32.602359    
-807635.95      3.7455616      35.632492      26.080734      32.202031    
-807636.1       3.078297       35.79147       26.081342      31.801782    
-807632.87      4.5396145      35.887886      26.115508      31.401518    
-807624.51      3.8151986      35.556438      26.111174      31.001349    
-807618.39      5.5926532      37.457894      26.083718      30.601334    
-807615.88      3.2008972      36.812948      26.074014      30.201423    
-807620.27      4.2093567      36.083604      26.122955      29.801463    
-807625.84      3.3649701      35.916713      26.113684      29.401607    
-807633.07      4.7359401      35.168474      26.149815      29.001739    
-807636.72      3.6857578      35.825205      26.127617      28.602008    
-807635.75      3.9151954      36.228275      26.038361      28.202573    
-807628.69      4.4770344      36.148207      26.0565        27.803166    
-807624.14      3.167308       35.410966      26.00853       27.403945    
-807617.4       3.9925386      36.397331      25.984755      27.004847    
-807615.37      3.4180975      37.666745      25.992723      26.605797    
-807619.35      3.4417823      36.02075       26.022333      26.206747    
-807626.26      3.0885497      36.091926      26.054912      25.807693    
-807633.94      4.0056248      35.455243      26.049627      25.40872     
-807633.62      3.455239       37.299476      25.992223      25.009938    
-807634.27      4.2312762      36.315584      26.037898      24.611125    
-807628.69      4.1419756      36.467952      26.080896      24.212291    
-807624.38      4.3488569      36.342184      26.060873      23.813567    
-807617.54      3.4090891      36.684765      26.062875      23.414908    
-807616.26      3.5899844      36.968421      26.06352       23.016315    
-807619.75      3.7921216      36.321235      26.050442      22.617814    
-807627.67      3.8190994      36.420311      26.058526      22.219364    
-807634.15      4.0549388      36.037345      26.060631      21.820976    
-807634.84      3.0608639      36.313369      26.107894      21.42257     
-807634.5       4.1111858      35.943618      26.120821      21.024211    
-807629.38      2.9992799      36.380145      26.120954      20.62592     
-807623.09      3.4589975      35.88705       26.107632      20.22772     
-807617.9       3.5534208      36.283926      26.152586      19.829515    
-807615.84      3.4398367      36.692303      26.133412      19.43141     
-807622.57      2.9960593      36.372798      26.104919      19.033418    
-807626.83      3.4012189      36.217203      26.084408      18.635523    
-807632.85      4.5794817      36.761703      26.095056      18.237677    
-807635.75      3.5271092      36.202003      26.051475      17.839958    
-807633.89      3.5753603      35.744397      26.077334      17.442263    
-807626.44      3.9970876      36.505485      26.122984      17.044567    
-807621.02      3.8285805      36.408869      26.130011      16.646927    
-807616.83      4.7085056      38.131207      26.095247      16.249398    
-807617.27      3.8752038      36.893114      26.116923      15.851903    
-807621.59      3.748741       36.585063      26.14433       15.454437    
-807629.28      3.6426271      36.45507       26.085477      15.057108    
-807634.59      2.9600365      35.837745      25.998647      14.659941    
-807635.78      2.7385102      35.967983      25.989737      14.262838    
-807631.92      4.0573759      36.114961      26.071323      13.865697    
-807627.85      3.3606879      35.572609      26.114651      13.468569    
-807620.16      3.1236814      36.276248      26.026576      13.071593    
-807617.49      3.3942408      36.057393      26.001588      12.674696    
-807617.36      2.9006838      36.514109      26.045661      12.27781     
-807623.9       3.3608466      36.153332      26.051551      11.880972    
-807630.94      2.9200742      35.159944      26.009722      11.484228    
-807633.47      2.9314596      35.834988      26.031256      11.087517    
-807634.55      2.793088       35.346448      26.025379      10.690864    
-807630.49      4.090651       35.633033      26.044941      10.294247    
-807626.13      3.8534805      35.818959      26.165395      9.8975912    
-807618.04      3.9970878      36.569047      26.206408      9.5009657    
-807616.59      3.7194419      36.182341      26.251361      9.1043717    
-807617.1       4.2483654      36.967295      26.237565      8.7078524    
-807625.54      4.6446434      36.189849      26.23035       8.311402     
-807630.53      5.0838298      35.979021      26.258881      7.9149977    
-807630.93      4.7171778      36.907261      26.26842       7.5186528    
-807634.59      5.4683263      36.823491      26.242282      7.122387     
-807629.59      4.0232951      36.218769      26.238449      6.7261861    
-807624.13      3.8278047      36.203703      26.238781      6.3300473    
-807618.07      3.7911367      36.528419      26.235002      5.9339722    
-807618.07      3.4587075      36.578511      26.237209      5.5379575    
-807617.8       3.3564338      36.933565      26.240979      5.1420025    
-807624.6       3.550114       36.13567       26.248541      4.7461056    
-807630.47      3.6956705      36.097443      26.232186      4.3502752    
-807633.72      2.8991958      35.497763      26.192222      3.9545163    
-807633.01      2.9816289      35.658033      26.146025      3.5588267    
-807628.78      3.5589211      35.869952      26.141237      3.1631919    
-807622.89      3.5700911      35.875342      26.183275      2.7676016    
-807619.31      2.7645569      35.739224      26.211311      2.3720617    
-807617.71      3.1557763      36.60366       26.245928      1.9765733    
-807619.66      2.9867868      36.34281       26.256257      1.5811421    
-807626.62      4.3701509      35.569157      26.270126      1.1857683    
-807631.92      3.3152926      35.493904      26.240685      0.79045528   
-807635.97      3.7076469      34.934075      26.255227      0.39519888   
-807632.03      3.9654502      35.48975       26.239868      0            
Loop time of 197.587 on 32 procs for 5000 steps with 1080 atoms

Performance: 4.373 ns/day, 5.489 hours/ns, 25.305 timesteps/s, 27.330 katom-step/s
67.7% CPU use with 32 MPI tasks x 1 OpenMP threads

MPI task timing breakdown:
Section |  min time  |  avg time  |  max time  |%varavg| %total
---------------------------------------------------------------
Pair    | 101.63     | 144.39     | 191.73     | 305.7 | 73.08
Neigh   | 0          | 0          | 0          |   0.0 |  0.00
Comm    | 3.2927     | 50.67      | 93.472     | 516.4 | 25.64
Output  | 0.037951   | 0.044454   | 0.045815   |   0.6 |  0.02
Modify  | 2.0913     | 2.1407     | 2.1843     |   2.4 |  1.08
Other   |            | 0.3393     |            |       |  0.17

Nlocal:          33.75 ave          48 max          21 min
Histogram: 8 8 0 0 0 0 0 8 0 8
Nghost:        1106.25 ave        1119 max        1092 min
Histogram: 8 0 8 0 0 0 0 0 8 8
Neighs:              0 ave           0 max           0 min
Histogram: 32 0 0 0 0 0 0 0 0 0
FullNghs:       5494.5 ave        7896 max        3378 min
Histogram: 8 8 0 0 0 0 0 8 0 8

Total # of neighbors = 175824
Ave neighs/atom = 162.8
Neighbor list builds = 0
Dangerous builds = 0

reset_timestep 0


variable interval equal 1000
thermo 10

variable nintervals equal $(v_PERIOD/v_interval)
variable nintervals equal 100
variable efield equal 1e-2*36.36*cos((step/${PERIOD})*2*3.14)
variable efield equal 1e-2*36.36*cos((step/100000)*2*3.14)
fix born all addbornforce 0.0 0.0 v_efield

variable Px equal f_born[1]+c_polarization[1]
variable Py equal f_born[2]+c_polarization[2]
variable Pz equal (f_born[3]+c_polarization[3])/vol
variable pe equal pe

fix aveP all ave/time 1 $(v_interval/2) ${interval} v_efield v_Pz v_pe f_born file Pz.${MODEL}.${STRUCTURE}.${TEMP}.$L.${ITER}
fix aveP all ave/time 1 500 ${interval} v_efield v_Pz v_pe f_born file Pz.${MODEL}.${STRUCTURE}.${TEMP}.$L.${ITER}
fix aveP all ave/time 1 500 1000 v_efield v_Pz v_pe f_born file Pz.${MODEL}.${STRUCTURE}.${TEMP}.$L.${ITER}
fix aveP all ave/time 1 500 1000 v_efield v_Pz v_pe f_born file Pz.BaTiO3-E0.${STRUCTURE}.${TEMP}.$L.${ITER}
fix aveP all ave/time 1 500 1000 v_efield v_Pz v_pe f_born file Pz.BaTiO3-E0.BaTiO3-sc333.${TEMP}.$L.${ITER}
fix aveP all ave/time 1 500 1000 v_efield v_Pz v_pe f_born file Pz.BaTiO3-E0.BaTiO3-sc333.340.$L.${ITER}
fix aveP all ave/time 1 500 1000 v_efield v_Pz v_pe f_born file Pz.BaTiO3-E0.BaTiO3-sc333.340.2.${ITER}
fix aveP all ave/time 1 500 1000 v_efield v_Pz v_pe f_born file Pz.BaTiO3-E0.BaTiO3-sc333.340.2.0

thermo_style custom step time temp press pe f_born v_efield v_Pz spcpu cpuremain

# dump 4a all custom 1000 dump.hyst.${MODEL}.${STRUCTURE}.${TEMP}.$L.${ITER}.bin id type xu yu zu fx fy fz
# dump_modify 4a sort id

fix nvt all nvt temp ${TEMP} ${TEMP} $(100*dt)
fix nvt all nvt temp 340 ${TEMP} $(100*dt)
fix nvt all nvt temp 340 340 $(100*dt)
fix nvt all nvt temp 340 340 0.2000000000000000111

run $(v_PERIOD)
run 100000
WARNING: non-constant efield is experimental, strongly distrust scalar/vector output (src/fix_addbornforce.cpp:193)
Per MPI rank memory allocation (min/avg/max) = 3.516 | 3.516 | 3.516 Mbytes
   Step          Time           Temp          Press          PotEng         f_born        v_efield         v_Pz          S/CPU         CPULeft    
         0   0              323.482        130015.26     -807632.03     -296.05647      0.3636         0.055679869    0              0            
        10   0.02           335.17033      133272.84     -807628.04     -301.69797      0.36359993     0.056740886    29.803139      3355.0346    
        20   0.04           331.38301      137788.49     -807622.82     -306.36351      0.36359971     0.057618378    29.826457      3353.3804    
        30   0.06           345.09846      140629.35     -807620.85     -310.24963      0.36359935     0.058349305    29.865633      3351.1371    
        40   0.08           338.51217      141072.48     -807618.69     -311.48182      0.36359885     0.058581126    29.801327      3351.6547    
        50   0.1            341.21568      139225.02     -807621.75     -308.75644      0.36359821     0.058068661    29.755195      3352.871     
        60   0.12           341.73295      133377.86     -807629.19     -301.35089      0.36359742     0.056676003    29.786801      3352.9759    
        70   0.14           330.66208      130133.74     -807632.65     -296.24633      0.36359649     0.055716114    29.790223      3352.8997    
        80   0.16           325.15707      129080.76     -807632.9      -295.18397      0.36359541     0.055516476    29.818631      3352.3593    
        90   0.18           331.50163      130575.21     -807631.2      -297.7287       0.36359419     0.055995262    29.816104      3351.896     
       100   0.2            341.43823      133892.25     -807628.72     -301.49019      0.36359283     0.056702915    29.864375      3350.9168    
       110   0.22           334.69219      138700.88     -807622.31     -306.86451      0.36359132     0.057713932    29.8333        3350.3714    
       120   0.24           346.1456       141523.28     -807618.56     -312.04551      0.36358968     0.058688623    29.79052       3350.2618    
       130   0.26           334.10043      141156.71     -807617.42     -311.37542      0.36358788     0.058562883    29.738039      3350.5723    
       140   0.28           349.9348       137913.16     -807624.18     -306.58146      0.36358595     0.057661551    29.773144      3350.5081    
       150   0.3            342.26534      133254.43     -807628.35     -301.08342      0.36358387     0.056627808    29.747634      3350.5987    
       160   0.32           342.53776      131139.21     -807631.28     -297.9225       0.36358165     0.056033644    29.737903      3350.7049    
       170   0.34           331.05737      129438.43     -807632.4      -295.00188      0.36357928     0.055484693    29.740633      3350.7409    
       180   0.36           354.9832       132046.51     -807633.89     -296.45448      0.36357677     0.055758286    29.764479      3350.5862    
       190   0.38           345.58946      134385.12     -807627.04     -301.72927      0.36357412     0.056750801    29.794159      3350.2366    
       200   0.4            350.60076      140086.87     -807620.81     -308.32234      0.36357132     0.057991306    29.832964      3349.6705    
       210   0.42           346.49749      140763.59     -807618.07     -310.26466      0.36356838     0.058357103    29.846073      3349.0563    
       220   0.44           349.89532      141340.64     -807618.94     -309.48551      0.3635653      0.058211047    29.838404      3348.5069    
       230   0.46           352.86138      137745.7      -807622.63     -305.93412      0.36356207     0.057543578    29.851337      3347.9129    
       240   0.48           341.12399      135186.24     -807624.47     -302.17986      0.3635587      0.056837962    29.866244      3347.271     
       250   0.5            350.63675      130236.46     -807631.62     -296.16234      0.36355519     0.055706645    29.849514      3346.7286    
       260   0.52           347.19189      129809.47     -807632.51     -294.55339      0.36355153     0.055404566    29.806744      3346.3865    
       270   0.54           361.27597      130748.39     -807632.17     -296.80167      0.36354773     0.055828045    29.824376      3345.9718    
       280   0.56           346.16442      136678.08     -807623.1      -303.64738      0.36354379     0.057116334    29.831199      3345.5354    
       290   0.58           357.51489      138431.81     -807621.54     -306.7363       0.3635397      0.057698012    29.831628      3345.1041    
       300   0.6            357.49038      140641.9      -807619.19     -309.05304      0.36353547     0.058134474    29.773522      3344.8968    
       310   0.62           359.95392      140416.2      -807619.2      -309.40074      0.3635311      0.058200578    29.742833      3344.7926    
       320   0.64           358.80576      137502.16     -807622.03     -306.49008      0.36352658     0.057653778    29.765766      3344.5932    
       330   0.66           353.83058      133654.81     -807626.96     -300.95975      0.36352192     0.056614194    29.748215      3344.4454    
       340   0.68           347.79253      131487.03     -807630.66     -296.54306      0.36351712     0.055784099    29.708847      3344.4171    
       350   0.7            353.16379      131112.22     -807631.64     -296.48638      0.36351217     0.055774194    29.652888      3344.552     
       360   0.72           346.91679      131673.27     -807627.52     -299.93813      0.36350708     0.056424319    29.638323      3344.7066    
       370   0.74           345.01398      137069.76     -807624.16     -303.21122      0.36350185     0.057040873    29.703115      3344.6364    
       380   0.76           344.70836      138538.88     -807622.01     -305.57103      0.36349647     0.057485656    29.758627      3344.3875    
       390   0.78           344.33863      141284.1      -807618.15     -309.55528      0.36349095     0.058236079    29.790632      3344.042     
       400   0.8            350.16212      139200.31     -807620.11     -308.74451      0.36348529     0.058084456    29.857761      3343.5091    
       410   0.82           353.25088      137700.2      -807624.14     -305.2435       0.36347948     0.057426724    29.874968      3342.9388    
       420   0.84           343.42718      132201.17     -807629.47     -298.82296      0.36347353     0.056219721    29.792863      3342.5986    
       430   0.86           346.50381      132498.99     -807630.65     -298.20738      0.36346744     0.056104848    29.792274      3342.2601    
       440   0.88           341.19788      129904.77     -807631.04     -297.39643      0.3634612      0.055953237    29.829117      3341.8279    
       450   0.9            348.01947      134311.14     -807628.88     -300.59279      0.36345482     0.056555603    29.837707      3341.3787    
       460   0.92           337.9507       134665.13     -807626.89     -301.42999      0.3634483      0.056714139    29.806197      3341.0112    
       470   0.94           354.28261      140343.32     -807622.41     -308.20137      0.36344163     0.05798924     29.797141      3340.6666    
       480   0.96           328.2737       138497.1      -807618.08     -309.16178      0.36343482     0.058171035    29.820978      3340.2666    
       490   0.98           351.76045      140906.59     -807621.66     -308.73246      0.36342786     0.058091366    29.868156      3339.7619    
       500   1              339.92686      134443.56     -807626.29     -302.66288      0.36342077     0.056950421    29.801284      3339.4134    
       510   1.02           343.01351      135372.65     -807626.85     -9678.5138      0.36341353     0.056912168    29.680592      3339.3315    
       520   1.04           341.67976      129793.88     -807631.82     -9517.4013      0.36340614     0.055965921    29.731518      3339.1296    
       530   1.06           329.14788      132282.2      -807629.26     -9541.1087      0.36339862     0.056106492    29.729074      3338.9276    
       540   1.08           342.0847       131869.66     -807630.9      -9551.0562      0.36339095     0.056166174    29.722964      3338.7335    
       550   1.1            349.40681      136946.55     -807625.28     -9762.8182      0.36338313     0.057412701    29.742759      3338.4937    
       560   1.12           340.93236      137751.63     -807621.51     -9850.7123      0.36337518     0.057930852    29.787142      3338.1614    
       570   1.14           339.33555      141513.82     -807619.89     -9893.7687      0.36336707     0.058185359    29.822792      3337.7591    
       580   1.16           329.14249      137433.5      -807622.41     -9771.0086      0.36335883     0.05746471     29.869571      3337.2691    
       590   1.18           346.91904      136730.6      -807625.12     -9764.1947      0.36335044     0.057425962    29.758064      3336.9956    
       600   1.2            335.43226      133159.03     -807627.56     -9638.6557      0.36334191     0.056688962    29.668323      3336.8886    
       610   1.22           334.18379      131991.5      -807630.8      -9527.2163      0.36333324     0.056034878    29.640679      3336.8251    
       620   1.24           341.99057      131589.39     -807633.23     -9484.4393      0.36332442     0.055784636    29.629871      3336.7726    
       630   1.26           339.18628      133109.3      -807628.75     -9618.8466      0.36331546     0.056576575    29.644913      3336.684     
       640   1.28           342.89892      136599.27     -807624.83     -9760.9166      0.36330636     0.057413648    29.709494      3336.4738    
       650   1.3            344.07565      137142.14     -807624.37     -9783.3515      0.36329711     0.057547074    29.675511      3336.3186    
       660   1.32           336.86134      140145.19     -807620.74     -9866.3329      0.36328772     0.058036683    29.670075      3336.1672    
       670   1.34           340.76687      137238        -807623.39     -9803.121       0.36327819     0.057666365    29.642268      3336.0572    
       680   1.36           341.62705      138078.9      -807623.86     -9791.1945      0.36326851     0.057597742    29.653054      3335.9225    
       690   1.38           340.54131      130989.25     -807630.69     -9571.4217      0.36325869     0.056306428    29.681207      3335.7359    
       700   1.4            339.32772      132980.22     -807630.36     -9571.7068      0.36324873     0.056309649    29.717128      3335.4873    
       710   1.42           325.42372      130022.73     -807630.03     -9527.7166      0.36323863     0.056052417    29.708175      3335.2503    
       720   1.44           338.35529      135300.48     -807627.17     -9673.9496      0.36322838     0.056914325    29.75321       3334.9404    
       730   1.46           331.4109       133815.47     -807625.65     -9696.5388      0.36321798     0.057048856    29.77177       3334.6012    
       740   1.48           337.8129       139556.19     -807621.68     -9849.223       0.36320745     0.057948842    29.789931      3334.2347    
       750   1.5            342.72652      137178.72     -807623.47     -9816.6977      0.36319677     0.057759175    29.788456      3333.8711    
       760   1.52           349.46661      139081.39     -807623.61     -9838.4581      0.36318595     0.057888933    29.748296      3333.5675    
       770   1.54           345.36932      133384.17     -807628.44     -9667.6391      0.36317498     0.056885561    29.70322       3333.3288    
       780   1.56           332.31082      134571.78     -807629.11     -9584.2154      0.36316387     0.056396411    29.663553      3333.1449    
       790   1.58           323.66536      130187.89     -807630.25     -9511.9218      0.36315262     0.055972748    29.675388      3332.9401    
       800   1.6            329.20301      134288.43     -807627.9      -9608.1894      0.36314122     0.056541007    29.691837      3332.7089    
       810   1.62           333.3352       132512.52     -807628.5      -9608.7561      0.36312968     0.056546139    29.726413      3332.4272    
       820   1.64           342.15077      137624.89     -807624.46     -9772.4789      0.363118       0.057511474    29.767895      3332.0874    
       830   1.66           342.05143      137097.11     -807623.09     -9816.7469      0.36310618     0.057773875    29.805602      3331.697     
       840   1.68           345.45093      139566.89     -807621.86     -9865.5102      0.36309421     0.058062772    29.78384       3331.3366    
       850   1.7            338.44912      136483.49     -807624.04     -9763.133       0.3630821      0.057462155    29.705402      3331.0804    
       860   1.72           339.13334      136227.97     -807626.39     -9684.6955      0.36306984     0.057002425    29.714883      3330.81      
       870   1.74           334.14394      131933.04     -807629.57     -9558.8237      0.36305745     0.056263487    29.804895      3330.4222    
       880   1.76           332.72724      131784.59     -807629.55     -9547.1024      0.3630449      0.056196436    29.796552      3330.0461    
       890   1.78           356.72149      130698.62     -807633.06     -9536.869       0.36303222     0.056138162    29.75478       3329.7235    
       900   1.8            338.38273      134748.78     -807627.58     -9625.5774      0.36301939     0.05666234     29.742363      3329.4159    
       910   1.82           349.64019      137272.39     -807624.86     -9757.1415      0.36300642     0.057438863    29.732092      3329.1204    
       920   1.84           340.07549      138495.94     -807620.6      -9844.0487      0.36299331     0.057952567    29.694836      3328.8695    
       930   1.86           347.76304      138587.39     -807622.31     -9815.4554      0.36298005     0.057786346    29.673482      3328.6425    
       940   1.88           350.26574      136966.52     -807624.72     -9743.2941      0.36296665     0.05736363     29.672756      3328.4141    
       950   1.9            349.32224      134681.26     -807627.24     -9652.7602      0.36295311     0.056832733    29.666731      3328.1905    
       960   1.92           338.81993      133526.22     -807628.12     -9568.8896      0.36293942     0.05634105     29.634348      3328.0025    
       970   1.94           353.26739      131402.27     -807631.55     -9516.2177      0.36292559     0.056033057    29.666848      3327.7737    
       980   1.96           341.66937      132228.88     -807628.43     -9560.0019      0.36291162     0.056293032    29.650027      3327.5621    
       990   1.98           342.20654      136997.81     -807624.28     -9688.0038      0.3628975      0.057048976    29.692681      3327.2994    
      1000   2              359.37016      136096.36     -807624        -9771.7192      0.36288325     0.057544206    29.583173      3327.1587    
      1010   2.02           344.70447      140369.72     -807619.55     -307.54473      0.36286884     0.057957031    29.810386      3326.7616    
      1020   2.04           358.69736      137819.5      -807623.86     -305.13736      0.3628543      0.057505666    29.805236      3326.3712    
      1030   2.06           355.23435      138190.8      -807622.62     -305.65362      0.36283961     0.05760529     29.847392      3325.9365    
      1040   2.08           350.36104      132978.71     -807627.33     -300.30298      0.36282478     0.056599191    29.846067      3325.5051    
      1050   2.1            349.97698      133981.07     -807628.91     -298.50341      0.3628098      0.05626234     29.798661      3325.1256    
      1060   2.12           344.32766      130877.65     -807631.5      -295.23638      0.36279469     0.055648886    29.806923      3324.7384    
      1070   2.14           347.3709       135362.77     -807626.53     -300.50728      0.36277943     0.056644776    29.801048      3324.3583    
      1080   2.16           350.44123      132983.83     -807626.13     -301.55077      0.36276402     0.056843885    29.778767      3324.0019    
      1090   2.18           364.38056      139693.39     -807623.38     -306.15706      0.36274848     0.057714667    29.816551      3323.6074    
      1100   2.2            353.356        137498.71     -807622.67     -305.55702      0.36273279     0.057604044    29.82368       3323.2067    
      1110   2.22           346.68563      141161.34     -807618.37     -308.95039      0.36271695     0.05824631     29.769677      3322.8613    
      1120   2.24           348.71765      136407.33     -807624.62     -303.24271      0.36270098     0.05717276     29.768811      3322.5171    
      1130   2.26           341.51368      135767.54     -807626.45     -300.53086      0.36268486     0.056663992    29.804504      3322.1377    
      1140   2.28           344.21283      131137.14     -807630.79     -296.83794      0.3626686      0.055970214    29.888095      3321.6777    
      1150   2.3            346.87452      131737.38     -807630.57     -297.69414      0.36265219     0.056134194    29.865808      3321.2414    
      1160   2.32           351.02473      132863.08     -807630.03     -299.18836      0.36263564     0.056418524    29.855165      3320.817     
      1170   2.34           345.1688       135308.73     -807626.97     -301.78365      0.36261895     0.056910542    29.850497      3320.3985    
      1180   2.36           342.53119      138664.89     -807623.2      -305.59145      0.36260212     0.057631295    29.818339      3320.0118    
      1190   2.38           337.29017      139487.77     -807620.36     -308.06158      0.36258514     0.058099855    29.804528      3319.6388    
      1200   2.4            336.63675      139390.57     -807621.09     -307.47606      0.36256802     0.057992166    29.760723      3319.307     
      1210   2.42           337.82578      135051.17     -807626.91     -302.09758      0.36255076     0.05698046     29.806091      3318.9335    
      1220   2.44           338.99242      133928.91     -807628.73     -300.61942      0.36253335     0.056704376    29.79112       3318.5742    
      1230   2.46           336.30168      129103.01     -807632.39     -296.8981       0.3625158      0.056005154    29.812309      3318.1962    
      1240   2.48           340.73323      132463.87     -807631.92     -297.98132      0.36249811     0.056212229    29.823319      3317.809     
      1250   2.5            331.90802      130538.72     -807631.51     -297.438        0.36248028     0.056112497    29.827742      3317.4186    
      1260   2.52           339.20522      137284.73     -807625.71     -304.27235      0.3624623      0.057404662    29.83831       3317.0198    
      1270   2.54           322.86234      137420.73     -807622.28     -305.56907      0.36244418     0.057652187    29.835089      3316.6249    
      1280   2.56           336.37527      141256.43     -807620.81     -308.78014      0.36242592     0.05826096     29.852407      3316.216     
      1290   2.58           326.20222      135899.27     -807624.37     -303.89684      0.36240751     0.057342485    29.85054       3315.8097    
      1300   2.6            339.62781      137262.84     -807625.88     -304.0781       0.36238896     0.057379624    29.849257      3315.4056    
      1310   2.62           339.00304      130570.79     -807631.42     -298.53897      0.36237027     0.056337295    29.837389      3315.0127    
      1320   2.64           330.46539      133189.59     -807630.83     -297.77128      0.36235143     0.056195345    29.81483       3314.6395    
      1330   2.66           329.17148      130025.7      -807632.58     -295.85568      0.36233245     0.055836758    29.832435      3314.2523    
      1340   2.68           341.3898       134314.72     -807629.52     -300.44645      0.36231333     0.056706165    29.82768       3313.8698    
      1350   2.7            332.07696      134851.78     -807625.96     -302.74282      0.36229407     0.05714262     29.827662      3313.4879    
      1360   2.72           318.04938      139643.59     -807619.5      -307.04563      0.36227466     0.057957878    29.771255      3313.1529    
      1370   2.74           336.76156      137976.47     -807623.21     -305.89332      0.36225511     0.057743486    29.768878      3312.8197    
      1380   2.76           332.38676      138251.7      -807622.32     -305.9682       0.36223542     0.05776076     29.78527       3312.4733    
      1390   2.78           335.76833      135122.28     -807625.63     -302.98477      0.36221558     0.05720068     29.8023        3312.1134    
      1400   2.8            339.24147      132276.56     -807629.95     -298.95086      0.3621956      0.056442227    29.835673      3311.7275    
      1410   2.82           344.16568      130896.96     -807633.37     -295.98257      0.36217548     0.055884916    29.859161      3311.3239    
      1420   2.84           335.5535       130293.25     -807631.35     -296.67406      0.36215522     0.056018612    29.852282      3310.9265    
      1430   2.86           342.75817      133779.57     -807628.44     -300.43611      0.36213481     0.056732167    29.848137      3310.5333    
      1440   2.88           328.80469      134514.25     -807624.4      -302.42617      0.36211426     0.057111197    29.84731       3310.1415    
      1450   2.9            336.82545      139344.21     -807621.63     -306.03868      0.36209357     0.057796697    29.860008      3309.7408    
      1460   2.92           334.51506      137444.72     -807622.24     -305.01696      0.36207273     0.057607056    29.841836      3309.3547    
      1470   2.94           346.10934      140586.04     -807621.56     -307.01584      0.36205176     0.057987934    29.80946       3308.9938    
      1480   2.96           337.9727       134448.12     -807626.71     -300.70061      0.36203064     0.056798454    29.747584      3308.6796    
      1490   2.98           350.20278      134216.44     -807630.53     -298.1987       0.36200937     0.056329183    29.698746      3308.4017    
      1500   3              335.05601      129680.97     -807632.07     -294.50872      0.36198796     0.055635442    29.682062      3308.1354    
      1510   3.02           336.91083      134595.46     -807627.58     -9569.1917      0.36196642     0.056494285    29.678998      3307.8705    
      1520   3.04           341.96196      131715.28     -807628.06     -9575.0979      0.36194472     0.056532542    29.700773      3307.5886    
      1530   3.06           335.01804      139814.5      -807622.65     -9706.2077      0.36192289     0.057310087    29.671162      3307.3276    
      1540   3.08           346.23142      136277.8      -807623.47     -9731.481       0.36190091     0.057462802    29.697748      3307.0464    
      1550   3.1            344.8282       141721.96     -807618.14     -9885.8228      0.36187879     0.058377734    29.704587      3306.7595    
      1560   3.12           347.23973      136034.1      -807624.47     -9694.5362      0.36185653     0.057251671    29.753209      3306.4372    
      1570   3.14           338.22776      137249.92     -807625.32     -9619.6637      0.36183412     0.056813024    29.760785      3306.1094    
      1580   3.16           336.87962      130220.02     -807630.11     -9463.7501      0.36181157     0.055895693    29.748659      3305.7901    
      1590   3.18           354.13465      132678.01     -807629.24     -9561.7867      0.36178888     0.056478268    29.779657      3305.4489    
      1600   3.2            349.11176      130330.56     -807631.64     -9465.9755      0.36176605     0.055915873    29.805911      3305.0895    
      1610   3.22           341.30036      135839.54     -807626.08     -9602.4839      0.36174307     0.056725836    29.772685      3304.7533    
      1620   3.24           358.87378      135551.1      -807626.23     -9681.9191      0.36171995     0.057198748    29.762777      3304.424     
      1630   3.26           337.28229      141359.93     -807617.63     -9858.8602      0.36169669     0.058247825    29.774685      3304.0864    
      1640   3.28           340.39972      138391.22     -807621        -9766.5406      0.36167329     0.057706119    29.798256      3303.7329    
      1650   3.3            339.2029       137654.27     -807623.68     -9674.839       0.36164974     0.057168017    29.766334      3303.4011    
      1660   3.32           341.21519      133944.24     -807626.2      -9605.6386      0.36162605     0.056762834    29.72171       3303.0991    
      1670   3.34           344.82585      132358.17     -807628.71     -9546.1623      0.36160222     0.056415088    29.730215      3302.7911    
      1680   3.36           342.16277      131052.16     -807630.53     -9481.1572      0.36157824     0.056034641    29.745174      3302.4727    
      1690   3.38           347.41303      131245.2      -807632.35     -9456.8429      0.36155413     0.055894669    29.789639      3302.125     
      1700   3.4            347.80689      134774.65     -807627.53     -9625.0374      0.36152987     0.0568926      29.816078      3301.7603    
      1710   3.42           333.99914      136848.04     -807622.34     -9745.4554      0.36150546     0.057608267    29.817264      3301.3951    
      1720   3.44           335.59499      139425.98     -807621.67     -9785.4584      0.36148092     0.057848664    29.816525      3301.0307    
      1730   3.46           332.1275       137335.3      -807624.43     -9696.3822      0.36145623     0.057325988    29.772586      3300.6948    
      1740   3.48           339.33254      137103.66     -807625.29     -9710.8547      0.3614314      0.057415495    29.775093      3300.3573    
      1750   3.5            339.40344      132385.09     -807629.29     -9596.4209      0.36140643     0.056742825    29.754272      3300.0329    
      1760   3.52           327.10369      133643.02     -807630.36     -9512.8272      0.36138131     0.056252452    29.717275      3299.7319    
      1770   3.54           339.69996      129118.88     -807636.05     -9396.1338      0.36135605     0.055566289    29.707206      3299.4367    
      1780   3.56           324.76472      134265.53     -807628.3      -9581.1392      0.36133065     0.056664346    29.714173      3299.1368    
      1790   3.58           327.79579      133594.2      -807627.68     -9622.6058      0.36130511     0.05691361     29.69372       3298.8491    
      1800   3.6            333.33754      138106.43     -807625.12     -9727.6231      0.36127942     0.057538833    29.672626      3298.5739    
      1810   3.62           336.0123       136517.96     -807626.6      -9695.9744      0.3612536      0.057355731    29.667898      3298.301     
      1820   3.64           334.62398      138976.67     -807623.58     -9785.4893      0.36122763     0.057889411    29.629398      3298.051     
      1830   3.66           334.6537       135003.28     -807627.17     -9673.4744      0.36120151     0.057230886    29.630091      3297.7996    
      1840   3.68           330.45731      133965.1      -807629.81     -9565.6208      0.36117526     0.056596908    29.678973      3297.5177    
      1850   3.7            323.43975      130420.25     -807632.06     -9462.5243      0.36114886     0.05599101     29.724505      3297.2077    
      1860   3.72           326.46362      131876.16     -807631.09     -9503.587       0.36112232     0.056238116    29.783715      3296.8622    
      1870   3.74           324.20066      132536.27     -807628.94     -9559.762       0.36109564     0.056574715    29.768315      3296.5259    
      1880   3.76           327.24909      135843.83     -807626.74     -9638.4656      0.36106881     0.057044721    29.73524       3296.2091    
      1890   3.78           322.91947      137765.84     -807623.82     -9706.633       0.36104184     0.057452457    29.786367      3295.8621    
      1900   3.8            334.42244      137715.74     -807623.16     -9772.3134      0.36101474     0.057845556    29.855768      3295.475     
      1910   3.82           336.95487      136652.21     -807623.89     -9752.592       0.36098748     0.057733176    29.8101        3295.1147    
      1920   3.84           342.30958      135269.2      -807627.88     -9637.5507      0.36096009     0.057056487    29.757599      3294.785     
      1930   3.86           332.39507      132852.6      -807629.76     -9525.4009      0.36093255     0.056396837    29.769274      3294.4485    
      1940   3.88           338.96998      132174.97     -807631.22     -9498.7605      0.36090487     0.056243421    29.738538      3294.1295    
      1950   3.9            338.52168      131070.39     -807631.8      -9470.6807      0.36087705     0.05608148     29.726382      3293.8173    
      1960   3.92           324.51702      133870.69     -807627.74     -9528.2562      0.36084909     0.056426791    29.772499      3293.4788    
      1970   3.94           334.70566      134204.81     -807626.92     -9594.2232      0.36082098     0.056821877    29.744574      3293.156     
      1980   3.96           337.89335      138793.95     -807622.48     -9738.9884      0.36079273     0.057683766    29.772357      3292.8175    
      1990   3.98           327.90336      138710.13     -807620.92     -9739.6073      0.36076434     0.057691972    29.743357      3292.4952    
      2000   4              352.70629      138625.99     -807624.72     -9717.469       0.36073581     0.05756539     29.724006      3292.1834    
      2010   4.02           343.46697      134213.3      -807627.73     -299.16777      0.36070713     0.056716261    29.77188       3291.8451    
      2020   4.04           354.85526      133231.19     -807630.19     -298.02351      0.36067831     0.056503847    29.768531      3291.5086    
      2030   4.06           333.22253      130756.95     -807630.23     -294.87757      0.36064935     0.05591188     29.786038      3291.1626    
      2040   4.08           335.74886      133517.65     -807629.31     -295.91964      0.36062025     0.056113996    29.822294      3290.797     
      2050   4.1            335.0859       133270.38     -807628.77     -296.38547      0.36059101     0.056206887    29.852195      3290.4157    
      2060   4.12           346.35107      137572.27     -807623.88     -302.59497      0.36056162     0.057389141    29.873677      3290.0235    
      2070   4.14           345.81653      137667.92     -807622.86     -303.50825      0.36053209     0.057567065    29.878321      3289.6293    
      2080   4.16           346.21872      139598.87     -807622.1      -304.16664      0.36050242     0.057696692    29.840573      3289.2556    
      2090   4.18           346.52485      137388.26     -807623.91     -302.34174      0.36047261     0.057355273    29.766409      3288.9214    
      2100   4.2            351.13664      134079.85     -807626.83     -300.01682      0.36044265     0.056918959    29.712348      3288.6157    
      2110   4.22           341.98384      133145.53     -807628.76     -296.69653      0.36041256     0.056293736    29.744148      3288.293     
      2120   4.24           336.31707      130612.69     -807631.37     -293.24318      0.36038232     0.055643183    29.758348      3287.9628    
      2130   4.26           346.03782      132202.57     -807629.77     -296.18598      0.36035193     0.056206321    29.788945      3287.6166    
      2140   4.28           337.93375      133234.82     -807627.37     -297.52937      0.36032141     0.056466035    29.792837      3287.2685    
      2150   4.3            342.07436      139016.42     -807623.37     -302.04283      0.36029075     0.057327493    29.84127       3286.8958    
      2160   4.32           342.75064      136281.19     -807623.88     -301.74352      0.36025994     0.057275581    29.795751      3286.5466    
      2170   4.34           353.43609      140285.84     -807621.61     -305.35096      0.36022899     0.057965309    29.761787      3286.2148    
      2180   4.36           352.39554      134930.26     -807625.64     -301.33449      0.36019789     0.057207792    29.786088      3285.8706    
      2190   4.38           337.73303      137540.25     -807624.42     -300.43886      0.36016666     0.057042705    29.794251      3285.5225    
      2200   4.4            340.22868      129498.24     -807631.48     -293.90341      0.36013528     0.055806717    29.816425      3285.1633    
      2210   4.42           346.90233      132762.7      -807630.92     -295.3392       0.36010377     0.056084253    29.847441      3284.7889    
      2220   4.44           334.46817      130630.05     -807629.99     -294.74512      0.36007211     0.055976362    29.90004       3284.389     
      2230   4.46           342.15872      135876.83     -807626.27     -299.49051      0.3600403      0.056882603    29.854255      3284.0121    
      2240   4.48           347.03666      134238.38     -807628.11     -298.60848      0.36000836     0.05672011     29.829849      3283.6475    
      2250   4.5            343.38292      139888.96     -807622.32     -303.9041       0.35997627     0.057731149    29.829781      3283.2832    
      2260   4.52           339.20234      137373.81     -807622.07     -303.87693      0.35994404     0.057731156    29.886603      3282.8917    
      2270   4.54           339.87348      137253.91     -807624.54     -301.65285      0.35991167     0.057313775    29.884152      3282.5018    
      2280   4.56           344.10738      132802.41     -807630.51     -296.55175      0.35987916     0.056349661    29.866081      3282.121     
      2290   4.58           321.99688      132106.91     -807628.67     -295.54272      0.35984651     0.056163025    29.81365       3281.7658    
      2300   4.6            332.39512      131318.55     -807630.49     -295.46724      0.35981371     0.056153799    29.811552      3281.4118    
      2310   4.62           341.10597      130936.75     -807632.51     -295.00766      0.35978077     0.056071589    29.866517      3281.0318    
      2320   4.64           336.95822      134542.26     -807628.38     -298.7968       0.35974769     0.056797007    29.865595      3280.6527    
      2330   4.66           335.00986      135303.37     -807626.18     -301.15929      0.35971447     0.057251368    29.845437      3280.2834    
      2340   4.68           324.83976      140396.59     -807620.9      -305.29008      0.35968111     0.058042028    29.869308      3279.9032    
      2350   4.7            322.36225      136170.04     -807624.66     -301.5643       0.3596476      0.05733902     29.848623      3279.5331    
      2360   4.72           331.72164      137363.19     -807626.56     -301.06895      0.35961396     0.057250191    29.815004      3279.1789    
      2370   4.74           323.94185      130775.66     -807630.43     -296.41214      0.35958017     0.056369966    29.837893      3278.8142    
      2380   4.76           318.72399      133414.81     -807629.19     -296.87381      0.35954624     0.056463093    29.787005      3278.4733    
      2390   4.78           327.09303      127827.79     -807635.43     -291.97373      0.35951216     0.055536397    29.790705      3278.1307    
      2400   4.8            339.19677      133823.67     -807632.1      -296.90308      0.35947795     0.056479385    29.778846      3277.7936    
      2410   4.82           322.7503       131972.85     -807628.84     -298.09843      0.35944359     0.056712195    29.748424      3277.4704    
      2420   4.84           329.88632      139246.24     -807624.28     -303.41967      0.35940909     0.057730083    29.75888       3277.1424    
      2430   4.86           320.94099      135336.46     -807625.57     -300.97267      0.35937446     0.057270026    29.749704      3276.8184    
      2440   4.88           327.24441      138926.94     -807624.21     -302.98095      0.35933967     0.057657748    29.742807      3276.4975    
      2450   4.9            329.38437      134041.47     -807628.08     -299.44797      0.35930475     0.056990955    29.771255      3276.1636    
      2460   4.92           329.25831      135191.36     -807628.88     -298.34725      0.35926969     0.056787007    29.790643      3275.8211    
      2470   4.94           330.91848      129930.39     -807634.22     -293.12306      0.35923448     0.05579811     29.842315      3275.4557    
      2480   4.96           326.91426      132226.52     -807632.13     -294.44863      0.35919913     0.056055958    29.861117      3275.0822    
      2490   4.98           325.29472      131335.13     -807630.08     -296.21042      0.35916364     0.056396933    29.907928      3274.6885    
      2500   5              332.54305      133472.65     -807628.67     -298.34553      0.35912801     0.056809083    29.850135      3274.3205    
[...]
     98740   197.48         360.81222      136875.48     -807625.7      -9708.0504      0.36236891     0.057250414    28.34274       44.116237    
     98750   197.5          343.42656      135475.88     -807625.76     -9644.5961      0.36238762     0.056873275    28.301563      43.766149    
     98760   197.52         344.18034      137291.78     -807623.44     -9736.4616      0.36240618     0.057412057    28.302604      43.41606     
     98770   197.54         350.93342      133117.09     -807628.45     -9627.9555      0.36242459     0.056769354    28.312454      43.065969    
     98780   197.56         332.22709      136497.41     -807625.62     -9643.744       0.36244287     0.056859581    28.264021      42.715884    
     98790   197.58         347.27511      130567.59     -807632.2      -9517.623       0.362461       0.056113164    28.267156      42.365798    
     98800   197.6          326.88719      136408.53     -807624.49     -9680.0529      0.36247899     0.057067972    28.300914      42.015707    
     98810   197.62         331.89143      133045.75     -807627.4      -9625.3393      0.36249683     0.056742618    28.287294      41.665617    
     98820   197.64         338.40911      138251.01     -807625.11     -9727.5754      0.36251453     0.057342513    28.265164      41.315529    
     98830   197.66         340.59168      133872.21     -807627.74     -9665.5664      0.36253209     0.05697422     28.296395      40.965436    
     98840   197.68         326.55218      139312.66     -807621.23     -9811.1173      0.36254951     0.0578294      28.358082      40.615334    
     98850   197.7          340.6805       133418.84     -807627.87     -9671.1049      0.36256678     0.057001413    28.39123       40.265226    
     98860   197.72         344.82322      136035.8      -807628.11     -9677.9307      0.36258391     0.057038949    28.377652      39.91512     
     98870   197.74         323.08361      132052.74     -807628.78     -9567.5808      0.3626009      0.056385937    28.368302      39.565014    
     98880   197.76         331.49194      135393.05     -807626.92     -9664.4552      0.36261774     0.056954214    28.296843      39.214918    
     98890   197.78         339.2312       132395.56     -807629.26     -9626.6599      0.36263445     0.056728868    28.369887      38.864811    
     98900   197.8          328.82448      135578.17     -807626.14     -9678.3983      0.362651       0.057031152    28.358346      38.514706    
     98910   197.82         340.93276      135053.98     -807628.12     -9671.5141      0.36266742     0.056988007    28.343211      38.164602    
     98920   197.84         336.12999      137283.32     -807624.9      -9751.8084      0.36268369     0.057458552    28.339643      37.814497    
     98930   197.86         337.82081      135839.29     -807625.83     -9728.5036      0.36269982     0.057318688    28.327023      37.464394    
     98940   197.88         334.82613      134864.16     -807628.25     -9635.9859      0.36271581     0.056771088    28.309879      37.114293    
     98950   197.9          337.60023      134008.54     -807629        -9621.616       0.36273165     0.05668395     28.321056      36.76419     
     98960   197.92         328.1987       133944.46     -807627.53     -9628.0728      0.36274735     0.056719534    28.297558      36.414089    
     98970   197.94         337.0379       134998.31     -807627.5      -9663.5871      0.36276291     0.05692631     28.288641      36.063988    
     98980   197.96         344.45673      133606.52     -807630        -9614.4343      0.36277832     0.056634354    28.320467      35.713883    
     98990   197.98         329.21595      135524.2      -807625.34     -9690.7281      0.36279359     0.057081364    28.321408      35.363777    
     99000   198            346.26518      134854.19     -807626.13     -9738.1343      0.36280872     0.057358209    28.309935      35.013672    
     99010   198.02         346.06242      135829.02     -807625.16     -305.06583      0.3628237      0.057497032    28.363486      34.663559    
     99020   198.04         333.49041      135018.42     -807626.19     -302.1308       0.36283855     0.056941527    28.372366      34.313445    
     99030   198.06         335.92736      135679.61     -807626.12     -302.317        0.36285324     0.056974311    28.396528      33.963328    
     99040   198.08         334.25854      133249.14     -807626.71     -301.3943       0.3628678      0.056798142    28.411319      33.613208    
     99050   198.1          331.17778      135638.55     -807625.58     -301.83192      0.36288221     0.056878352    28.426882      33.263087    
     99060   198.12         341.98692      133104.41     -807629.35     -299.46254      0.36289648     0.056429638    28.38653       32.912969    
     99070   198.14         338.6494       135771.53     -807625.39     -302.67508      0.36291061     0.057032778    28.415661      32.562848    
     99080   198.16         343.54117      134931.69     -807624.84     -303.80117      0.36292459     0.057242759    28.402409      32.212728    
     99090   198.18         343.2406       137688.95     -807622.34     -305.97669      0.36293843     0.057650477    28.360699      31.862612    
     99100   198.2          342.84399      135780.18     -807625.55     -302.61904      0.36295213     0.057015695    28.365761      31.512495    
     99110   198.22         337.59014      137567.26     -807623.32     -303.90081      0.36296568     0.057255051    28.340591      31.162381    
     99120   198.24         341.36143      133800.43     -807625.61     -302.02886      0.36297909     0.056900274    28.29446       30.812271    
     99130   198.26         344.10551      134810.16     -807626.5      -301.25363      0.36299236     0.056752152    28.353539      30.462154    
     99140   198.28         340.87153      132407.03     -807628.36     -298.89774      0.36300548     0.056306297    28.38411       30.112033    
     99150   198.3          348.15281      135642.34     -807626.7      -301.40022      0.36301846     0.056775684    28.387993      29.761911    
     99160   198.32         359.46595      133484.05     -807627.2      -302.55943      0.3630313      0.056992031    28.396246      29.411788    
     99170   198.34         347.31741      137469.73     -807623.43     -304.44945      0.36304399     0.057346044    28.396838      29.061665    
     99180   198.36         331.78216      137162.29     -807622.59     -303.17765      0.36305655     0.057104512    28.361834      28.711544    
     99190   198.38         344.36212      138416.37     -807621.63     -305.77018      0.36306895     0.057590856    28.351888      28.361425    
     99200   198.4          351.08288      135423.08     -807624.48     -303.91187      0.36308122     0.057238915    28.385922      28.011301    
     99210   198.42         357.89003      135247.13     -807627.5      -301.67862      0.36309334     0.056816408    28.362379      27.661179    
     99220   198.44         348.29502      133428.76     -807627.95     -299.97028      0.36310532     0.056492805    28.362705      27.311057    
     99230   198.46         336.95363      134901.82     -807625.22     -301.21473      0.36311715     0.05672532     28.330918      26.960937    
     99240   198.48         344.74237      134048.85     -807627.05     -300.56779      0.36312885     0.056601664    28.343279      26.610815    
     99250   198.5          351.89434      135352.87     -807626.91     -301.87122      0.3631404      0.056845313    28.369156      26.260691    
     99260   198.52         336.28572      136625.06     -807622.51     -304.27104      0.3631518      0.057295423    28.331955      25.910569    
     99270   198.54         348.54432      136365.5      -807623.49     -305.21875      0.36316306     0.057472098    28.335179      25.560447    
     99280   198.56         337.03042      137437.58     -807622.82     -304.59812      0.36317418     0.057353479    28.350512      25.210322    
     99290   198.58         354.08624      135080.25     -807627.41     -302.74905      0.36318516     0.057003591    28.361042      24.860197    
     99300   198.6          331.84639      135547.51     -807624.28     -303.19081      0.36319599     0.057085065    28.403254      24.510067    
     99310   198.62         338.04037      133183.84     -807628.14     -300.74525      0.36320668     0.056622946    28.419112      24.159935    
     99320   198.64         330.66996      134279.62     -807627.55     -300.73046      0.36321723     0.056618518    28.426459      23.809802    
     99330   198.66         344.43938      131864.89     -807630.19     -300.56946      0.36322763     0.056586585    28.367459      23.459674    
     99340   198.68         329.96086      136355.78     -807624.62     -304.46229      0.36323789     0.057317849    28.391353      23.109543    
     99350   198.7          337.0578       134698.95     -807626.44     -304.014        0.36324801     0.057231861    28.34242       22.759416    
     99360   198.72         323.21277      138675.51     -807623.5      -305.16815      0.36325798     0.057447557    28.30191       22.409292    
     99370   198.74         337.66305      134729.78     -807627.02     -303.99242      0.36326781     0.057224677    28.343963      22.059164    
     99380   198.76         325.34341      137542.03     -807623.84     -305.46889      0.3632775      0.057501082    28.382354      21.709032    
     99390   198.78         329.44379      132987.05     -807629.53     -300.56941      0.36328704     0.056577322    28.401079      21.358898    
     99400   198.8          333.42959      134033.16     -807629.61     -300.96714      0.36329644     0.056650723    28.386839      21.008765    
     99410   198.82         334.00601      131697.57     -807630.94     -299.89379      0.3633057      0.056447249    28.367015      20.658633    
     99420   198.84         332.54566      134668.55     -807627.91     -302.70644      0.36331481     0.056975229    28.346802      20.308502    
     99430   198.86         337.95526      133313.57     -807628.74     -302.66985      0.36332378     0.056966936    28.362502      19.958369    
     99440   198.88         335.25978      136424.99     -807626.77     -304.20184      0.36333261     0.057253886    28.323901      19.608239    
     99450   198.9          328.24237      136620        -807624.98     -305.06672      0.36334129     0.057415294    28.398167      19.258103    
     99460   198.92         328.05397      137537.81     -807624.37     -305.53389      0.36334983     0.057501867    28.418125      18.907965    
     99470   198.94         327.43405      134569.14     -807626.58     -303.14061      0.36335823     0.05705013     28.453947      18.557824    
     99480   198.96         336.8169       133676.19     -807629.44     -301.42298      0.36336648     0.056725587    28.418001      18.207686    
     99490   198.98         333.44028      132991.4      -807629.03     -301.31387      0.3633746      0.056703788    28.391196      17.857549    
     99500   199            329.03964      133616.51     -807627.01     -302.59162      0.36338256     0.056942999    28.359733      17.507413    
     99510   199.02         329.69376      134745.97     -807627.5      -9662.3008      0.36339039     0.056820449    28.281048      17.157282    
     99520   199.04         339.81936      134869.9      -807627.79     -9692.4197      0.36339807     0.056996362    28.28031       16.80715     
     99530   199.06         335.50235      136538.59     -807625.06     -9755.7689      0.3634056      0.057367698    28.283612      16.457017    
     99540   199.08         328.84052      137056.4      -807623.24     -9777.1977      0.363413       0.057492538    28.267447      16.106884    
     99550   199.1          328.12969      136660.92     -807624.5      -9725.5633      0.36342025     0.057187773    28.315141      15.756748    
     99560   199.12         342.49626      134700.21     -807628.12     -9665.6745      0.36342736     0.056834506    28.323464      15.406611    
     99570   199.14         333.96036      134118.64     -807626.07     -9686.3129      0.36343432     0.056954769    28.29625       15.056475    
     99580   199.16         348.40622      133482.65     -807628.61     -9664.1534      0.36344114     0.056823407    28.313293      14.706337    
     99590   199.18         343.84643      133655.15     -807627.87     -9658.7382      0.36344782     0.056790522    28.326389      14.356198    
     99600   199.2          343.59107      133683.52     -807628.2      -9643.0111      0.36345435     0.056697033    28.333519      14.006058    
     99610   199.22         355.85567      134992.94     -807627.33     -9719.3054      0.36346074     0.057144608    28.280344      13.65592     
     99620   199.24         345.72952      136056.6      -807624.05     -9777.3434      0.36346699     0.057484854    28.263619      13.305783    
     99630   199.26         323.63498      137398.62     -807621.86     -9743.3949      0.3634731      0.057284295    28.238563      12.955645    
     99640   199.28         347.55886      136397.58     -807626.45     -9697.1839      0.36347906     0.057011672    28.279394      12.605505    
     99650   199.3          344.9754       135648.59     -807625.75     -9705.8325      0.36348487     0.057061606    28.287775      12.255364    
     99660   199.32         355.01689      134867.84     -807626.54     -9722.4456      0.36349055     0.057158384    28.269121      11.905223    
     99670   199.34         349.54939      133747.62     -807628.69     -9624.7352      0.36349608     0.056583082    28.230295      11.555083    
     99680   199.36         337.59563      133413.61     -807627.85     -9595.6854      0.36350147     0.056411464    28.270421      11.20494     
     99690   199.38         353.21896      134052.45     -807627.37     -9681.3224      0.36350671     0.056914089    28.287926      10.854796    
     99700   199.4          352.91401      135639.44     -807624.55     -9771.7654      0.36351181     0.057444975    28.310573      10.504651    
     99710   199.42         332.25333      137471.62     -807622.56     -9740.7512      0.36351677     0.057261872    28.298912      10.154505    
     99720   199.44         343.0481       136818.16     -807623.84     -9746.7266      0.36352158     0.05729624     28.337809      9.8043575    
     99730   199.46         352.8788       136698.11     -807624.92     -9758.1079      0.36352625     0.057362408    28.334299      9.4542093    
     99740   199.48         348.14484      136388.01     -807624.73     -9744.7176      0.36353078     0.057282981    28.344569      9.1040603    
     99750   199.5          345.04005      133545.93     -807627.5      -9641.6954      0.36353516     0.056676696    28.332437      8.7539112    
     99760   199.52         337.94977      132827.82     -807628.6      -9576.5223      0.3635394      0.056292933    28.317252      8.4037619    
     99770   199.54         345.60408      134015.27     -807628        -9631.6089      0.3635435      0.056616106    28.383463      8.0536101    
     99780   199.56         345.65276      133373.41     -807626.04     -9698.7435      0.36354745     0.057010114    28.36312       7.7034585    
     99790   199.58         354.41863      135584.24     -807626.85     -9713.3235      0.36355126     0.057095218    28.303376      7.3533079    
     99800   199.6          340.73507      136907.33     -807624.92     -9716.449       0.36355493     0.057113014    28.294276      7.003157     
     99810   199.62         350.03308      138180.39     -807623.45     -9807.8005      0.36355845     0.057649416    28.32607       6.6530046    
     99820   199.64         341.17846      136509.67     -807623.18     -9781.4581      0.36356183     0.057494043    28.343329      6.3028513    
     99830   199.66         348.72239      135424.19     -807627.12     -9691.4736      0.36356507     0.05696462     28.316407      5.952698     
     99840   199.68         341.28001      132699.14     -807629.75     -9579.8079      0.36356816     0.056307791    28.32147       5.6025439    
     99850   199.7          342.01875      133439.17     -807628        -9644.022       0.36357111     0.056684766    28.337046      5.2523891    
     99860   199.72         337.93512      132566.86     -807627.21     -9656.8931      0.36357392     0.056759981    28.308294      4.9022341    
     99870   199.74         354.31967      134518.31     -807628.62     -9688.4516      0.36357658     0.056945054    28.252119      4.5520795    
     99880   199.76         336.27975      135820.03     -807625.82     -9705.1655      0.3635791      0.057042897    28.236669      4.2019243    
     99890   199.78         338.48345      138271.75     -807622.99     -9813.2105      0.36358148     0.057677563    28.309475      3.8517673    
     99900   199.8          340.95675      136798.91     -807624        -9803.4593      0.36358371     0.057619896    28.321291      3.5016096    
     99910   199.82         333.8997       135350.32     -807626.05     -9715.4688      0.3635858      0.057102403    28.329954      3.1514512    
     99920   199.84         334.11504      134142.45     -807628.36     -9652.3818      0.36358775     0.056731307    28.32514       2.8012923    
     99930   199.86         336.04841      132913.36     -807629.58     -9636.8557      0.36358955     0.056639773    28.306666      2.4511329    
     99940   199.88         339.10847      133489.42     -807629.41     -9669.1156      0.36359121     0.056829118    28.337562      2.1009727    
     99950   199.9          335.21071      132440.08     -807631.08     -9614.5059      0.36359273     0.05650792     28.309464      1.7508121    
     99960   199.92         321.03895      134871.41     -807627.11     -9690.2501      0.3635941      0.056952881    28.275809      1.4006511    
     99970   199.94         329.85469      135715.75     -807625.73     -9787.6935      0.36359533     0.057525395    28.29351       1.0504893    
     99980   199.96         334.8455       135988.19     -807626.06     -9810.0058      0.36359641     0.057656359    28.30919       0.70032682   
     99990   199.98         316.92371      136510.04     -807625.23     -9763.5805      0.36359736     0.057383354    28.32133       0.3501637    
    100000   200            326.80115      134601.61     -807629.14     -9688.1032      0.36359816     0.056939628    28.320058      0            
Loop time of 3501.64 on 32 procs for 100000 steps with 1080 atoms

Performance: 4.935 ns/day, 4.863 hours/ns, 28.558 timesteps/s, 30.843 katom-step/s
62.9% CPU use with 32 MPI tasks x 1 OpenMP threads

MPI task timing breakdown:
Section |  min time  |  avg time  |  max time  |%varavg| %total
---------------------------------------------------------------
Pair    | 2522.7     | 2796.1     | 3089.8     | 255.3 | 79.85
Neigh   | 0.0016575  | 0.001788   | 0.0019894  |   0.2 |  0.00
Comm    | 332.24     | 626.28     | 899.28     | 539.7 | 17.89
Output  | 2.475      | 2.5359     | 2.5487     |   0.8 |  0.07
Modify  | 65.459     | 66.334     | 71.163     |  12.1 |  1.89
Other   |            | 10.39      |            |       |  0.30

Nlocal:          33.75 ave          43 max          26 min
Histogram: 2 1 4 3 11 3 4 3 0 1
Nghost:        1032.31 ave        1042 max        1017 min
Histogram: 2 0 2 0 4 6 7 3 2 6
Neighs:              0 ave           0 max           0 min
Histogram: 32 0 0 0 0 0 0 0 0 0
FullNghs:      5356.94 ave        6874 max        4110 min
Histogram: 2 1 3 7 8 3 6 1 0 1

Total # of neighbors = 171422
Ave neighs/atom = 158.72407
Neighbor list builds = 4
Dangerous builds = 0

Total wall time: 1:01:41
