
units		metal
atom_style	atomic

read_data ${STRUCTURE}.data
read_data BaTiO3-sc333.data
Reading data file ...
  orthogonal box = (0 0 0) to (11.898253 11.898253 12.912076)
  2 by 4 by 4 MPI processor grid
  reading atoms ...
  135 atoms
  read_data CPU = 0.010 seconds
replicate $L $L $L
replicate 2 $L $L
replicate 2 2 $L
replicate 2 2 2
Replication is creating a 2x2x2 = 8 times larger system...
  orthogonal box = (0 0 0) to (23.796507 23.796507 25.824152)
  2 by 4 by 4 MPI processor grid
  1080 atoms
  replicate CPU = 0.004 seconds

pair_style allegro
pair_coeff	* * ${MODEL}.pth Ba Ti O
pair_coeff	* * BaTiO3-E0.pth Ba Ti O
mass 1 137.3
mass 2 47.9
mass 3 15.9994

timestep 0.002
compute polarization all allegro polarization 3
compute allegro will evaluate the quantity polarization of length 3 (src/compute_allegro.cpp:53)
compute polarizability all allegro polarizability 9
compute allegro will evaluate the quantity polarizability of length 9 (src/compute_allegro.cpp:53)

thermo_style custom pe fmax fnorm spcpu cpuremain

variable efield equal 1e-2*36.36
fix born all addbornforce 0.0 0.0 ${efield}
fix born all addbornforce 0.0 0.0 0.3636

thermo 10
min_style fire
#minimize 0.0 1e-6 100 100
velocity all create ${TEMP} ${SEED} dist gaussian rot yes mom yes
velocity all create 330 ${SEED} dist gaussian rot yes mom yes
velocity all create 330 27569 dist gaussian rot yes mom yes
fix nvt all nvt temp ${TEMP} ${TEMP} $(100*dt)
fix nvt all nvt temp 330 ${TEMP} $(100*dt)
fix nvt all nvt temp 330 330 $(100*dt)
fix nvt all nvt temp 330 330 0.2000000000000000111
run 5000
Neighbor list info ...
  update: every = 1 steps, delay = 0 steps, check = yes
  max neighbors/atom: 2000, page size: 100000
  master list distance cutoff = 8
  ghost atom cutoff = 8
  binsize = 8, bins = 3 3 4
  1 neighbor lists, perpetual/occasional/extra = 1 0 0
  (1) pair allegro/kk, perpetual
      attributes: full, newton on, kokkos_device
      pair build: full/bin/kk/device
      stencil: full/bin/3d
      bin: kk/device
Per MPI rank memory allocation (min/avg/max) = 3.516 | 3.516 | 3.516 Mbytes
    PotEng          Fmax          Fnorm          S/CPU         CPULeft    
-807708.29      1.5956437      37.043485      0              0            
-807644.39      3.4268725      45.209897      2.1123778      2362.2678    
-807632.7       2.46239        35.835924      25.864222      1275.0389    
-807602.28      3.4458937      38.596917      25.854956      912.39444    
-807601.99      4.4161965      50.809002      25.812582      730.95763    
-807569.01      3.9001595      41.185286      25.77944       621.98979    
-807602.95      2.9220649      38.953707      25.841074      549.13913    
-807645.02      4.2184493      35.592438      25.844096      496.98918    
-807681.97      2.5735835      35.235898      25.822865      457.79955    
-807666.65      3.1999733      34.790397      25.782848      427.26547    
-807649.38      4.1064786      35.685567      25.856366      402.70657    
-807657.06      2.4014714      27.730516      25.860219      382.54009    
-807625.34      3.5236267      32.408621      25.846956      365.67829    
-807584.82      3.3584596      40.470418      25.829075      351.36112    
-807568.94      4.0546677      38.430572      25.890501      339.00207    
-807632.09      3.4807128      32.880195      25.872578      328.24804    
-807653.72      3.6968832      30.962091      25.888933      318.78257    
-807664.42      2.7947758      34.381888      25.850339      310.40162    
-807645.1       4.3275261      44.076994      25.889888      302.89308    
-807677.25      2.580741       35.903441      25.850115      296.14931    
-807640.17      3.934623       38.678238      25.843854      290.04347    
-807616.02      3.0407683      38.835498      25.903513      284.46197    
-807559.34      3.7534209      45.553713      25.920404      279.34731    
-807603.71      4.1173931      48.677627      25.868535      274.6599     
-807614.62      4.7474005      38.762127      25.833274      270.34136    
-807641.86      3.0577194      36.104483      25.918002      266.31329    
-807641.53      5.1350332      45.759211      25.891583      262.57257    
-807679.85      2.8730829      37.763243      25.863166      259.08777    
-807659.98      3.1215124      36.088955      25.838966      255.83036    
-807637.72      3.5846646      33.11907       25.904446      252.75503    
-807600.81      3.7166867      36.006578      25.922987      249.85465    
-807601.14      3.6573984      43.146028      25.856647      247.13149    
-807595.53      3.1035729      37.402546      25.805916      244.56547    
-807610.05      3.9582471      33.996809      25.910076      242.10944    
-807639.18      3.4834304      32.826701      25.885433      239.78021    
-807670.24      3.9240932      33.568041      25.869508      237.56516    
-807675.9       2.5944322      33.816023      25.777831      235.46942    
-807642.77      4.6293521      38.956963      25.877012      233.44738    
-807643.06      2.9128786      31.778471      25.846817      231.51692    
-807618.25      3.5078636      34.766249      25.86497       229.66241    
-807598.1       4.281183       44.274485      25.831107      227.88711    
-807569.72      4.114237       41.975946      25.894294      226.16896    
-807619.65      3.7777224      36.407931      25.901354      224.51309    
-807648.26      4.2167392      36.796236      25.867465      222.92165    
-807670.78      3.4023638      36.874906      25.823732      221.39176    
-807642.15      4.9618406      46.447099      25.885807      219.90327    
-807661.55      2.9526079      36.253295      25.891363      218.46188    
-807642.64      3.8491229      37.453206      25.812136      217.07682    
-807621.3       3.529591       38.521018      25.848417      215.7282     
-807564.32      3.6392206      42.8967        25.91789       214.4093     
-807595.3       3.7145274      42.914241      25.929004      213.12623    
-807623.13      3.141856       35.780252      25.85787       211.88769    
-807654.92      2.8742967      32.662651      25.865129      210.68098    
-807642.51      4.7336274      41.205198      25.893704      209.50162    
-807668.02      2.8650102      35.043         25.896922      208.35124    
-807663.88      3.3657108      34.718336      25.817553      207.23825    
-807641.51      3.0124169      32.317087      25.845473      206.14786    
-807596.33      4.0860646      37.605403      25.893686      205.07656    
-807591.52      4.3444574      40.033125      25.92277       204.02558    
-807603.49      4.1574761      40.561401      25.806097      203.01018    
-807620.12      4.7491472      34.452026      25.912299      202.00408    
-807635.21      3.2215884      34.425863      25.895339      201.02011    
-807660.18      4.2895791      35.642491      25.908262      200.05408    
-807672.18      3.2850901      36.7519        25.797916      199.11791    
-807646.68      4.1943992      38.31193       25.797985      198.19887    
-807628.84      3.0618182      35.397656      25.859521      197.29002    
-807609.84      3.6251456      37.17488       25.898207      196.39318    
-807600.66      3.8436965      45.675138      25.859465      195.51533    
-807582.49      3.8320826      40.722628      25.918985      194.64629    
-807614.14      3.13967        37.116306      25.924842      193.7907     
-807642.64      3.9926132      37.398536      25.895547      192.95122    
-807669.77      3.1272467      36.974719      25.837131      192.12979    
-807650.52      6.140302       41.227603      25.840181      191.32015    
-807647.26      3.8718194      36.963039      25.87475       190.51907    
-807638.6       4.4662494      35.056586      25.834246      189.73268    
-807620.38      3.4291036      38.479565      25.840587      188.9564     
-807576.13      3.7899507      41.652864      25.871786      188.18776    
-807587.02      3.841585       41.269056      25.895303      187.42712    
-807625.55      3.5898433      34.587224      25.897467      186.6759     
-807654.88      3.1187461      34.483742      25.860501      185.93687    
-807649.61      3.6366052      37.317258      25.868052      185.20606    
-807653.97      4.2056698      37.480977      25.779531      184.49061    
-807660.16      2.6310012      34.524979      25.836716      183.77877    
-807640.32      3.6902638      34.216822      25.86764       183.07244    
-807602.47      3.3077075      37.08302       25.900386      182.3713     
-807580.59      3.3065306      40.446971      25.875587      181.67937    
-807602.43      3.9849074      40.617729      25.856308      180.99594    
-807627.18      3.686854       33.768597      25.846329      180.32004    
-807639.47      3.9810442      34.616947      25.922645      179.64537    
-807649.71      3.5394272      37.131818      25.894278      178.97915    
-807667.6       2.9543048      35.838743      25.804155      178.32529    
-807650.75      3.7379919      36.013171      25.736742      177.68185    
-807630.21      2.9222407      33.296513      25.758638      177.04249    
-807600.55      4.3954871      37.562638      25.880241      176.40054    
-807600.08      3.6608123      42.814989      25.867318      175.76486    
-807597.25      3.986805       38.807715      25.821401      175.13736    
-807617.29      3.2118781      35.619814      25.873226      174.5116     
-807638.59      4.4604144      36.854989      25.901248      173.88904    
-807665.77      3.1352831      36.184634      25.815349      173.27657    
-807657.61      3.8517946      37.076153      25.820861      172.66831    
-807643.94      2.7785794      35.737317      25.893833      172.06011    
-807629.78      3.6292581      35.015766      25.863636      171.45809    
-807620.76      3.3051794      36.864822      25.896844      170.85835    
-807590.96      2.9010095      38.429028      25.904917      170.2623     
-807590.77      2.9212495      38.489816      25.911522      169.66991    
-807623.21      3.8008582      33.661231      25.894891      169.08239    
-807655.76      3.0687701      33.049657      25.881411      168.49941    
-807657.15      3.9910133      35.426682      25.860403      167.92126    
-807650.1       3.6235494      36.272527      25.849768      167.34723    
-807651.03      3.0697469      34.023602      25.913309      166.77324    
-807641.03      3.0733356      32.376386      25.933891      166.20158    
-807608.54      3.1215697      36.188345      25.920759      165.63396    
-807580.44      3.643746       39.083134      25.934473      165.06888    
-807603.1       3.8464586      37.817581      25.914754      164.50797    
-807632.05      3.6397446      34.277335      25.86187       163.95281    
-807649.39      3.927101       34.150095      25.878183      163.39977    
-807644.85      4.0422938      39.754286      25.900002      162.84852    
-807660.81      3.6538171      36.559999      25.854216      162.30233    
-807650.5       2.8302468      36.251418      25.860735      161.75855    
-807632.8       3.1198525      34.285964      25.897669      161.2156     
-807594.04      4.1757374      38.481989      25.912587      160.67459    
-807597.69      3.7126704      40.536331      25.851261      160.139      
-807605.81      3.8962028      37.112694      25.782019      159.60907    
-807628.25      3.0968316      33.558795      25.869328      159.07744    
-807636.32      4.7879258      36.876423      25.82966       158.54995    
-807659.78      3.7511643      35.823434      25.825094      158.02491    
-807658.74      4.1688655      36.45776       25.810365      157.50271    
-807646.32      3.2604767      34.494191      25.874853      156.9798     
-807619.39      4.4333044      36.317384      25.892138      156.45827    
-807612.05      4.2036633      37.633539      25.920782      155.93761    
-807595.38      3.8435107      40.769526      25.844066      155.42228    
-807600.37      3.2268029      38.407097      25.849791      154.90868    
-807620.13      4.5347199      35.452098      25.9042        154.39473    
-807650.91      3.1752052      33.759779      25.941169      153.88118    
-807659.64      3.3725115      35.533781      25.858647      153.37291    
-807649.72      3.2220774      36.206437      25.868108      152.86605    
-807642.53      4.1680998      34.336997      25.925696      152.35867    
-807630.09      3.9676039      33.925985      25.915035      151.85348    
-807610.45      3.6379712      38.231356      25.906197      151.35037    
-807583.2       4.3521381      40.800063      25.91557       150.84858    
-807601.45      3.1098975      38.66017       25.95164       150.34706    
-807631.14      4.1232614      36.410404      25.926462      149.84815    
-807652.6       3.1251167      35.472192      25.857382      149.35343    
-807645.79      6.0728666      39.20147       25.850244      148.86048    
-807651.51      3.9359237      36.96063       25.885617      148.36771    
-807647.02      5.0403021      35.97859       25.901309      147.87582    
-807628.97      3.034638       35.506662      25.891089      147.38576    
-807593.12      4.1439304      38.31423       25.928668      146.89577    
-807590.23      3.6581653      40.308723      25.903174      146.40808    
-807609.44      5.0397231      37.95466       25.907678      145.92161    
-807634.88      3.1625484      34.663397      25.868351      145.43784    
-807638.45      4.7833176      37.484827      25.868379      144.95536    
-807652.51      2.9391998      36.147399      25.874016      144.47395    
-807653.47      3.3308136      37.098846      25.840386      143.99492    
-807644.95      3.4361833      35.489518      25.847939      143.51683    
-807616.34      2.8856452      36.015251      25.890607      143.0385     
-807601.45      3.3003495      38.581756      25.921397      142.56034    
-807598.78      3.756813       39.765964      25.864739      142.0852     
-807611.73      3.6423104      37.110362      25.844859      141.61182    
-807624.32      3.3530023      35.385681      25.904519      141.13762    
-807644.5       4.0590362      35.290585      25.894573      140.66484    
-807656.63      3.155203       36.033699      25.915603      140.19248    
-807652.28      5.4072836      35.50349       25.907645      139.72143    
-807636.61      4.2438793      34.593646      25.912657      139.25127    
-807620.37      4.3325395      35.757885      25.935187      138.78145    
-807610.1       4.5861976      38.636304      25.920003      138.31311    
-807597.26      3.9285179      38.48333       25.923546      137.84565    
-807606.11      3.3086301      36.559963      25.918136      137.37934    
-807630         3.7245622      34.342785      25.892409      136.91474    
-807653.34      3.3118907      33.914166      25.913112      136.45047    
-807651.94      3.917277       35.82323       25.89291       135.9877     
-807648.63      3.2611619      34.322208      25.88433       135.52607    
-807638.15      3.5247204      34.281811      25.903108      135.06479    
-807630.17      3.3135655      33.986345      25.891272      134.60471    
-807600.78      4.0048761      36.181131      25.895008      134.14537    
-807595.46      3.5661539      38.393135      25.890401      133.687      
-807611.75      4.3716786      36.716651      25.917869      133.22869    
-807640.08      3.8973723      34.459413      25.895444      132.77181    
-807645.98      4.6700947      36.274812      25.894915      132.31574    
-807648.7       3.0956837      36.270158      25.921345      131.85975    
-807650.92      4.0615571      35.364705      25.863108      131.40608    
-807644.66      3.562758       33.814387      25.845288      130.95362    
-807616.65      2.9204009      35.113462      25.91337       130.5001     
-807598.37      3.1655189      36.724228      25.924138      130.04705    
-807601.76      3.1841202      37.415274      25.912254      129.59503    
-807620.37      3.6967887      35.344814      25.864547      129.14494    
-807633.9       3.6002155      34.195494      25.882192      128.69508    
-807644.63      3.5736204      35.12408       25.912582      128.24515    
-807655.5       2.6111536      35.315125      25.870613      127.79693    
-807651.19      3.2622373      34.709974      25.845171      127.35       
-807636.53      2.527008       33.770509      25.919059      126.90189    
-807613.21      3.4610076      35.660941      25.934143      126.45408    
-807606.13      3.5318646      37.61008       25.907335      126.00755    
-807604.4       2.7938284      38.299818      25.930353      125.56111    
-807616.23      2.9007962      36.038153      25.923593      125.11545    
-807630.18      3.4855762      35.750177      25.929372      124.67027    
-807650.3       3.3627653      35.71929       25.908526      124.22618    
-807652.45      4.5540626      36.910469      25.926381      123.78228    
-807643.66      3.444855       35.846605      25.889412      123.33979    
-807629.85      3.38012        34.96841       25.968485      122.8961     
-807620.37      3.1766521      36.675555      25.959416      122.45319    
-807605.74      3.3485249      37.494304      25.945022      122.01118    
-807602.54      3.312775       38.564133      25.896455      121.57079    
-807613.33      3.116582       36.271597      25.924414      121.13033    
-807638.05      4.1201354      35.288952      25.918431      120.69053    
-807646.91      3.1245151      36.187997      25.869635      120.25231    
-807645.78      4.1059647      36.577729      25.854734      119.8149     
-807639.25      3.7743455      36.987566      25.920092      119.37661    
-807637.55      3.793363       35.171182      25.89763       118.93929    
-807617.07      3.8524118      36.487307      25.900151      118.5024     
-807599.7       3.3716461      38.649572      25.922912      118.06554    
-807599.95      3.7595974      38.234499      25.918281      117.62925    
-807622.41      3.1225289      36.036448      25.8868        117.19407    
-807638.49      3.941931       35.58979       25.881812      116.75945    
-807641.43      4.104681       36.911437      25.860879      116.32571    
-807646.25      3.326763       35.835817      25.852222      115.89257    
-807645.78      3.1136488      35.496044      25.857862      115.45975    
-807633.1       3.0276526      34.577166      25.913585      115.02627    
-807607.89      2.9945803      36.384937      25.930846      114.59289    
-807602.1       3.4501812      38.151581      25.914101      114.16027    
-807608.71      3.0758659      37.470288      25.883272      113.72866    
-807624.8       3.144327       35.368651      25.893439      113.29727    
-807633.67      3.8254109      35.084467      25.89934       112.86618    
-807646.57      3.8913254      35.462395      25.921617      112.43507    
-807649.86      3.971045       35.896532      25.924489      112.00432    
-807643.99      3.6834535      34.64346       25.933988      111.5738     
-807622.72      4.257808       35.993942      25.936408      111.14363    
-807614.57      3.297446       36.047929      25.943673      110.71372    
-807604.48      3.5736321      37.861086      25.931518      110.28442    
-807613.38      3.6519924      36.656256      25.914214      109.85581    
-807620.43      4.3836942      35.671459      25.87937       109.42817    
-807639.42      3.5193375      34.583422      25.88322       109.00083    
-807649.44      3.3901455      35.392632      25.908179      108.57341    
-807648.24      3.6401844      35.046668      25.907317      108.14636    
-807635.82      2.8168894      34.816068      25.912413      107.71957    
-807628.14      2.7202634      33.357615      25.938302      107.2927     
-807616.92      3.1088719      35.024098      25.907617      106.86669    
-807606.84      3.4493715      36.681555      25.85988       106.44181    
-807608.91      3.140879       36.125056      25.806252      106.01813    
-807626.59      2.8116638      34.536713      25.839449      105.59421    
-807644.39      3.9650066      34.044987      25.883867      105.16988    
-807646.75      3.3013362      35.469168      25.855355      104.74633    
-807642.56      3.1823626      36.276884      25.843044      104.32327    
-807639.11      3.2154755      34.183476      25.862972      103.9002     
-807629.86      2.9741043      34.89471       25.867804      103.47735    
-807610.56      3.5986079      36.261289      25.902841      103.05425    
-807602.45      3.9667092      37.366735      25.891866      102.63162    
-807612.03      4.1329296      35.519274      25.916241      102.20891    
-807633.18      3.8072881      33.55659       25.907551      101.78663    
-807637.3       4.4614707      35.170258      25.92841       101.36433    
-807645.9       3.1344634      34.813185      25.927795      100.94233    
-807645.87      3.2383759      34.604536      25.926353      100.52065    
-807642.12      2.5412533      33.237348      25.914951      100.09941    
-807620.5       3.9574817      35.374299      25.922378      99.678351    
-807609.12      3.2913539      36.032184      25.887297      99.258072    
-807603.46      3.0974086      37.990234      25.877276      98.838204    
-807618.68      3.3099015      35.838041      25.818579      98.419434    
-807626.86      2.9787642      35.199816      25.864266      98.000262    
-807640.15      3.7573661      35.073712      25.914031      97.580646    
-807648.4       3.3432666      35.105741      25.880433      97.161757    
-807646.61      2.7616895      35.24917       25.862571      96.743364    
-807634.19      3.0662126      34.809355      25.898713      96.32472     
-807619.01      3.3113938      34.974607      25.866033      95.906767    
-807609.78      3.4290206      35.720854      25.812547      95.489775    
-807605.57      3.109115       37.938496      25.824992      95.07284     
-807614.85      3.5031837      35.482735      25.851854      94.655772    
-807629.19      3.0300712      35.125775      25.883806      94.238512    
-807644.24      3.1283173      35.20968       25.871146      93.821648    
-807646.26      3.1805804      35.935261      25.858026      93.40518     
-807641.6       3.6139043      35.646643      25.924128      92.988087    
-807631.26      4.1007886      35.446038      25.917104      92.571316    
-807622.14      2.912586       36.209234      25.898502      92.155006    
-807606.97      3.0889857      37.651982      25.854155      91.739473    
-807604.63      3.25625        37.96753       25.859068      91.32409     
-807615.27      3.0922601      36.851178      25.88214       90.908632    
-807634.64      2.852488       35.00613       25.889989      90.49329     
-807641.47      3.5700836      35.977024      25.896652      90.078078    
-807644.14      3.196119       36.442618      25.863654      89.663472    
-807639.63      4.1445585      36.311184      25.851873      89.249209    
-807634.58      3.1847788      35.025682      25.874086      88.834879    
-807619.37      3.405467       35.288512      25.935281      88.420031    
-807606.27      4.6493395      37.785584      25.951724      88.005201    
-807606.56      3.3999141      36.880069      25.937456      87.590744    
-807623.25      3.4049227      36.013244      25.908428      87.176823    
-807633.73      4.2168622      34.76464       25.92403       86.762922    
-807642.48      4.2981779      35.033653      25.882992      86.34968     
-807644.4       4.4561088      35.581267      25.850697      85.936988    
-807644.45      3.1555416      34.610279      25.827339      85.524735    
-807630.12      2.8422573      34.835468      25.879413      85.112082    
-807614.97      3.1547577      35.902992      25.889436      84.699502    
-807607.16      3.1605858      37.051186      25.882454      84.287179    
-807614.05      3.7512853      36.277192      25.875793      83.875106    
-807623.88      3.2079177      34.834819      25.873479      83.463233    
-807633.71      4.1123258      35.090987      25.840218      83.051884    
-807644.84      3.7737031      35.309706      25.84186       82.640685    
-807646.86      3.1552239      35.088145      25.84137       82.229654    
-807639.92      3.2762189      34.132976      25.877243      81.818416    
-807627.68      3.8687662      34.48461       25.888294      81.407233    
-807616.92      2.7439227      35.291408      25.893004      80.996169    
-807610.62      3.0868598      35.934935      25.85044       80.585698    
-807614.69      3.1018495      34.859884      25.866649      80.175224    
-807622.76      4.0593551      34.972865      25.889361      79.764684    
-807638.76      2.7587219      33.668823      25.853161      79.35466     
-807644.17      4.4204181      35.59612       25.838936      78.944927    
-807644.26      2.917401       34.961651      25.861347      78.535127    
-807636.66      4.3303066      34.730748      25.889441      78.125211    
-807630.5       2.8313367      34.408644      25.913173      77.715225    
-807614.59      3.3398596      36.089155      25.919839      77.305334    
-807608.34      2.8201895      37.267006      25.880037      76.895969    
-807612.29      2.8561228      35.539512      25.888247      76.486677    
-807628.21      3.2327539      34.689991      25.911494      76.077321    
-807636.36      3.5280231      35.766086      25.90105       75.66821     
-807643.55      3.4465109      35.110949      25.901074      75.259247    
-807641.85      3.4215402      35.570088      25.911719      74.850335    
-807639.36      3.1253223      34.585056      25.855028      74.44207     
-807626.77      3.8781447      34.826572      25.905873      74.033497    
-807612.16      3.1178112      36.484924      25.859497      73.625469    
-807606.19      3.0524712      36.66583       25.876756      73.217427    
-807615.35      2.6306959      35.766914      25.837462      72.809856    
-807628.13      3.8291156      35.244383      25.784205      72.402869    
-807634.58      3.5474389      35.415421      25.788956      71.995961    
-807643.92      2.7303747      34.883719      25.789988      71.589163    
-807641.1       4.7044934      36.75612       25.803606      71.182371    
-807637.81      2.9361476      35.423251      25.800114      70.775727    
-807622.06      3.5611867      36.497486      25.797269      70.369223    
-807612.18      2.9637177      36.99339       25.798993      69.962822    
-807608.4       4.2162432      37.722977      25.811788      69.556433    
-807617.49      2.9552818      36.670628      25.846463      69.149885    
-807623.9       3.7054698      35.597673      25.865313      68.74331     
-807637.73      2.7660702      35.10365       25.880535      68.336737    
-807642.48      3.811822       35.996711      25.836212      67.930628    
-807642.97      3.4507279      35.370083      25.822714      67.524738    
-807631.33      3.766187       35.370055      25.862659      67.118657    
-807624.74      3.2128557      35.436066      25.908155      66.712353    
-807611.34      3.6982337      37.493906      25.890761      66.306298    
-807610.77      3.4583115      38.289891      25.859254      65.900595    
-807614.2       3.0333509      36.671575      25.845241      65.495106    
-807629.03      3.0561797      35.485269      25.866803      65.089572    
-807638.95      3.1545775      36.455234      25.901083      64.683904    
-807644.22      4.268371       36.105732      25.875283      64.278535    
-807638.59      3.0857673      35.816639      25.889314      63.873178    
-807633.17      3.4724337      35.102049      25.900535      63.467856    
-807621.82      3.2239836      35.012526      25.874175      63.062828    
-807613         3.6345443      36.490879      25.830023      62.65821     
-807608.59      3.1388793      36.704054      25.873875      62.253396    
-807617.78      3.505429       35.250966      25.88075       61.848642    
-807632.33      3.0376584      34.971437      25.844602      61.444235    
-807639.42      3.8738823      35.06901       25.845437      61.039923    
-807641.67      3.9281626      35.383283      25.854192      60.635654    
-807639.04      3.7031148      36.502028      25.84095       60.231571    
-807636.19      3.7181682      34.52213       25.82188       59.827708    
-807618.21      3.2699442      36.832259      25.778273      59.424218    
-807612.15      3.3041401      37.075229      25.83116       59.020482    
-807610.37      3.202213       36.970678      25.832684      58.616831    
-807620.72      2.9440055      36.958516      25.83563       58.213255    
-807631.55      3.3462398      35.79677       25.887811      57.809454    
-807639.36      3.4659424      35.949251      25.881653      57.405788    
-807641.76      3.0150738      35.69735       25.857862      57.002361    
-807641.38      3.3735613      35.376119      25.862449      56.599       
-807629.44      3.4765908      34.859304      25.870687      56.195684    
-807619.36      3.543409       35.273112      25.908423      55.792243    
-807611.19      4.0381765      36.769066      25.935905      55.38874     
-807613.25      3.3218772      37.165657      25.883281      54.985636    
-807621.8       4.5526743      35.974697      25.827376      54.582939    
-807634.01      3.7087587      34.966929      25.929029      54.179761    
-807640.36      3.9605748      35.491741      25.912277      53.776771    
-807643.25      3.8179392      35.169498      25.810718      53.37443     
-807637.89      3.668599       34.701463      25.843272      52.971993    
-807628.96      3.5778545      34.915191      25.885172      52.569416    
-807619.71      3.5158855      35.060982      25.886127      52.166922    
-807613.55      3.541661       36.765951      25.864331      51.76463     
-807614.38      3.1166539      35.476327      25.893715      51.362269    
-807624.34      3.2450939      34.711039      25.890002      50.960015    
-807636.4       4.1387382      34.59238       25.890344      50.557845    
-807639.8       2.9473108      35.74002       25.844149      50.155992    
-807643.57      3.111865       34.706148      25.85888       49.754146    
-807636.38      4.8630506      35.620981      25.863976      49.352355    
-807629.77      3.3113248      36.067403      25.858011      48.950673    
-807618.02      3.7611459      35.218582      25.828168      48.549215    
-807612.05      4.3371443      36.654913      25.836744      48.147791    
-807613.44      3.4589802      36.109394      25.839374      47.74643     
-807626.95      3.4609397      34.841881      25.848362      47.345103    
-807634.31      4.0900787      35.500947      25.829026      46.943941    
-807642.64      3.0106748      34.929234      25.837093      46.542814    
-807640.32      4.7096164      36.318741      25.815101      46.141861    
-807641         3.3440002      34.423509      25.819659      45.740958    
-807628.03      3.1962013      35.143378      25.849893      45.339992    
-807617.94      3.1737426      35.315715      25.897242      44.938892    
-807610.15      3.6298029      36.906504      25.868028      44.537996    
-807616.44      2.9470781      35.899549      25.862196      44.137197    
-807628.35      3.5303392      34.115976      25.869944      43.736439    
-807634.5       3.209241       34.573829      25.906318      43.335602    
-807641.11      4.3635114      34.052093      25.878963      42.934953    
-807642.06      3.0971305      34.59424       25.890826      42.534328    
-807638.72      4.528419       33.974586      25.912408      42.133689    
-807623.07      3.5948955      35.347409      25.921631      41.733089    
-807615.06      5.0835213      37.042402      25.909895      41.33261     
-807612.94      3.7843003      36.60531       25.897865      40.93225     
-807616.84      4.3675248      37.348458      25.839394      40.532186    
-807624.85      4.1461976      35.921339      25.83498       40.132203    
-807635.01      2.8387848      36.085986      25.850484      39.732228    
-807639.62      3.4425016      35.714704      25.893723      39.332158    
-807641.08      3.075297       35.459328      25.928548      38.932031    
-807630.51      3.1824677      35.8455        25.925769      38.531985    
-807626.33      2.779659       35.426961      25.926177      38.132009    
-807614.79      4.0970119      37.06259       25.925013      37.732108    
-807614.96      3.1685384      36.687913      25.92576       37.332274    
-807616.42      4.5459055      36.743149      25.922366      36.932521    
-807628.35      3.2427858      35.696567      25.93401       36.532797    
-807635.2       3.5877838      36.117213      25.911295      36.133218    
-807638.38      3.2773395      35.989806      25.880805      35.733804    
-807636.49      3.6020515      35.462171      25.903401      35.334382    
-807632.13      3.1769676      35.430302      25.889565      34.935068    
-807624.17      3.5608458      35.273122      25.935979      34.535672    
-807614.6       3.2782436      37.093375      25.933226      34.136351    
-807613.96      3.8377263      36.104745      25.910873      33.737165    
-807620.3       2.9612697      35.747438      25.923882      33.338003    
-807630.55      3.5132807      34.355811      25.933137      32.938878    
-807634.82      3.4151673      34.764064      25.914887      32.539871    
-807637.55      3.2819275      35.493382      25.926699      32.140893    
-807638.01      3.0362785      34.805476      25.967018      31.741863    
-807632.83      2.7902792      34.454675      25.960276      31.342919    
-807620.02      3.6102379      35.885914      25.919292      30.944153    
-807615.08      3.2797031      36.39225       25.933122      30.54541     
-807617.19      3.5180743      36.421266      25.988543      30.146582    
-807623         2.9600124      35.541877      25.960036      29.747894    
-807630.17      2.9696011      35.126748      25.943921      29.349311    
-807638.48      3.178774       34.378921      25.941993      28.950795    
-807640.34      3.3854876      34.958305      25.960483      28.552294    
-807639.15      3.8293924      34.442617      25.921831      28.153949    
-807628.53      4.0025432      35.094368      25.919992      27.755668    
-807623.07      2.7830798      34.550753      25.927492      27.357426    
-807616.25      3.2465064      35.756435      25.923563      26.959252    
-807617.81      3.5279007      35.987317      25.92576       26.56113     
-807622.92      3.4805554      34.786         25.921643      26.163075    
-807632.42      3.0647942      34.276524      25.925093      25.765068    
-807639.33      4.22954        34.966051      25.928999      25.367109    
-807641.73      2.8801206      34.209374      25.921362      24.969223    
-807634.91      2.889488       34.689539      25.911787      24.571412    
-807630.6       3.1011157      34.636561      25.896823      24.173687    
-807623.93      2.5850749      34.878298      25.911633      23.775984    
-807616.03      3.8994025      35.66991       25.880632      23.378396    
-807618.87      3.4305107      35.975975      25.907755      22.980806    
-807625.28      3.9593451      35.416624      25.938915      22.583208    
-807634.66      3.4961126      34.61419       25.916285      22.185707    
-807638.23      2.9233388      34.992737      25.893582      21.788301    
-807638.85      3.4939759      34.266706      25.940926      21.390859    
-807634.49      2.6519623      34.481033      25.952362      20.993451    
-807629.93      3.0987554      34.641525      25.934104      20.596128    
-807619.18      2.8166326      35.538046      25.990968      20.198762    
-807617.8       3.0053413      35.574778      26.027617      19.801391    
-807617.5       3.4030347      36.354053      25.980239      19.404156    
-807627.71      3.9806415      35.385843      25.964334      19.006999    
-807632.91      3.2243532      35.636559      25.982743      18.609867    
-807636.36      4.0848558      36.125069      25.960361      18.212823    
-807637.93      3.273951       35.746931      25.956883      17.815837    
-807632.92      3.7516583      36.007361      25.930272      17.418939    
-807627.7       3.7293824      35.631793      25.927647      17.022095    
-807619.01      3.0071978      36.309807      25.958272      16.625258    
-807617.99      3.4265676      36.270215      25.921686      16.228519    
-807619.74      3.1671666      36.476771      25.959335      15.83178     
-807627.43      2.7988578      35.282293      25.926164      15.435132    
-807632.8       2.986488       34.996481      25.953778      15.038498    
-807638.29      3.7433466      35.75769       25.940744      14.641929    
-807636.62      3.7653805      35.607946      25.948915      14.245398    
-807632.41      3.8262025      35.662017      25.907423      13.848961    
-807624.47      3.8837796      36.232877      25.89709       13.45258     
-807616.38      2.9980437      37.073718      25.868204      13.056274    
-807615.86      3.5275347      36.532068      25.930629      12.659945    
-807619.88      2.7998983      36.629277      25.980376      12.263614    
-807625.45      2.8969057      35.853484      25.940448      11.867368    
-807634.47      2.9092811      35.336749      25.9144        11.471193    
-807638.19      3.1495215      35.522631      25.926582      11.07505     
-807636.27      3.5550974      36.336506      25.922883      10.678954    
-807632.4       3.5850394      35.801408      25.959062      10.282873    
-807623.88      3.4052039      36.807359      25.949084      9.8868446    
-807620.69      3.8336045      36.530033      25.937205      9.4908702    
-807615.01      3.6796436      36.969554      25.941806      9.0949364    
-807620.93      3.4627165      36.058559      25.981338      8.6990192    
-807627.52      3.362702       35.538819      25.930512      8.3031812    
-807635.25      3.1381114      35.512181      25.952423      7.9073721    
-807636         4.3082771      35.117792      25.954169      7.5116055    
-807635.91      3.6560556      35.940768      25.955721      7.1158816    
-807631.53      3.3342584      35.084002      25.974763      6.720191     
-807625.83      4.3889766      35.760731      25.987152      6.3245385    
-807619.6       3.2236346      35.810974      26.006047      5.9289221    
-807618.85      4.3601754      36.384972      26.007223      5.5333509    
-807622.9       3.4159634      35.605705      25.951765      5.1378471    
-807630.64      3.3681165      35.321954      25.936129      4.7423906    
-807636.19      3.1280447      35.980022      25.921569      4.3469795    
-807637.19      3.9649738      35.027854      25.912547      3.9516104    
-807635.07      3.8444732      35.508859      25.891321      3.5562857    
-807632.5       2.766492       34.411926      25.918796      3.1609912    
-807624.81      3.852822       35.12885       25.904381      2.7657383    
-807618.71      3.423848       35.765184      25.929291      2.3705181    
-807620.26      3.4894054      35.975309      25.957801      1.9753323    
-807625.12      3.0919846      35.438573      26.001239      1.5801814    
-807632.13      3.7349402      35.304563      25.922085      1.1850801    
-807637.06      3.0498303      34.843129      25.915113      0.79001664   
-807638.38      3.4493606      35.242908      25.936782      0.39498937   
-807635.83      3.1810807      35.356746      25.909739      0            
Loop time of 197.486 on 32 procs for 5000 steps with 1080 atoms

Performance: 4.375 ns/day, 5.486 hours/ns, 25.318 timesteps/s, 27.344 katom-step/s
67.1% CPU use with 32 MPI tasks x 1 OpenMP threads

MPI task timing breakdown:
Section |  min time  |  avg time  |  max time  |%varavg| %total
---------------------------------------------------------------
Pair    | 101.95     | 144.62     | 192.9      | 318.0 | 73.23
Neigh   | 0          | 0          | 0          |   0.0 |  0.00
Comm    | 2.2819     | 50.527     | 93.195     | 537.9 | 25.59
Output  | 0.029364   | 0.030213   | 0.031574   |   0.3 |  0.02
Modify  | 1.9466     | 1.9838     | 2.0055     |   1.3 |  1.00
Other   |            | 0.3225     |            |       |  0.16

Nlocal:          33.75 ave          48 max          21 min
Histogram: 8 8 0 0 0 0 0 8 0 8
Nghost:        1106.25 ave        1119 max        1092 min
Histogram: 8 0 8 0 0 0 0 0 8 8
Neighs:              0 ave           0 max           0 min
Histogram: 32 0 0 0 0 0 0 0 0 0
FullNghs:       5494.5 ave        7896 max        3378 min
Histogram: 8 8 0 0 0 0 0 8 0 8

Total # of neighbors = 175824
Ave neighs/atom = 162.8
Neighbor list builds = 0
Dangerous builds = 0

reset_timestep 0


variable interval equal 1000
thermo 10

variable nintervals equal $(v_PERIOD/v_interval)
variable nintervals equal 100
variable efield equal 1e-2*36.36*cos((step/${PERIOD})*2*3.14)
variable efield equal 1e-2*36.36*cos((step/100000)*2*3.14)
fix born all addbornforce 0.0 0.0 v_efield

variable Px equal f_born[1]+c_polarization[1]
variable Py equal f_born[2]+c_polarization[2]
variable Pz equal (f_born[3]+c_polarization[3])/vol
variable pe equal pe

fix aveP all ave/time 1 $(v_interval/2) ${interval} v_efield v_Pz v_pe f_born file Pz.${MODEL}.${STRUCTURE}.${TEMP}.$L.${ITER}
fix aveP all ave/time 1 500 ${interval} v_efield v_Pz v_pe f_born file Pz.${MODEL}.${STRUCTURE}.${TEMP}.$L.${ITER}
fix aveP all ave/time 1 500 1000 v_efield v_Pz v_pe f_born file Pz.${MODEL}.${STRUCTURE}.${TEMP}.$L.${ITER}
fix aveP all ave/time 1 500 1000 v_efield v_Pz v_pe f_born file Pz.BaTiO3-E0.${STRUCTURE}.${TEMP}.$L.${ITER}
fix aveP all ave/time 1 500 1000 v_efield v_Pz v_pe f_born file Pz.BaTiO3-E0.BaTiO3-sc333.${TEMP}.$L.${ITER}
fix aveP all ave/time 1 500 1000 v_efield v_Pz v_pe f_born file Pz.BaTiO3-E0.BaTiO3-sc333.330.$L.${ITER}
fix aveP all ave/time 1 500 1000 v_efield v_Pz v_pe f_born file Pz.BaTiO3-E0.BaTiO3-sc333.330.2.${ITER}
fix aveP all ave/time 1 500 1000 v_efield v_Pz v_pe f_born file Pz.BaTiO3-E0.BaTiO3-sc333.330.2.2

thermo_style custom step time temp press pe f_born v_efield v_Pz spcpu cpuremain

# dump 4a all custom 1000 dump.hyst.${MODEL}.${STRUCTURE}.${TEMP}.$L.${ITER}.bin id type xu yu zu fx fy fz
# dump_modify 4a sort id

fix nvt all nvt temp ${TEMP} ${TEMP} $(100*dt)
fix nvt all nvt temp 330 ${TEMP} $(100*dt)
fix nvt all nvt temp 330 330 $(100*dt)
fix nvt all nvt temp 330 330 0.2000000000000000111

run $(v_PERIOD)
run 100000
WARNING: non-constant efield is experimental, strongly distrust scalar/vector output (src/fix_addbornforce.cpp:193)
Per MPI rank memory allocation (min/avg/max) = 3.516 | 3.516 | 3.516 Mbytes
   Step          Time           Temp          Press          PotEng         f_born        v_efield         v_Pz          S/CPU         CPULeft    
         0   0              323.08138      129823.61     -807635.83     -296.44962      0.3636         0.055753808    0              0            
        10   0.02           321.49417      133118.87     -807629.83     -302.35353      0.36359993     0.056864179    28.378094      3523.5162    
        20   0.04           320.70273      140537.75     -807621.46     -310.54768      0.36359971     0.058405302    28.363697      3524.044     
        30   0.06           317.80267      141360.96     -807619.74     -311.93475      0.36359935     0.058666228    28.287923      3527.1317    
        40   0.08           320.35388      142698.48     -807619.19     -312.62017      0.36359885     0.058795219    28.310369      3527.8017    
        50   0.1            322.97064      136455.11     -807626.14     -306.04155      0.36359821     0.057558064    28.247474      3529.6321    
        60   0.12           325.56223      133380.87     -807631.06     -301.19872      0.36359742     0.056647383    28.203312      3531.6592    
        70   0.14           314.4782       126425.75     -807636.41     -294.15652      0.36359649     0.055323076    28.205906      3532.9579    
        80   0.16           316.62394      127956.58     -807636.81     -293.7558       0.36359541     0.055247874    28.291735      3532.5005    
        90   0.18           318.3853       128642.03     -807634.9      -295.80244      0.36359419     0.055632981    28.285051      3532.1589    
       100   0.2            326.98681      135789.97     -807626.82     -304.81747      0.36359283     0.057328697    28.281039      3531.8655    
       110   0.22           333.07936      139489.02     -807623.78     -308.49447      0.36359132     0.05802049     28.278269      3531.5918    
       120   0.24           325.29188      142884.37     -807618.27     -312.60254      0.36358968     0.058793388    28.289466      3531.1887    
       130   0.26           339.38592      140135.78     -807621.45     -311.09418      0.36358788     0.058509987    28.27818       3530.9015    
       140   0.28           337.32466      137900.17     -807625.19     -306.78157      0.36358595     0.057699188    28.304716      3530.3684    
       150   0.3            338.03359      131188.16     -807632.83     -298.95813      0.36358387     0.056228083    28.354025      3529.4502    
       160   0.32           321.43332      128814.49     -807635.08     -294.12703      0.36358165     0.055319788    28.372605      3528.4587    
       170   0.34           329.86482      127264.84     -807636.48     -293.72869      0.36357928     0.055245228    28.372375      3527.544     
       180   0.36           335.11727      130702.61     -807632.72     -298.0301       0.36357677     0.056054634    28.351498      3526.8357    
       190   0.38           337.59994      135013.89     -807626.48     -304.51302      0.36357412     0.057274384    28.376322      3526.0027    
       200   0.4            339.59109      139933.92     -807621.6      -309.55972      0.36357132     0.058224042    28.409733      3525.011     
       210   0.42           340.19763      142802.39     -807618.27     -312.87018      0.36356838     0.05884717     28.395377      3524.165     
       220   0.44           331.30968      140644.13     -807619.08     -310.77597      0.3635653      0.058453769    28.360427      3523.5603    
       230   0.46           336.3547       136282.78     -807625.08     -305.38194      0.36356207     0.057439717    28.332698      3523.1274    
       240   0.48           330.61985      129881.31     -807632.57     -297.08104      0.3635587      0.055878907    28.346935      3522.6276    
       250   0.5            331.68732      128549.74     -807635.31     -294.40005      0.36355519     0.055375167    28.367141      3522.0392    
       260   0.52           321.18265      127217.27     -807634.19     -294.13055      0.36355153     0.055325032    28.350297      3521.5491    
       270   0.54           338.14285      131983        -807631.82     -298.79375      0.36354773     0.056202752    28.341397      3521.1104    
       280   0.56           340.3333       135302.31     -807626.83     -304.22393      0.36354379     0.057224784    28.323882      3520.7554    
       290   0.58           334.30819      141662.76     -807618.48     -311.70059      0.3635397      0.058631809    28.362876      3520.2337    
       300   0.6            341.67677      141528.01     -807618.46     -312.83588      0.36353547     0.058846044    28.365574      3519.7121    
       310   0.62           336.12529      141284.98     -807619.99     -310.51429      0.3635311      0.058410044    28.359208      3519.2269    
       320   0.64           343.53275      133968.23     -807629.03     -302.60885      0.36352658     0.056923681    28.36844       3518.7141    
       330   0.66           324.91646      131546.97     -807630.96     -298.07677      0.36352192     0.056071871    28.354215      3518.2645    
       340   0.68           328.75345      127573.84     -807635.62     -294.10774      0.36351712     0.055325978    28.294033      3518.0406    
       350   0.7            330.92876      129240.33     -807635.13     -294.91527      0.36351217     0.055478641    28.328354      3517.6873    
       360   0.72           333.34898      131120.79     -807632.07     -298.40049      0.36350708     0.056135057    28.328225      3517.3344    
       370   0.74           342.6281       137602.01     -807625.04     -306.82186      0.36350185     0.057720115    28.299105      3517.0794    
       380   0.76           317.5665       141295.29     -807617.3      -311.24836      0.36349647     0.058553707    28.340746      3516.6831    
       390   0.78           353.42796      141688.22     -807621.65     -311.906        0.36349095     0.058678317    28.298948      3516.4221    
       400   0.8            325.32589      139050.98     -807621.75     -308.03603      0.36348529     0.057951168    28.287806      3516.1911    
       410   0.82           329.25723      135077.08     -807627.15     -303.28063      0.36347948     0.057057442    28.304464      3515.9036    
       420   0.84           336.88422      130064.28     -807634.28     -297.21466      0.36347353     0.05591714     28.31043       3515.5954    
       430   0.86           318.21923      127574.41     -807635.94     -293.06015      0.36346744     0.055136446    28.351487      3515.1666    
       440   0.88           332.0109       128610.44     -807636.61     -294.39104      0.3634612      0.055387792    28.383882      3514.6502    
       450   0.9            320.96663      132854.41     -807628.76     -300.84972      0.36345482     0.056603944    28.335771      3514.2734    
       460   0.92           342.4317       137407.45     -807625.17     -307.56058      0.3634483      0.057867611    28.358388      3513.8367    
       470   0.94           325.5858       141048.02     -807619.42     -311.12992      0.36344163     0.058540256    28.385531      3513.3322    
       480   0.96           333.55218      142112.17     -807620.33     -311.35782      0.36343482     0.058584236    28.370531      3512.8727    
       490   0.98           324.29318      138752.45     -807622        -308.58728      0.36342786     0.058064049    28.40177       3512.3388    
       500   1              327.25964      134484.96     -807627.77     -303.26507      0.36342077     0.057063731    28.388317      3511.8454    
       510   1.02           336.99302      128661.88     -807637.08     -9453.6921      0.36341353     0.055590158    28.292652      3511.5898    
       520   1.04           316.2353       127339.85     -807636.61     -9379.7797      0.36340614     0.055156654    28.302232      3511.3077    
       530   1.06           327.29774      128730.31     -807635.84     -9458.0416      0.36339862     0.055618016    28.264771      3511.1107    
       540   1.08           328.3846       133356.58     -807630.09     -9651.8764      0.36339095     0.056759059    28.278007      3510.8774    
       550   1.1            328.11735      137096.41     -807625.53     -9804.7553      0.36338313     0.057659322    28.247022      3510.7099    
       560   1.12           322.69115      142181.03     -807620.18     -9955.7256      0.36337518     0.058548423    28.23155       3510.5701    
       570   1.14           324.02644      140843.85     -807619.98     -9975.9561      0.36336707     0.058668704    28.222151      3510.4434    
       580   1.16           320.55276      139431.05     -807622.15     -9895.1297      0.36335883     0.058194683    28.225918      3510.3008    
       590   1.18           321.2947       132412.73     -807631.24     -9614.2615      0.36335044     0.056544163    28.19557       3510.2152    
       600   1.2            328.54238      130107.29     -807636.01     -9498.6223      0.36334191     0.055865367    28.235447      3510.0377    
       610   1.22           315.84963      125914.92     -807637.55     -9402.9774      0.36333324     0.05530416     28.25196       3509.8207    
       620   1.24           325.51335      129120.04     -807635.97     -9500.9195      0.36332442     0.055881568    28.234261      3509.6349    
       630   1.26           317.22786      132317.82     -807632.54     -9585.0043      0.36331546     0.05637752     28.257676      3509.3973    
       640   1.28           319.64303      138730.34     -807624.93     -9846.7157      0.36330636     0.057918317    28.266953      3509.1381    
       650   1.3            329.48717      139350.66     -807623.48     -9946.1335      0.36329711     0.058504581    28.283833      3508.8437    
       660   1.32           319.504        141409.43     -807621.6      -9964.6083      0.36328772     0.058614768    28.269844      3508.5739    
       670   1.34           311.55956      136528.7      -807625.84     -9800.4099      0.36327819     0.057650417    28.214377      3508.4047    
       680   1.36           319.60613      133620.39     -807631.49     -9658.2498      0.36326851     0.056815681    28.229947      3508.2014    
       690   1.38           314.3222       128250.51     -807636.13     -9491.256       0.36325869     0.055834831    28.257876      3507.9434    
       700   1.4            302.88193      127971.35     -807635.97     -9444.8303      0.36324873     0.055563244    28.290969      3507.624     
       710   1.42           312.28697      128909.26     -807636.86     -9459.5906      0.36323863     0.055651626    28.264548      3507.3498    
       720   1.44           314.79317      133676.5      -807630.03     -9688.378       0.36322838     0.056999211    28.294419      3507.0219    
       730   1.46           330.76258      137608.71     -807626.33     -9877.4455      0.36321798     0.058113207    28.326812      3506.6383    
       740   1.48           315.56403      140314        -807622.06     -9943.3606      0.36320745     0.05850271     28.294391      3506.3098    
       750   1.5            317.06835      140259.5      -807623.07     -9909.3142      0.36319677     0.058304109    28.258016      3506.0408    
       760   1.52           324.00321      135622.78     -807627.44     -9795.3526      0.36318595     0.057635303    28.268086      3505.7531    
       770   1.54           314.42056      133041.38     -807630.46     -9647.3648      0.36317498     0.056766265    28.348164      3505.335     
       780   1.56           311.43907      126967.94     -807636.3      -9436.3898      0.36316387     0.055526561    28.310553      3504.9781    
       790   1.58           318.28021      128290.54     -807637.58     -9411.045       0.36315262     0.05537914     28.317798      3504.61      
       800   1.6            313.90245      129734.71     -807633.4      -9515.614       0.36314122     0.055996232    28.323708      3504.2331    
       810   1.62           325.30194      136473.58     -807627.48     -9741.1074      0.36312968     0.057325007    28.305628      3503.8844    
       820   1.64           336.84073      137807.33     -807625.02     -9859.799       0.363118       0.058025357    28.237953      3503.638     
       830   1.66           323.90316      142348.27     -807619.87     -9954.2137      0.36310618     0.0585829      28.25811       3503.3589    
       840   1.68           321.92764      138764.28     -807621.42     -9888.6764      0.36309421     0.058199115    28.236895      3503.1093    
       850   1.7            325.97485      137764.68     -807624.24     -9805.9502      0.3630821      0.057714161    28.281553      3502.7921    
       860   1.72           329.35663      130601.96     -807632.57     -9548.7721      0.36306984     0.056202403    28.264894      3502.498     
       870   1.74           333.59632      129574.36     -807635.88     -9453.3265      0.36305745     0.055642528    28.266763      3502.1999    
       880   1.76           322.15216      127704.29     -807635.16     -9424.218       0.3630449      0.05547311     28.283581      3501.8768    
       890   1.78           328.20547      132502.87     -807631.08     -9577.1391      0.36303222     0.056375209    28.264029      3501.5803    
       900   1.8            329.9668       135305.96     -807627.39     -9700.5063      0.36301939     0.057103419    28.239401      3501.3166    
       910   1.82           330.68823      139932.3      -807622.04     -9870.1121      0.36300642     0.058103904    28.282503      3500.992     
       920   1.84           331.74123      140685.11     -807620.62     -9917.8949      0.36299331     0.058387304    28.270073      3500.6835    
       930   1.86           333.57409      139837.17     -807621.28     -9899.0458      0.36298005     0.058278467    28.228539      3500.4295    
       940   1.88           338.48038      135101.45     -807627.42     -9722.1674      0.36296665     0.057239247    28.23753       3500.1615    
       950   1.9            334.85491      132039.24     -807632.84     -9528.6928      0.36295311     0.056102258    28.271228      3499.8477    
       960   1.92           326.46747      129636.32     -807634.11     -9446.5759      0.36293942     0.055620875    28.338648      3499.4462    
       970   1.94           330.27065      128828.34     -807634.06     -9461.8735      0.36292559     0.055713069    28.340359      3499.0436    
       980   1.96           335.35636      131968.1      -807631.68     -9556.5723      0.36291162     0.056272838    28.230737      3498.7804    
       990   1.98           329.07102      136651.78     -807625.87     -9712.9701      0.3628975      0.057195994    28.243896      3498.4989    
      1000   2              345.71165      140089.92     -807622.24     -9901.5925      0.36288325     0.05830901     28.151354      3498.3311    
      1010   2.02           337.10877      140915.05     -807619.75     -310.64069      0.36286884     0.058540466    28.263571      3498.0214    
      1020   2.04           343.58495      139172        -807623.81     -307.41364      0.3628543      0.057934648    28.236132      3497.7442    
      1030   2.06           339.86992      134844.09     -807628.78     -301.86163      0.36283961     0.056890629    28.280408      3497.4123    
      1040   2.08           329.41374      131373.74     -807631.56     -297.57999      0.36282478     0.056085979    28.301807      3497.0544    
      1050   2.1            328.73375      129305.34     -807634.05     -295.00547      0.3628098      0.055603045    28.354024      3496.6354    
      1060   2.12           316.42818      130080.56     -807631.85     -295.42003      0.36279469     0.055683501    28.308314      3496.2707    
      1070   2.14           333.04001      132774.43     -807631.4      -298.16349      0.36277943     0.056202979    28.322134      3495.8903    
      1080   2.16           333.2013       137485.47     -807624.26     -305.3224       0.36276402     0.057554857    28.36064       3495.4666    
      1090   2.18           341.74794      140376.77     -807621.06     -309.72778      0.36274848     0.058387796    28.41033       3494.9881    
      1100   2.2            340.56285      140681.33     -807620.52     -310.04864      0.36273279     0.05845081     28.406706      3494.516     
      1110   2.22           343.82783      136617.33     -807625.26     -305.70063      0.36271695     0.057633633    28.417423      3494.0342    
      1120   2.24           343.88584      135114.66     -807628.5      -302.53402      0.36270098     0.057039146    28.394273      3493.5801    
      1130   2.26           336.61557      131412.96     -807631.83     -298.26345      0.36268486     0.05623648     28.37495       3493.1488    
      1140   2.28           326.76291      128973.04     -807634        -294.70051      0.3626686      0.055567192    28.380518      3492.7129    
      1150   2.3            330.78682      129199.78     -807635.42     -293.92376      0.36265219     0.055423239    28.341295      3492.3203    
      1160   2.32           322.14797      134051.65     -807628.43     -299.83999      0.36263564     0.056541402    28.302483      3491.9696    
      1170   2.34           337.35967      137363.24     -807624.58     -305.90278      0.36261895     0.057687331    28.31375       3491.6071    
      1180   2.36           329.03196      139960.82     -807620.57     -308.86403      0.36260212     0.058248469    28.292568      3491.2668    
      1190   2.38           336.37759      140659.29     -807622.68     -307.90003      0.36258514     0.058069388    28.287124      3490.9319    
      1200   2.4            331.35049      138255.42     -807623.24     -306.77333      0.36256802     0.057859626    28.290147      3490.5937    
      1210   2.42           334.5423       134982.02     -807627.67     -302.94173      0.36255076     0.05713968     28.301091      3490.244     
      1220   2.44           333.51015      130612.5      -807633.99     -296.64973      0.36253335     0.055955594    28.265619      3489.9302    
      1230   2.46           329.74961      128779.77     -807636        -294.31816      0.3625158      0.055518488    28.243946      3489.6375    
      1240   2.48           323.54401      129899.37     -807633.66     -296.08052      0.36249811     0.055853656    28.262383      3489.3254    
      1250   2.5            320.05711      133660.62     -807627.89     -301.55706      0.36248028     0.056889567    28.276264      3488.9989    
      1260   2.52           329.14527      136575.94     -807626.59     -304.41656      0.3624623      0.057431868    28.268822      3488.6793    
      1270   2.54           316.11651      140751.04     -807620.96     -308.37074      0.36244418     0.058180781    28.257709      3488.37      
      1280   2.56           328.02109      139470.24     -807621.9      -309.33689      0.36242592     0.058366007    28.291891      3488.027     
      1290   2.58           323.73982      138297.02     -807623.72     -307.01668      0.36240751     0.05793117     28.323697      3487.6535    
      1300   2.6            330.44575      132464.46     -807631.41     -300.4286       0.36238896     0.056690963    28.291053      3487.3112    
      1310   2.62           321.27198      130526.92     -807634.31     -296.36084      0.36237027     0.05592626     28.27904       3486.9801    
      1320   2.64           318.00164      128479.4      -807635.45     -295.00094      0.36235143     0.055672527    28.275326      3486.6521    
      1330   2.66           303.90551      131124.88     -807631.26     -297.27659      0.36233245     0.056104926    28.29892       3486.3018    
      1340   2.68           326.25365      131896.78     -807632.43     -299.36914      0.36231333     0.056502835    28.315738      3485.936     
      1350   2.7            312.34285      137597.61     -807624.55     -305.28772      0.36229407     0.057622969    28.303815      3485.5813    
      1360   2.72           328.06717      138547.94     -807624.11     -307.99161      0.36227466     0.058136442    28.381632      3485.1564    
      1370   2.74           328.05105      140078.77     -807622.61     -309.37815      0.36225511     0.058401316    28.399223      3484.7167    
      1380   2.76           332.84573      135697.37     -807628.46     -304.22918      0.36223542     0.057432467    28.367389      3484.3067    
      1390   2.78           332.91361      134975.25     -807631.99     -300.57797      0.36221558     0.056746299    28.377267      3483.8887    
      1400   2.8            325.29397      128856.35     -807635.04     -296.44799      0.3621956      0.055969684    28.361854      3483.4851    
      1410   2.82           316.07634      129586.69     -807633.58     -296.42851      0.36217548     0.055969115    28.38534       3483.0619    
      1420   2.84           306.18422      129936.73     -807633.63     -294.94901      0.36215522     0.055692885    28.368175      3482.6545    
      1430   2.86           321.61078      133558.58     -807630.58     -299.88051      0.36213481     0.056627252    28.393186      3482.2264    
      1440   2.88           324.29991      135588.23     -807625.49     -305.17272      0.36211426     0.057629864    28.370131      3481.819     
      1450   2.9            323.21954      140621.75     -807620.83     -309.32874      0.36209357     0.058418039    28.284531      3481.4848    
      1460   2.92           322.98396      138687.5      -807623.05     -306.74534      0.36207273     0.057933488    28.281134      3481.1533    
      1470   2.94           335.19695      137743.81     -807625.97     -305.02585      0.36205176     0.057612073    28.276376      3480.8254    
      1480   2.96           324.54382      133191.04     -807628.9      -300.26841      0.36203064     0.056716816    28.291394      3480.4847    
      1490   2.98           326.27056      131133.81     -807631.63     -297.27848      0.36200937     0.056155354    28.300447      3480.1363    
      1500   3              326.54886      129247.61     -807635.24     -293.25043      0.36198796     0.05539774     28.303977      3479.785     
      1510   3.02           322.5472       131723.8      -807631.82     -9465.195       0.36196642     0.055880313    28.305012      3479.4328    
      1520   3.04           347.09569      133870.13     -807629.65     -9634.003       0.36194472     0.056880325    28.24807       3479.1267    
      1530   3.06           331.14423      139095.92     -807621.86     -9804.8483      0.36192289     0.057892509    28.179         3478.8759    
      1540   3.08           337.07459      139704.23     -807621.63     -9832.0415      0.36190091     0.058056595    28.117272      3478.6735    
      1550   3.1            335.51667      139947.42     -807622.38     -9796.4816      0.36187879     0.057850156    28.186045      3478.414     
      1560   3.12           342.45423      137272.3      -807624.56     -9755.7014      0.36185653     0.057612886    28.237535      3478.1125    
      1570   3.14           341.71265      133970.53     -807629.27     -9598.1017      0.36183412     0.056685681    28.253532      3477.7977    
      1580   3.16           335.02387      129953.85     -807632.98     -9447.0408      0.36181157     0.055797003    28.264425      3477.474     
      1590   3.18           331.32595      129970.75     -807633.8      -9402.6797      0.36178888     0.055538477    28.271529      3477.1443    
      1600   3.2            336.32682      130730.68     -807631.71     -9493.1974      0.36176605     0.056076674    28.287934      3476.8018    
      1610   3.22           345.24963      134565.62     -807627.76     -9659.8224      0.36174307     0.057064558    28.275789      3476.4684    
      1620   3.24           334.31668      137099.76     -807623.97     -9733.4097      0.36171995     0.057502943    28.243796      3476.159     
      1630   3.26           328.37086      141461.98     -807620.24     -9823.7165      0.36169669     0.05804019     28.242726      3475.85      
      1640   3.28           336.37382      139187.81     -807621.26     -9830.9417      0.36167329     0.058086636    28.28899       3475.5056    
      1650   3.3            347.81807      137267.86     -807624.38     -9783.4454      0.36164974     0.057809766    28.341699      3475.1219    
      1660   3.32           333.57624      133129.92     -807629.83     -9547.2234      0.36162605     0.05641764     28.303882      3474.7666    
      1670   3.34           319.46129      131252.26     -807630.78     -9453.2244      0.36160222     0.055865851    28.296773      3474.4165    
      1680   3.36           330.20023      129876.07     -807633.39     -9421.0823      0.36157824     0.055679592    28.306551      3474.0592    
      1690   3.38           341.10322      130935.88     -807632.33     -9507.1084      0.36155413     0.056191764    28.300263      3473.7065    
      1700   3.4            339.83179      134081.66     -807628.68     -9621.3034      0.36152987     0.056870529    28.249251      3473.3908    
      1710   3.42           337.90395      137176.45     -807624.65     -9747.2245      0.36150546     0.057618725    28.219159      3473.0962    
      1720   3.44           331.28442      140337.08     -807620.65     -9847.4708      0.36148092     0.058215263    28.275103      3472.761     
      1730   3.46           333.23383      138596.33     -807623.09     -9786.5097      0.36145623     0.057858831    28.228789      3472.4584    
      1740   3.48           333.94899      136929.14     -807625.73     -9708.9458      0.3614314      0.057404209    28.279442      3472.1194    
      1750   3.5            323.59504      131707.61     -807630.17     -9525.609       0.36140643     0.056324121    28.283274      3471.7776    
      1760   3.52           319.54906      132157.73     -807631.45     -9469.1682      0.36138131     0.055994282    28.283648      3471.4354    
      1770   3.54           318.5807       128988.29     -807633.27     -9413.3028      0.36135605     0.055667823    28.258451      3471.1105    
      1780   3.56           338.33766      132581.52     -807632.02     -9544.805       0.36133065     0.056449461    28.24642       3470.7937    
      1790   3.58           338.46749      133570.12     -807630.12     -9614.7249      0.36130511     0.056866997    28.238176      3470.4821    
      1800   3.6            325.84186      139692.67     -807622.34     -9809.2035      0.36127942     0.05802138     28.196969      3470.1982    
      1810   3.62           331.99642      137814.26     -807624.08     -9787.9447      0.3612536      0.057899774    28.200923      3469.9109    
      1820   3.64           316.71817      139393.36     -807621.29     -9810.2352      0.36122763     0.058035803    28.235269      3469.5996    
      1830   3.66           333.12683      134480.08     -807629.44     -9629.1702      0.36120151     0.05696877     28.280246      3469.2575    
      1840   3.68           315.47074      133274.75     -807628.92     -9566.447       0.36117526     0.056601797    28.253739      3468.9331    
      1850   3.7            318.55468      128690.92     -807633.99     -9421.1733      0.36114886     0.05574633     28.228572      3468.6251    
      1860   3.72           321.02659      130203.66     -807634.54     -9415.2551      0.36112232     0.055715406    28.24763       3468.3039    
      1870   3.74           325.65996      131246.26     -807631.56     -9536.1633      0.36109564     0.056435058    28.245133      3467.9841    
      1880   3.76           333.5968       135243.67     -807627.96     -9687.7717      0.36106881     0.057336537    28.230064      3467.6738    
      1890   3.78           319.56592      138538.8      -807623.28     -9775.6683      0.36104184     0.05786107     28.218803      3467.3703    
      1900   3.8            314.83156      139586.59     -807622.08     -9793.7571      0.36101474     0.057972488    28.242866      3467.0507    
      1910   3.82           330.66637      138467.87     -807624.86     -9776.3154      0.36098748     0.057873614    28.286889      3466.7024    
      1920   3.84           327.51447      133975.36     -807628.58     -9642.7816      0.36096009     0.057087456    28.278353      3466.3596    
      1930   3.86           309.69025      131541.61     -807630.75     -9492.313       0.36093255     0.056200935    28.282084      3466.0143    
      1940   3.88           320.18806      129088.82     -807635.66     -9381.8881      0.36090487     0.055551404    28.280173      3465.67      
      1950   3.9            308.48097      130419.31     -807631.59     -9458.3469      0.36087705     0.056008444    28.285185      3465.3226    
      1960   3.92           332.75342      132092.78     -807632.03     -9550.7416      0.36084909     0.056559951    28.331616      3464.9461    
      1970   3.94           321.34955      135604.44     -807626.55     -9670.4119      0.36082098     0.057273105    28.297695      3464.5909    
      1980   3.96           323.45867      138002.28     -807623.47     -9773.3052      0.36079273     0.057887024    28.291523      3464.2395    
      1990   3.98           328.92208      139245.77     -807622.64     -9817.5698      0.36076434     0.058153778    28.310911      3463.8762    
      2000   4              338.83526      137703.41     -807625.42     -9760.2725      0.36073581     0.057818953    28.274684      3463.5355    
      2010   4.02           334.43773      133433.87     -807630.25     -299.22818      0.36070713     0.056727713    28.337324      3463.1558    
      2020   4.04           321.12886      132255.48     -807631.56     -295.62504      0.36067831     0.056049107    28.339097      3462.7757    
      2030   4.06           329.69588      128598.69     -807634.88     -293.13849      0.36064935     0.055582131    28.332093      3462.4001    
      2040   4.08           321.94387      131646.69     -807630.71     -295.75617      0.36062025     0.056082997    28.314416      3462.0353    
      2050   4.1            340.94283      131730.71     -807632.57     -296.22905      0.36059101     0.056177223    28.285274      3461.688     
      2060   4.12           332.87391      137334.4      -807624.09     -303.09714      0.36056162     0.057484382    28.231945      3461.3724    
      2070   4.14           328.62711      138305.53     -807620.79     -305.5901       0.36053209     0.057961934    28.292887      3461.0203    
      2080   4.16           345.50243      140221.07     -807621.52     -306.79718      0.36050242     0.058195672    28.345795      3460.6371    
      2090   4.18           343.32507      136025.39     -807625.55     -302.34704      0.36047261     0.057356279    28.30339       3460.279     
      2100   4.2            335.52068      135842.91     -807626.39     -300.10825      0.36044265     0.056936305    28.354322      3459.8914    
      2110   4.22           343.00971      129473.1      -807632.56     -294.90315      0.36041256     0.055953469    28.363264      3459.4989    
      2120   4.24           341.02934      130272.68     -807633.64     -293.33957      0.36038232     0.055661473    28.336702      3459.1221    
      2130   4.26           342.55137      129515.63     -807633.74     -293.45827      0.36035193     0.055688692    28.334593      3458.7466    
      2140   4.28           336.70975      134137.08     -807628.25     -298.02834      0.36032141     0.05656073     28.349281      3458.3631    
      2150   4.3            339.01823      135750.51     -807623.67     -302.96558      0.36029075     0.057502628    28.343489      3457.9831    
      2160   4.32           344.04471      140258.97     -807621.11     -306.156        0.36025994     0.058113137    28.305057      3457.6251    
      2170   4.34           324.80286      140310.32     -807619.7      -304.99674      0.36022899     0.057898067    28.298283      3457.2709    
      2180   4.36           344.55426      138168.94     -807624.19     -303.22742      0.36019789     0.057567161    28.341929      3456.8923    
      2190   4.38           332.25739      133562.33     -807627.38     -298.41231      0.36016666     0.056657936    28.366725      3456.5001    
      2200   4.4            336.29679      132059.13     -807630.7      -295.58152      0.36013528     0.056125357    28.334117      3456.1264    
      2210   4.42           333.93368      128814.92     -807634.46     -291.63625      0.36010377     0.055381071    28.339663      3455.7498    
      2220   4.44           338.50047      131695.75     -807631.84     -294.95621      0.36007211     0.05601645     28.292752      3455.3992    
      2230   4.46           348.81069      133081.49     -807629.87     -298.59674      0.3600403      0.056712848    28.328572      3455.0289    
      2240   4.48           333.8365       137942.35     -807623.77     -302.79677      0.36000836     0.057515669    28.351543      3454.6463    
      2250   4.5            335.91083      139109.2      -807623.04     -304.04555      0.35997627     0.057758019    28.352306      3454.2636    
      2260   4.52           341.45914      138209.67     -807623.44     -304.60649      0.35994404     0.05786976     28.389184      3453.8613    
      2270   4.54           341.24751      135866.08     -807626.88     -301.31397      0.35991167     0.057249387    28.356804      3453.4768    
      2280   4.56           324.02637      133225.1      -807629.46     -296.57366      0.35987916     0.056353824    28.301616      3453.1221    
      2290   4.58           327.21228      130503.07     -807633.29     -293.34368      0.35984651     0.055745133    28.281034      3452.7783    
      2300   4.6            322.79762      129839.23     -807633.56     -292.66303      0.35981371     0.055620856    28.2888        3452.4303    
      2310   4.62           336.40838      131628.28     -807632.49     -295.82158      0.35978077     0.056226289    28.298747      3452.077     
      2320   4.64           329.91431      134735.38     -807628.29     -299.30817      0.35974769     0.05689421     28.311477      3451.717     
      2330   4.66           325.48177      138928.41     -807623.92     -303.21654      0.35971447     0.057642458    28.321669      3451.3518    
      2340   4.68           320.75211      139063.58     -807621.89     -304.77661      0.35968111     0.057944407    28.346177      3450.9739    
      2350   4.7            342.58434      138078.61     -807625.67     -304.0763       0.3596476      0.057816649    28.390642      3450.5733    
      2360   4.72           329.06068      134954.36     -807628.28     -299.72999      0.35961396     0.056995579    28.37315       3450.182     
      2370   4.74           319.80311      132756.38     -807630.12     -296.63695      0.35958017     0.056412719    28.3712        3449.7921    
      2380   4.76           323.20941      130101.18     -807633.41     -293.84913      0.35954624     0.055887821    28.36073       3449.4079    
      2390   4.78           319.73257      132168.22     -807632.03     -294.75648      0.35951216     0.056065706    28.365658      3449.0214    
      2400   4.8            322.77842      131493.35     -807632.02     -295.23665      0.35947795     0.056162384    28.310424      3448.6632    
      2410   4.82           323.57696      135026.31     -807628.21     -299.1357       0.35944359     0.056909533    28.27709       3448.3218    
      2420   4.84           317.4592       136512.46     -807623.99     -302.53697      0.35940909     0.057562138    28.327283      3447.9551    
      2430   4.86           331.01604      138530.21     -807624.02     -304.31835      0.35937446     0.057906652    28.32915       3447.5876    
      2440   4.88           337.66601      135934.32     -807627.15     -302.10946      0.35933967     0.057491902    28.321075      3447.2242    
      2450   4.9            313.94032      135887.84     -807625.38     -300.48049      0.35930475     0.057187463    28.294609      3446.874     
      2460   4.92           328.68236      131461.44     -807631.64     -296.25708      0.35926969     0.056389167    28.295134      3446.5236    
      2470   4.94           323.68858      131627.43     -807632.54     -294.5453       0.35923448     0.056068844    28.300677      3446.1704    
      2480   4.96           318.95507      130862.05     -807633.03     -293.38439      0.35919913     0.055853353    28.267181      3445.8337    
      2490   4.98           315.03031      133603.93     -807629.21     -296.5083       0.35916364     0.056453648    28.278392      3445.4913    
      2500   5              321.77837      135588.29     -807627.14     -299.43583      0.35912801     0.05701669     28.300112      3445.1383    
[...]
     98740   197.48         349.50815      133701.84     -807630.51     -9665.8185      0.36236891     0.057001363    29.534879      42.85679     
     98750   197.5          331.28221      134475.7      -807628.28     -9652.8259      0.36238762     0.056921805    29.559647      42.516634    
     98760   197.52         339.73673      133155.87     -807630.82     -9608.0989      0.36240618     0.056655153    29.574081      42.176476    
     98770   197.54         330.69268      134052.64     -807628.76     -9632.948       0.36242459     0.056798792    29.539273      41.836323    
     98780   197.56         342.79424      134593.67     -807629.16     -9673.0387      0.36244287     0.057032303    29.537176      41.496171    
     98790   197.58         332.81053      134993.36     -807627.09     -9692.7076      0.362461       0.057145412    29.494652      41.156025    
     98800   197.6          319.00913      135543.97     -807625.73     -9671.9411      0.36247899     0.057020149    29.511662      40.815877    
     98810   197.62         332.94601      134566.3      -807628.05     -9657.4202      0.36249683     0.056931739    29.521921      40.475728    
     98820   197.64         337.74354      134673.52     -807627.29     -9700.0955      0.36251453     0.057180523    29.626799      40.135564    
     98830   197.66         333.13226      134088.18     -807627.85     -9661.5086      0.36253209     0.056950302    29.657047      39.795398    
     98840   197.68         328.23531      134699.44     -807628.03     -9630.3984      0.36254951     0.056764193    29.644864      39.455233    
     98850   197.7          333.0001       133920.9      -807628.71     -9625.4985      0.36256678     0.056732609    29.637403      39.11507     
     98860   197.72         331.73955      134758.02     -807628.03     -9639.2094      0.36258391     0.056810737    29.575852      38.774916    
     98870   197.74         329.06556      134507.27     -807626.89     -9659.9159      0.3626009      0.056930108    29.553034      38.434765    
     98880   197.76         329.85275      135123.11     -807626.37     -9676.5279      0.36261774     0.057025361    29.560526      38.094613    
     98890   197.78         324.69251      135943.91     -807626.02     -9659.9693      0.36263445     0.056925156    29.578492      37.75446     
     98900   197.8          334.05246      135625.41     -807625.57     -9710.755       0.362651       0.057221818    29.593305      37.414305    
     98910   197.82         344.00755      134081.17     -807627.43     -9689.5845      0.36266742     0.057094484    29.653251      37.074143    
     98920   197.84         338.41059      134433.87     -807626.73     -9680.1966      0.36268369     0.057036608    29.628118      36.733985    
     98930   197.86         341.44704      133301.26     -807628.35     -9636.3006      0.36269982     0.056775444    29.585117      36.393832    
     98940   197.88         340.7719       135238.25     -807626.84     -9674.6741      0.36271581     0.056999022    29.564518      36.053683    
     98950   197.9          343.76194      133781.95     -807627.65     -9656.684       0.36273165     0.056890547    29.549984      35.713536    
     98960   197.92         345.35958      135467.26     -807627.4      -9663.6776      0.36274735     0.056929284    29.493868      35.373395    
     98970   197.94         338.02136      134404.82     -807626.64     -9652.4996      0.36276291     0.056860996    29.498328      35.033255    
     98980   197.96         346.46293      136271.35     -807625.56     -9718.6309      0.36277832     0.05724813     29.575944      34.693105    
     98990   197.98         342.82029      134762.88     -807625.81     -9690.0725      0.36279359     0.057077502    29.561509      34.352958    
     99000   198            344.63567      135931.96     -807626.22     -9680.6631      0.36280872     0.0570197      29.556901      34.012811    
     99010   198.02         333.79456      134003.98     -807626.49     -300.71812      0.3628237      0.056677601    29.629037      33.672657    
     99020   198.04         342.2053       135337.97     -807625.63     -302.64194      0.36283855     0.057037859    29.592032      33.332508    
     99030   198.06         344.25368      134433.6      -807626.82     -301.77115      0.36285324     0.056871439    29.579989      32.99236     
     99040   198.08         335.80902      135434.96     -807625.64     -301.77549      0.3628678      0.056869978    29.545892      32.652216    
     99050   198.1          348.92482      134649.94     -807628.08     -301.26486      0.36288221     0.056771492    29.540376      32.312073    
     99060   198.12         342.88395      136424.93     -807624.86     -303.74245      0.36289648     0.057236129    29.588131      31.971926    
     99070   198.14         330.09951      135981.37     -807623.09     -303.89657      0.36291061     0.057262942    29.589146      31.631779    
     99080   198.16         342.87298      135843.12     -807626.82     -302.08046      0.36292459     0.056918542    29.648744      31.291626    
     99090   198.18         334.58302      135691.41     -807626.01     -301.97723      0.36293843     0.056896921    29.661495      30.951472    
     99100   198.2          337.44772      134623.52     -807626        -302.7139       0.36295213     0.057033568    29.661593      30.611319    
     99110   198.22         337.1006       135258.52     -807626.25     -302.67675      0.36296568     0.057024439    29.634029      30.271169    
     99120   198.24         331.53485      133212.18     -807628.24     -300.30659      0.36297909     0.05657581     29.539065      29.931029    
     99130   198.26         337.03623      135536.72     -807627.81     -301.75429      0.36299236     0.056846469    29.576207      29.590886    
     99140   198.28         335.96706      134221.37     -807626.92     -302.99242      0.36300548     0.057077652    29.683337      29.250733    
     99150   198.3          346.56906      135698.7      -807627.14     -304.55507      0.36301846     0.057369972    29.701729      28.910579    
     99160   198.32         332.05818      135243.63     -807627.08     -302.92996      0.3630313      0.057061828    29.708958      28.570424    
     99170   198.34         333.04455      135782.23     -807627.31     -303.08796      0.36304399     0.057089593    29.660727      28.230275    
     99180   198.36         321.85494      134217.64     -807626.29     -302.88366      0.36305655     0.057049138    29.647099      27.890128    
     99190   198.38         325.9011       134872.68     -807626.73     -303.21204      0.36306895     0.057109038    29.647798      27.549982    
     99200   198.4          319.62947      133082.96     -807628.53     -300.75903      0.36308122     0.056645108    29.591409      27.209841    
     99210   198.42         321.80672      135372.9      -807626.52     -303.12098      0.36309334     0.057088053    29.576103      26.869702    
     99220   198.44         344.24323      133105.52     -807630.3      -302.71393      0.36310532     0.05700951     29.62569       26.529559    
     99230   198.46         330.75767      136299.48     -807626.44     -304.68867      0.36311715     0.05737954     29.598719      26.189418    
     99240   198.48         329.02544      134819.16     -807628.59     -302.49675      0.36312885     0.056964918    29.600836      25.849279    
     99250   198.5          317.40845      136912.85     -807625.96     -303.5062       0.3631404      0.057153196    29.598639      25.509139    
     99260   198.52         319.77814      133519.11     -807627.21     -302.72819      0.3631518      0.057004899    29.598596      25.169001    
     99270   198.54         325.9279       134852.46     -807627.66     -303.05919      0.36316306     0.057065458    29.602176      24.828862    
     99280   198.56         319.57694      133798.29     -807628.84     -301.11069      0.36317418     0.056696822    29.56605       24.488727    
     99290   198.58         325.03244      135176.89     -807628.19     -302.4706       0.36318516     0.056951162    29.536573      24.148594    
     99300   198.6          336.2975       133602.92     -807629.24     -303.05336      0.36319599     0.057059186    29.550948      23.808461    
     99310   198.62         330.21528      135952.24     -807626.98     -304.47463      0.36320668     0.057325098    29.630742      23.468322    
     99320   198.64         325.25939      134997.2      -807627.59     -303.21035      0.36321723     0.057085407    29.703578      23.128178    
     99330   198.66         322.41449      135154.72     -807626.41     -303.92201      0.36322763     0.057217753    29.67962       22.788036    
     99340   198.68         326.56062      134399.81     -807627.45     -303.5369       0.36323789     0.057143636    29.648369      22.447897    
     99350   198.7          315.47749      134923.11     -807626.64     -302.70441      0.36324801     0.056985324    29.625236      22.107761    
     99360   198.72         338.12806      132577.1      -807631.44     -301.00936      0.36325798     0.056664668    29.657765      21.767622    
     99370   198.74         331.7324       133869.46     -807629.69     -301.82572      0.36326781     0.05681681     29.571967      21.427491    
     99380   198.76         320.92918      134944.99     -807627.02     -302.98887      0.3632775      0.057034245    29.599936      21.087358    
     99390   198.78         320.71012      135481.44     -807626.08     -303.75985      0.36328704     0.057177871    29.676741      20.74722     
     99400   198.8          335.3458       134361.85     -807628.63     -303.15217      0.36329644     0.057062009    29.707898      20.40708     
     99410   198.82         338.53449      135621.78     -807627.19     -304.94065      0.3633057      0.05739719     29.703621      20.066942    
     99420   198.84         326.56686      135762.74     -807625.14     -305.28363      0.36331481     0.057460306    29.666473      19.726806    
     99430   198.86         329.58735      135094.08     -807627.39     -303.29996      0.36332378     0.057085531    29.696074      19.38667     
     99440   198.88         331.88         134161.26     -807629.53     -301.34395      0.36333261     0.056716002    29.679725      19.046535    
     99450   198.9          333.10371      134280.7      -807629.04     -301.89978      0.36334129     0.056819258    29.601105      18.706405    
     99460   198.92         313.39727      133711.04     -807625.97     -302.06253      0.36334983     0.056848552    29.623716      18.366275    
     99470   198.94         335.59726      134006.7      -807629.28     -301.61783      0.36335823     0.056763548    29.648934      18.026144    
     99480   198.96         330.3796       135730.76     -807626.97     -302.99481      0.36336648     0.057021395    29.678636      17.686011    
     99490   198.98         341.7944       136095.23     -807625.91     -305.45662      0.3633746      0.057483406    29.634673      17.345882    
     99500   199            333.98985      136860.04     -807624.43     -305.59552      0.36338256     0.057508285    29.626824      17.005754    
     99510   199.02         333.67491      135820.03     -807625.57     -9734.0001      0.36339039     0.057242086    29.537481      16.665631    
     99520   199.04         326.92227      135355.41     -807625.72     -9691.4773      0.36339807     0.05699082     29.550777      16.325508    
     99530   199.06         330.2489       133853.94     -807626.79     -9665.5349      0.3634056      0.056837087    29.521884      15.985386    
     99540   199.08         334.92455      134234.41     -807627.84     -9644.9218      0.363413       0.05671472     29.508529      15.645266    
     99550   199.1          343.68533      133301.41     -807629.69     -9616.6595      0.36342025     0.056547402    29.487666      15.305147    
     99560   199.12         339.3028       135075.4      -807627.39     -9663.0414      0.36342736     0.056819023    29.477152      14.965029    
     99570   199.14         346.87053      135308.11     -807627.16     -9699.2144      0.36343432     0.057030629    29.513523      14.624909    
     99580   199.16         349.08254      137724.1      -807625.47     -9756.8285      0.36344114     0.057368319    29.558939      14.284787    
     99590   199.18         332.49594      136251.11     -807624.14     -9721.9104      0.36344782     0.057161956    29.551692      13.944666    
     99600   199.2          338.47821      137369.89     -807624.22     -9739.1998      0.36345435     0.057262584    29.551313      13.604545    
     99610   199.22         346.10875      134501.78     -807627.21     -9676.0787      0.36346074     0.056890457    29.500522      13.264427    
     99620   199.24         350.60468      136032.71     -807627.26     -9690.4392      0.36346699     0.05697391     29.558945      12.924307    
     99630   199.26         337.7359       133061.09     -807627.92     -9613.6651      0.3634731      0.056521575    29.523175      12.584188    
     99640   199.28         346.22162      134915.42     -807628.27     -9637.3425      0.36347906     0.056659853    29.518981      12.24407     
     99650   199.3          336.91679      133915.67     -807626.55     -9655.4345      0.36348487     0.05676531     29.489622      11.903954    
     99660   199.32         340.82754      137038.66     -807623.96     -9757.3367      0.36349055     0.057363509    29.489155      11.563837    
     99670   199.34         346.77986      135589.09     -807625.6      -9737.0541      0.36349608     0.057243396    29.518349      11.22372     
     99680   199.36         340.54508      138267.84     -807623.59     -9777.7613      0.36350147     0.057481859    29.507721      10.883603    
     99690   199.38         344.07342      135645.21     -807626.28     -9717.9984      0.36350671     0.057129698    29.490758      10.543488    
     99700   199.4          348.41894      135973.74     -807626.98     -9724.5745      0.36351181     0.057167555    29.564201      10.20337     
     99710   199.42         330.71571      134402.19     -807627.72     -9639.2744      0.36351677     0.056665332    29.596431      9.8632507    
     99720   199.44         333.82708      133623.06     -807629.16     -9621.8677      0.36352158     0.056562256    29.622779      9.5231315    
     99730   199.46         320.95067      132809.18     -807627.64     -9628.2002      0.36352625     0.056598754    29.585527      9.1830139    
     99740   199.48         336.12185      134585.92     -807628.02     -9698.7869      0.36353078     0.057012984    29.610882      8.8428961    
     99750   199.5          334.05633      135350.23     -807626.91     -9739.4982      0.36353516     0.057251609    29.568395      8.5027799    
     99760   199.52         338.06554      136009.62     -807626.71     -9775.4784      0.3635394      0.057462441    29.607649      8.162663     
     99770   199.54         323.23252      136713.6      -807624.52     -9787.7382      0.3635435      0.057533859    29.647799      7.8225456    
     99780   199.56         334.2496       135739.91     -807627.28     -9755.2537      0.36354745     0.057342286    29.609314      7.4824296    
     99790   199.58         331.77015      134233.19     -807628.53     -9710.0188      0.36355126     0.057075793    29.630448      7.1423137    
     99800   199.6          318.56877      132534.39     -807629.02     -9639.6981      0.36355493     0.056661874    29.581242      6.8021994    
     99810   199.62         319.26164      134318.34     -807628.84     -9650.2222      0.36355845     0.056723184    29.506328      6.4620871    
     99820   199.64         324.88825      133153.95     -807629.79     -9647.056       0.36356183     0.056704047    29.537603      6.1219745    
     99830   199.66         334.80765      135617.44     -807628.5      -9733.3169      0.36356507     0.057210567    29.529124      5.7818623    
     99840   199.68         328.04142      134645.78     -807627.95     -9724.9364      0.36356816     0.057160821    29.537323      5.4417503    
     99850   199.7          315.67348      137808.99     -807623.75     -9803.1253      0.36357111     0.057619929    29.560222      5.1016381    
     99860   199.72         320.92807      135442.49     -807626.78     -9733.0014      0.36357392     0.05720732     29.492641      4.7615275    
     99870   199.74         320.5738       137258.95     -807625.8      -9758.5417      0.36357658     0.057357017    29.5176        4.4214166    
     99880   199.76         334.1828       132973.91     -807630.58     -9668.5949      0.3635791      0.05682795     29.546844      4.0813057    
     99890   199.78         319.81637      134895.35     -807628.62     -9663.7592      0.36358148     0.056799157    29.525154      3.7411953    
     99900   199.8          328.07116      131769.25     -807631.49     -9609.6582      0.36358371     0.056480829    29.52141       3.4010853    
     99910   199.82         318.59341      134059.19     -807627.7      -9686.0249      0.3635858      0.056929347    29.477025      3.060976     
     99920   199.84         327.5355       133993.45     -807628.46     -9701.4511      0.36358775     0.057019709    29.468356      2.7208669    
     99930   199.86         337.81809      136323.67     -807628.3      -9749.3532      0.36358955     0.057300967    29.500018      2.3807578    
     99940   199.88         313.5356       136405.15     -807623.78     -9783.5844      0.36359121     0.057501895    29.484011      2.0406489    
     99950   199.9          333.6844       137202.47     -807626.35     -9786.9612      0.36359273     0.057521502    29.524868      1.7005401    
     99960   199.92         330.57497      135310.62     -807627.47     -9733.4587      0.3635941      0.057206833    29.5645        1.3604313    
     99970   199.94         327.70158      134571.84     -807627.63     -9711.6241      0.36359533     0.05707831     29.617712      1.0203227    
     99980   199.96         326.27425      133988.31     -807629.56     -9639.5101      0.36359641     0.056654304    29.583828      0.68021475   
     99990   199.98         321.31733      133963.04     -807628.93     -9633.1516      0.36359736     0.056616787    29.61909       0.34010712   
    100000   200            332.58855      133866.9      -807628.79     -9681.7092      0.36359816     0.056902049    29.550619      0            
Loop time of 3401.07 on 32 procs for 100000 steps with 1080 atoms

Performance: 5.081 ns/day, 4.724 hours/ns, 29.403 timesteps/s, 31.755 katom-step/s
61.3% CPU use with 32 MPI tasks x 1 OpenMP threads

MPI task timing breakdown:
Section |  min time  |  avg time  |  max time  |%varavg| %total
---------------------------------------------------------------
Pair    | 2410.5     | 2794.2     | 3016.1     | 279.0 | 82.16
Neigh   | 0.001658   | 0.0017742  | 0.0019683  |   0.2 |  0.00
Comm    | 310.95     | 532.64     | 916.56     | 638.8 | 15.66
Output  | 2.4363     | 2.4473     | 2.4596     |   0.4 |  0.07
Modify  | 64.391     | 65.602     | 66.413     |   6.9 |  1.93
Other   |            | 6.18       |            |       |  0.18

Nlocal:          33.75 ave          41 max          24 min
Histogram: 1 1 1 2 7 6 4 5 4 1
Nghost:        1043.97 ave        1064 max        1032 min
Histogram: 5 4 7 5 4 0 0 4 0 3
Neighs:              0 ave           0 max           0 min
Histogram: 32 0 0 0 0 0 0 0 0 0
FullNghs:      5347.75 ave        6516 max        3806 min
Histogram: 1 1 1 4 5 5 5 5 3 2

Total # of neighbors = 171128
Ave neighs/atom = 158.45185
Neighbor list builds = 4
Dangerous builds = 0

Total wall time: 1:00:23
