
units		metal
atom_style	atomic

read_data ${STRUCTURE}.data
read_data BaTiO3-sc333.data
Reading data file ...
  orthogonal box = (0 0 0) to (11.898253 11.898253 12.912076)
  2 by 4 by 4 MPI processor grid
  reading atoms ...
  135 atoms
  read_data CPU = 0.011 seconds
replicate $L $L $L
replicate 2 $L $L
replicate 2 2 $L
replicate 2 2 2
Replication is creating a 2x2x2 = 8 times larger system...
  orthogonal box = (0 0 0) to (23.796507 23.796507 25.824152)
  2 by 4 by 4 MPI processor grid
  1080 atoms
  replicate CPU = 0.004 seconds

pair_style allegro
pair_coeff	* * ${MODEL}.pth Ba Ti O
pair_coeff	* * BaTiO3-E0.pth Ba Ti O
mass 1 137.3
mass 2 47.9
mass 3 15.9994

timestep 0.002
compute polarization all allegro polarization 3
compute allegro will evaluate the quantity polarization of length 3 (src/compute_allegro.cpp:53)
compute polarizability all allegro polarizability 9
compute allegro will evaluate the quantity polarizability of length 9 (src/compute_allegro.cpp:53)

thermo_style custom pe fmax fnorm spcpu cpuremain

variable efield equal 1e-2*36.36
fix born all addbornforce 0.0 0.0 ${efield}
fix born all addbornforce 0.0 0.0 0.3636

thermo 10
min_style fire
#minimize 0.0 1e-6 100 100
velocity all create ${TEMP} ${SEED} dist gaussian rot yes mom yes
velocity all create 330 ${SEED} dist gaussian rot yes mom yes
velocity all create 330 9278 dist gaussian rot yes mom yes
fix nvt all nvt temp ${TEMP} ${TEMP} $(100*dt)
fix nvt all nvt temp 330 ${TEMP} $(100*dt)
fix nvt all nvt temp 330 330 $(100*dt)
fix nvt all nvt temp 330 330 0.2000000000000000111
run 5000
Neighbor list info ...
  update: every = 1 steps, delay = 0 steps, check = yes
  max neighbors/atom: 2000, page size: 100000
  master list distance cutoff = 8
  ghost atom cutoff = 8
  binsize = 8, bins = 3 3 4
  1 neighbor lists, perpetual/occasional/extra = 1 0 0
  (1) pair allegro/kk, perpetual
      attributes: full, newton on, kokkos_device
      pair build: full/bin/kk/device
      stencil: full/bin/3d
      bin: kk/device
Per MPI rank memory allocation (min/avg/max) = 3.516 | 3.516 | 3.516 Mbytes
    PotEng          Fmax          Fnorm          S/CPU         CPULeft    
-807708.29      1.5956172      37.042032      0              0            
-807644.98      3.3451497      44.879237      2.275477       2192.9478    
-807633.49      2.5981202      35.441429      25.897191      1190.426     
-807605.32      2.9877297      37.222138      25.907613      855.96888    
-807601.59      4.3495052      50.032696      25.859544      688.63629    
-807570.29      3.8430499      40.113726      25.845336      588.10312    
-807601.46      2.9221501      38.655105      25.893533      520.89273    
-807647.97      3.5411615      33.370176      25.894929      472.7735     
-807682.82      2.5528145      34.716768      25.870333      436.61011    
-807669.02      2.6246495      34.509926      25.845182      408.41766    
-807648.46      3.8195113      36.614314      25.894971      385.74986    
-807659.42      3.1570388      28.701692      25.902799      367.12808    
-807623.68      3.2958468      32.160839      25.870754      351.56503    
-807584.42      3.7432641      42.225869      25.859512      338.34312    
-807565.1       2.9112787      39.946473      25.899711      326.93398    
-807633.05      3.3889356      34.86435       25.89824       316.99529    
-807651.85      3.4455146      33.920637      25.852046      308.27153    
-807664.4       2.8534213      35.641589      25.88318       300.51538    
-807643.89      4.9276026      47.208538      25.898034      293.57215    
-807678.73      2.6950698      37.496132      25.853577      287.33596    
-807640         3.6973325      40.021082      25.832923      281.69212    
-807613.85      3.3993871      40.111051      25.898372      276.52662    
-807557.8       4.1021636      46.092901      25.92227       271.78788    
-807602.86      4.0186012      49.584139      25.878834      267.44107    
-807613.19      3.9874874      38.647084      25.824229      263.44052    
-807642.29      3.4133087      35.281648      25.928363      259.69946    
-807643.53      4.513463       44.232344      25.919947      256.2188     
-807680.35      2.8511941      37.498376      25.853167      252.98485    
-807663.18      3.2009383      34.333671      25.78158       249.97237    
-807637.91      2.8722695      32.099329      25.909347      247.10984    
-807605.77      3.8687023      34.051147      25.898503      244.41494    
-807599.34      4.0211894      41.987509      25.882483      241.87261    
-807596.3       3.3676594      37.475871      25.815806      239.47962    
-807607.04      3.9433294      33.556917      25.904434      237.18943    
-807641.51      2.8331078      30.145637      25.928166      235.0064     
-807670.8       2.641695       31.755495      25.911147      232.92945    
-807677.07      3.3724281      33.499776      25.812423      230.96547    
-807641.29      4.8831713      40.147637      25.859582      229.07787    
-807646.44      2.8997237      31.931466      25.906684      227.26071    
-807616.93      3.465125       34.839513      25.892775      225.5194     
-807600.56      4.0119996      45.146783      25.83627       223.85556    
-807565.78      3.4972966      42.955921      25.886029      222.24566    
-807619.4       2.8253165      37.518433      25.898198      220.69206    
-807644.26      3.575893       37.898226      25.851771      219.20013    
-807672.54      2.9605278      36.642656      25.829801      217.76183    
-807640.02      4.424624       47.289631      25.854572      216.3665     
-807661.81      2.7601772      36.51402       25.852789      215.0153     
-807644.28      4.0070775      36.410156      25.851664      213.70528    
-807623.29      3.1566578      37.994332      25.862782      212.43218    
-807564.11      4.41539        42.489545      25.894006      211.19096    
-807595.61      3.7647258      43.243573      25.917765      209.98075    
-807621.76      3.9861006      35.713222      25.840998      208.81297    
-807652.72      2.8487847      33.248391      25.877136      207.67056    
-807643.76      4.1830332      40.016517      25.904036      206.55329    
-807668.25      2.4936645      34.861068      25.896517      205.46403    
-807665.66      2.5725739      33.428802      25.797378      204.41234    
-807642.97      3.0437867      30.990426      25.863426      203.37653    
-807600.33      2.7274032      35.154454      25.929955      202.35578    
-807591.2       3.3630569      37.860051      25.909553      201.35924    
-807603.25      4.1203363      41.445975      25.834969      200.39173    
-807616.65      4.1967289      33.904239      25.86153       199.44065    
-807635.53      3.2292564      33.902762      25.90518       198.50339    
-807657.84      5.1145229      36.739909      25.909591      197.58345    
-807673.96      3.2068366      37.635463      25.825887      196.68913    
-807644.76      4.7308047      41.150272      25.844846      195.80873    
-807632.49      2.9337393      35.603293      25.904163      194.93758    
-807608.98      3.7471592      37.541277      25.900719      194.08147    
-807602.66      3.9315737      46.16195       25.849381      193.24435    
-807577.94      4.5885767      41.938423      25.840014      192.42136    
-807611.26      3.3216769      37.540624      25.892794      191.60608    
-807639.64      4.1876585      38.338138      25.893988      190.80295    
-807671.75      3.1373633      37.112155      25.837962      190.01662    
-807649.22      4.3536649      41.548472      25.827038      189.24236    
-807649.77      3.0501605      36.656024      25.865604      188.47533    
-807639.43      4.0224949      35.271439      25.863716      187.71874    
-807623.7       3.7336515      37.988296      25.847216      186.97341    
-807578.34      4.299359       39.944442      25.846862      186.23755    
-807585.13      3.2402165      40.327934      25.903001      185.50615    
-807622.57      3.2960303      33.59192       25.886282      184.78494    
-807654.6       3.5360209      33.21419       25.856169      184.07462    
-807651.94      3.7464935      36.053066      25.880106      183.37051    
-807654.08      4.2503827      36.68765       25.839385      182.67739    
-807661.81      3.4125138      33.783934      25.88129       181.98854    
-807641.83      3.8707528      33.216613      25.864431      181.30825    
-807606.31      3.3543841      35.889428      25.89803       180.63246    
-807578.3       3.7492373      39.82799       25.92679       179.96139    
-807604.19      3.7906716      40.652379      25.876996      179.30055    
-807623.72      3.1581378      34.325862      25.87548       178.64611    
-807639.71      2.9800632      33.836168      25.914196      177.99506    
-807646.86      3.9447984      38.476403      25.894629      177.35131    
-807669.67      2.6812744      36.222638      25.860451      176.71562    
-807650.95      3.5473321      36.047055      25.832631      176.08727    
-807631.9       2.8013475      34.019256      25.862128      175.4622     
-807599.81      3.3930566      37.353943      25.919544      174.83852    
-807603.63      3.3939627      43.368881      25.904201      174.22088    
-807592.95      3.7552323      38.507573      25.854418      173.61129    
-807617.48      2.6751288      35.629145      25.904463      173.00319    
-807635.98      3.6727374      36.695143      25.938067      172.39759    
-807666.12      2.4355536      35.872417      25.875869      171.80029    
-807657.34      4.169525       36.62732       25.835301      171.20971    
-807646.48      4.0099893      35.119081      25.823121      170.62392    
-807632.29      3.5957705      33.354159      25.918188      170.03646    
-807622.13      3.4704706      36.172421      25.891273      169.45451    
-807592.14      3.4716822      37.676881      25.877333      168.87717    
-807588.42      3.2697662      38.254899      25.910107      168.30163    
-807621.12      2.7410008      32.692319      25.899365      167.73031    
-807654.86      2.7407202      32.111057      25.914529      167.16164    
-807659.24      3.6956507      33.619898      25.88867       166.59781    
-807649.44      4.3974115      35.958067      25.87941       166.03777    
-807654.78      2.7070798      32.877024      25.897693      165.47993    
-807640.97      2.8115271      31.936333      25.894026      164.92541    
-807612.8       2.8198676      34.678687      25.865109      164.37544    
-807579.04      2.8538358      38.788387      25.897435      163.82671    
-807602.59      3.5937451      38.20803       25.883063      163.28159    
-807627.76      3.5176682      34.13575       25.859326      162.74046    
-807649.27      2.7875078      32.89408       25.870918      162.20143    
-807643.45      4.0834503      38.96387       25.894274      161.66388    
-807663.35      2.5800089      34.917914      25.850829      161.13104    
-807651.22      3.5153976      35.620493      25.855044      160.60047    
-807634.82      2.8503825      33.119813      25.888988      160.0707     
-807594.91      3.040831       37.098478      25.89168       159.54319    
-807598.26      3.8563986      40.889306      25.928486      159.0163     
-807602.02      3.2139674      36.707647      25.781047      158.49855    
-807626.54      2.3267174      33.496274      25.892874      157.97779    
-807633.78      3.7726379      36.058669      25.93499       157.45729    
-807661.43      2.1696621      34.632805      25.880719      156.94138    
-807658.63      2.5844049      34.969531      25.842822      156.4292     
-807648.11      3.1262198      32.850394      25.86396       155.91807    
-807622.52      3.664838       34.134373      25.902228      155.40722    
-807614.65      3.1875815      36.196483      25.900841      154.89837    
-807597.69      3.5323621      38.641102      25.891399      154.3918     
-807597.31      3.2587426      37.916213      25.889035      153.88718    
-807617.76      3.0074094      34.023285      25.882965      153.38459    
-807649.57      3.5081151      33.750979      25.910173      152.88264    
-807659.8       2.7477993      34.664265      25.864305      152.38429    
-807649.7       3.356515       35.949263      25.778545      151.89107    
-807644.55      3.6510429      33.615322      25.812019      151.39805    
-807633.62      3.713043       33.706779      25.889049      150.90352    
-807614.1       3.2661583      36.753378      25.849858      150.4121     
-807585.5       3.6100268      38.832179      25.884355      149.92084    
-807599.06      3.6969604      37.989286      25.852411      149.4323     
-807629.06      3.4120434      33.678649      25.919769      148.94265    
-807653.09      2.357483       33.191938      25.883807      148.45582    
-807645.89      3.7199226      37.280727      25.896063      147.96993    
-807653.65      2.7288907      35.22257       25.837469      147.4876     
-807648.76      3.2921977      34.22252       25.88683       147.00477    
-807634.69      2.8401835      33.471228      25.879129      146.52354    
-807598.15      3.60047        36.777073      25.869642      146.04394    
-807593.22      2.9837646      39.808329      25.913033      145.56406    
-807607.05      4.3488067      37.139092      25.811069      145.08904    
-807634.82      2.7284174      33.780898      25.907463      144.61182    
-807637.22      4.619488       36.45588       25.863263      144.13733    
-807653.89      3.6256098      36.008577      25.907913      143.66247    
-807655.68      2.6093413      35.384127      25.85474       143.19057    
-807647.41      2.9771634      34.093551      25.783638      142.72218    
-807619.73      3.4029711      34.993389      25.871554      142.25189    
-807607.45      3.6410242      36.126663      25.967378      141.77953    
-807599.43      3.9184149      38.247305      25.902289      141.31039    
-807610.46      3.4360502      36.058071      25.844012      140.84419    
-807623.75      3.7023921      34.769632      25.976688      140.37475    
-807646.75      4.2361309      34.484598      25.92519       139.90799    
-807657.92      3.1632471      35.042342      25.881145      139.44362    
-807653.13      4.5212874      35.687014      25.859517      138.98089    
-807638.51      3.4300754      34.466412      25.8981        138.5179     
-807624.95      4.0122205      33.932405      25.943952      138.05444    
-807613.97      3.5962058      36.328976      25.903235      137.59317    
-807595.92      3.2386689      37.759862      25.893192      137.1331     
-807606.63      2.6886709      35.6396        25.933802      136.67271    
-807630.22      3.4833077      33.292726      25.914876      136.21376    
-807653.59      3.4727988      33.509276      25.915505      135.75567    
-807652.5       4.1593621      34.823148      25.853844      135.30021    
-807648.41      2.6777723      34.23948       25.84257       134.84587    
-807641.01      3.0118274      34.058895      25.886059      134.39108    
-807631.47      2.4730655      33.395073      25.919048      133.93616    
-807602.54      2.8799778      35.73512       25.929139      133.48174    
-807593.21      2.6933391      38.627309      25.923797      133.02826    
-807611.95      2.7782327      35.291043      25.894083      132.57636    
-807638.98      3.175977       33.410016      25.936819      132.12405    
-807644.47      3.3377235      34.643086      25.901442      131.67344    
-807650.84      3.1867337      34.852916      25.892299      131.22379    
-807651.01      3.5037449      34.911755      25.809694      130.77705    
-807645.63      2.745826       33.563752      25.827702      130.33048    
-807617.41      3.5042349      35.645547      25.876577      129.88329    
-807598.75      3.6491454      37.87474       25.938069      129.43518    
-807598.66      3.2942712      38.664424      25.913733      128.98836    
-807617.44      3.834244       36.873398      25.942256      128.54149    
-807629.15      3.039235       34.013267      25.905233      128.0962     
-807642.91      3.5680537      35.344874      25.855624      127.65279    
-807655.9       2.702004       34.903053      25.854004      127.21002    
-807650.89      3.0342132      34.924453      25.846826      126.76802    
-807635.12      3.1227819      34.250793      25.883935      126.3257     
-807616.39      3.2498292      35.478059      25.923262      125.88301    
-807606.64      2.9798235      37.529639      25.925154      125.44087    
-807600.95      3.0132658      38.500506      25.928571      124.99924    
-807610.38      3.4984604      36.444278      25.92813       124.55819    
-807631.47      3.263959       34.309052      25.919517      124.11791    
-807649.79      2.9337717      35.393133      25.921066      123.67815    
-807651.45      3.5204799      36.004833      25.824385      123.24116    
-807643.25      3.0711868      35.910448      25.820757      122.80476    
-807634.75      3.6254302      34.648162      25.863265      122.36788    
-807623.69      3.1565115      34.758909      25.960412      121.92934    
-807602.96      2.9382124      38.134385      25.927365      121.49206    
-807598.74      3.0367383      37.711399      25.912734      121.05561    
-807614.05      3.3351136      35.494561      25.911046      120.6197     
-807637.56      3.2325551      34.531435      25.927177      120.18392    
-807647.28      3.3553416      35.581022      25.902815      119.74916    
-807645.62      3.6687094      36.553629      25.850322      119.31599    
-807644.83      4.1027315      34.968514      25.868607      118.88288    
-807638.63      3.3971056      34.316982      25.856738      118.45047    
-807619.91      2.7689527      34.517779      25.913984      118.01731    
-807598.04      3.2148227      38.035899      25.925691      117.58435    
-807602.93      3.7329895      37.714886      25.906867      117.15223    
-807622.04      3.607051       35.179201      25.870314      116.72128    
-807634.42      3.1136405      34.475861      25.87983       116.29055    
-807642.85      3.2845767      35.272223      25.889264      115.86006    
-807651.07      3.3742999      34.900909      25.86687       115.43042    
-807649.34      3.1604028      34.379338      25.876794      115.00098    
-807633.6       3.6649288      33.829345      25.933632      114.57083    
-807614.08      3.0030416      34.609348      25.94641       114.14085    
-807604.4       3.4607628      36.727062      25.912193      113.71192    
-807607.93      3.5852938      37.219626      25.912301      113.28339    
-807618.73      3.9620015      35.667161      25.98          112.85397    
-807634.12      2.9489085      33.900523      25.922523      112.42602    
-807647.87      3.5302618      35.341692      25.86088       111.99959    
-807651.19      3.4117496      35.429637      25.817035      111.57433    
-807642.34      3.8620625      35.269633      25.845327      111.14888    
-807628.94      3.2473977      34.760087      25.906459      110.72267    
-807618.15      3.632506       34.402871      25.912596      110.29671    
-807605.64      3.241762       37.149071      25.903225      109.87126    
-807606.7       3.6737891      36.496516      25.907828      109.44607    
-807618.89      2.7026355      34.713437      25.868935      109.02191    
-807639.61      3.3886199      33.882561      25.884724      108.59779    
-807648.61      3.22604        34.767583      25.869683      108.17427    
-807646.31      3.4629647      35.530723      25.867903      107.75109    
-807638.92      3.6549297      35.334732      25.898652      107.3277     
-807634.22      3.3167922      33.949771      25.896381      106.90466    
-807615.8       4.2331862      35.148783      25.872422      106.48234    
-807602.4       3.5863909      37.471301      25.909844      106.0597     
-807604.76      3.2827068      36.64551       25.89906       105.63755    
-807626.2       3.0458677      34.84766       25.898161      105.21571    
-807640.68      3.1752229      33.68143       25.874335      104.79456    
-807644.89      4.2966983      34.716952      25.82049       104.37456    
-807645.65      3.2741924      35.248168      25.796913      103.95521    
-807646.08      3.2255491      33.063723      25.861768      103.53509    
-807630.98      3.367154       33.164563      25.902541      103.1146     
-807610.93      2.9222798      35.661279      25.913572      102.69423    
-807601.52      3.0458331      37.084082      25.89358       102.27444    
-807612.18      3.5657743      36.768774      25.923758      101.85447    
-807627.28      2.9583325      33.577551      25.871595      101.43556    
-807634.91      3.4892954      34.860768      25.903717      101.01643    
-807646.41      3.2435405      34.456618      25.852196      100.59833    
-807649.85      3.3368799      34.489054      25.860768      100.18036    
-807642.89      3.1619154      33.70358       25.896465      99.762104    
-807624.04      3.6289541      34.832817      25.899566      99.344061    
-807612.17      3.5453958      36.100931      25.894292      98.926346    
-807606.36      2.9656008      36.910708      25.915326      98.508576    
-807613.85      3.1808206      36.295105      25.88558       98.091479    
-807619.7       3.3644523      36.032893      25.857392      97.675019    
-807639.37      2.7875253      34.625778      25.88975       97.258336    
-807649.58      3.4617696      34.662463      25.862721      96.842265    
-807645.92      3.6502154      35.496419      25.872988      96.426277    
-807634.84      3.3012418      35.166049      25.910402      96.010005    
-807627.51      3.0206946      34.672906      25.933482      95.593652    
-807615.16      2.7166609      35.83573       25.912817      95.17781     
-807603.99      3.1076783      37.391368      25.891511      94.762478    
-807609.14      3.7448761      35.200567      25.864435      94.347725    
-807627.58      3.0222024      34.652374      25.874185      93.933055    
-807641.97      3.3972668      34.858806      25.855608      93.518838    
-807646.07      2.8683121      35.386123      25.876154      93.104561    
-807641.6       3.8365104      35.728076      25.86017       92.690696    
-807639.99      3.195546       34.567603      25.877206      92.276814    
-807627.28      3.2686708      34.598822      25.867346      91.86326     
-807609.77      3.4218648      36.494183      25.842588      91.450215    
-807600.92      3.943202       38.148444      25.914083      91.036473    
-807615.98      3.6435232      35.808524      25.8927        90.623197    
-807629.22      3.9315588      34.892881      25.851505      90.210622    
-807639.63      3.1487698      34.639956      25.889132      89.797776    
-807643.08      4.5599429      36.339787      25.888248      89.385134    
-807645.56      3.4336252      35.398792      25.881781      88.972758    
-807640.96      3.8825832      34.121617      25.868398      88.560727    
-807620.46      3.5649683      35.763247      25.907523      88.148419    
-807608.27      3.5807563      36.639065      25.911635      87.736251    
-807607.07      3.5116617      37.339959      25.90854       87.324304    
-807617.26      3.4937704      36.517802      25.915082      86.912466    
-807626.29      3.0827397      34.361473      25.892133      86.501071    
-807639.81      4.0815576      33.992993      25.884663      86.089938    
-807644.55      3.9445357      35.57791       25.887031      85.678951    
-807647.93      2.8710236      33.885237      25.845145      85.2686      
-807632.77      4.5655082      35.686792      25.917784      84.857614    
-807621.3       3.5590557      35.014107      25.924063      84.446735    
-807610.47      5.0136587      37.098031      25.92096       84.036061    
-807611.62      4.0387095      37.637316      25.89995       83.625784    
-807613.81      4.5896373      36.138265      25.913501      83.215528    
-807628.25      3.5907048      34.953119      25.906511      82.805513    
-807643.59      4.6858833      35.437602      25.870487      82.396037    
-807648         3.3895234      35.271252      25.874232      81.986677    
-807639.87      3.80725        35.645707      25.910557      81.577099    
-807633.78      3.484988       34.771922      25.860979      81.168186    
-807623.39      3.3768032      35.605264      25.833398      80.759702    
-807613.06      3.7297896      37.076867      25.858377      80.351109    
-807606.47      3.1149691      37.081516      25.890579      79.942342    
-807618.22      3.3192005      34.846031      25.93297       79.533307    
-807635.99      2.789972       33.855654      25.885931      79.124886    
-807645.37      2.8079548      34.090196      25.918521      78.716296    
-807643.33      4.5274021      35.445802      25.894208      78.308089    
-807641.2       3.9587779      34.953939      25.902729      77.899945    
-807637.81      2.9366411      33.990646      25.867351      77.49228     
-807619.56      3.1350008      35.205035      25.869375      77.084734    
-807608.39      3.4651997      36.186101      25.882211      76.677204    
-807607.12      3.8984213      36.554871      25.897069      76.269674    
-807624.91      3.4866967      35.401851      25.867954      75.862549    
-807633.25      3.920938       34.766416      25.902349      75.455244    
-807643.68      2.6177739      34.020692      25.915748      75.047954    
-807644.34      3.5719693      36.053144      25.894432      74.640991    
-807644.55      3.443628       35.694625      25.861931      74.234448    
-807630.88      3.6612722      35.064611      25.869875      73.827962    
-807616.97      2.9029908      35.801953      25.906304      73.421285    
-807606.62      2.9172609      37.452711      25.914988      73.014664    
-807612.58      3.2057463      37.985959      25.891937      72.60837     
-807620.37      3.0139508      35.806414      25.954193      72.201677    
-807632.66      3.2475604      35.234437      25.916344      71.795433    
-807642.34      3.5985415      35.90843       25.853652      71.389839    
-807644.99      4.0312844      36.130102      25.81239       70.984703    
-807638.98      2.6547346      35.169278      25.846992      70.579392    
-807625.24      4.0553674      36.223112      25.854931      70.174131    
-807616.83      3.1577503      36.17629       25.873989      69.76883     
-807609.78      3.3516183      37.145229      25.851481      69.363824    
-807612.47      3.0037924      36.331493      25.85459       68.958904    
-807619.65      3.0742028      36.433196      25.856939      68.554077    
-807635.34      3.364898       35.070549      25.891628      68.14909     
-807642.8       3.2638511      35.858685      25.796388      67.744952    
-807644.12      3.1459732      35.16303       25.861263      67.340417    
-807633.64      4.8194023      35.916047      25.895313      66.935732    
-807628.53      3.1564931      34.969128      25.92296       66.530951    
-807616.15      3.7620535      36.098746      25.886624      66.126554    
-807609.34      3.4147961      36.6181        25.924771      65.721985    
-807609.64      3.6597536      36.736691      25.928818      65.317499    
-807627.52      3.6979193      34.893512      25.950158      64.912971    
-807637.6       3.1817561      35.200995      25.928114      64.508713    
-807644         3.0488089      34.929132      25.914116      64.104664    
-807640.8       3.1444514      35.32165       25.87081       63.701025    
-807638.08      3.056488       34.214741      25.838578      63.297712    
-807626.93      3.2267777      34.66066       25.809659      62.894695    
-807614.4       3.5671447      35.688489      25.895852      62.491177    
-807607.48      3.1965628      36.009351      25.927462      62.087548    
-807616.13      2.9145004      35.727062      25.88114       61.684332    
-807629.51      2.8555038      34.264939      25.883086      61.281201    
-807637.48      2.9824061      34.153403      25.899276      60.87806     
-807643.43      3.3942329      34.338905      25.887864      60.475091    
-807643.23      2.8226878      34.528353      25.883166      60.072248    
-807638.05      3.0480019      34.235558      25.871703      59.669573    
-807623.86      3.0610157      35.180283      25.929767      59.266622    
-807613.27      3.4860393      35.222752      25.952881      58.863626    
-807611.02      2.8221854      37.52129       25.952557      58.460731    
-807620.44      3.1188938      34.601878      25.939181      58.058018    
-807628.8       2.6964769      34.248688      26.001094      57.655026    
-807636.61      3.6754772      34.972627      25.936827      57.252524    
-807645.15      3.8901284      35.272434      25.902321      56.850322    
-807643.26      3.5893008      34.855814      25.873807      56.448379    
-807632.81      2.8229902      34.376585      25.907974      56.046322    
-807624.02      3.02653        34.627927      25.902303      55.644387    
-807614.59      3.3595778      35.890716      25.916846      55.242456    
-807613.42      3.3437256      36.689192      25.868342      54.840891    
-807618.28      3.4719419      35.581972      25.946683      54.438967    
-807627.98      3.7618373      34.8659        25.913666      54.037318    
-807641.14      3.8454156      34.467403      25.900639      53.635826    
-807644.27      3.2465037      35.107169      25.892316      53.234464    
-807639.23      3.2152697      35.016574      25.888894      52.833204    
-807632.7       3.0717019      34.729338      25.875499      52.432096    
-807624.75      3.0465056      34.731788      25.915237      52.030858    
-807614.84      3.6475879      35.889843      25.879919      51.629887    
-807611.52      3.0364327      35.921472      25.875495      51.229018    
-807617.72      4.0583782      36.246113      25.916044      50.828019    
-807632.21      3.0453541      35.645082      25.932162      50.427019    
-807640.45      3.3658254      35.790427      25.880279      50.026361    
-807639.93      3.1110879      35.646155      25.857663      49.625893    
-807638.94      3.1715678      35.540029      25.875663      49.225408    
-807633.16      3.5730906      35.04586       25.863422      48.825058    
-807621.85      3.7032026      36.078392      25.865669      48.42477     
-807611.59      2.9831666      36.966848      25.900752      48.024386    
-807612.92      3.2453622      37.164551      25.932087      47.62393     
-807621.8       3.3167694      36.28365       25.940821      47.223512    
-807634.87      3.3418486      34.827354      25.90354       46.823343    
-807637.52      3.3549686      35.518419      25.897931      46.423274    
-807642.3       3.3683096      35.585641      25.844954      46.023516    
-807639.57      4.0480046      35.362431      25.851066      45.623797    
-807629.71      2.7785689      34.915485      25.855151      45.224127    
-807616.79      3.6185659      35.710585      25.870787      44.824456    
-807611.98      3.0501437      36.396515      25.912719      44.424672    
-807616.57      3.2275162      35.934998      25.900564      44.025011    
-807622.46      3.0902579      35.929191      25.895894      43.625439    
-807632.64      3.3527907      35.625638      25.934031      43.225777    
-807640.63      3.8611177      35.773656      25.86238       42.826481    
-807643.76      3.1130499      35.684804      25.840299      42.42734     
-807636.48      4.2630366      36.101655      25.844539      42.028243    
-807627.7       3.5705486      35.920775      25.876542      41.629081    
-807618.87      3.2139571      36.427417      25.903816      41.229876    
-807612.05      3.2655622      37.382656      25.909427      40.830715    
-807614.88      3.2700689      36.420365      25.8765        40.431747    
-807621.31      3.6758127      35.711028      25.904008      40.032738    
-807635.59      3.0541196      35.165218      25.9057        39.633787    
-807640.89      3.5525986      36.118966      25.91481       39.234867    
-807639.54      3.3733093      35.835291      25.867239      38.836185    
-807633.58      3.4098857      36.369171      25.916269      38.437387    
-807629.5       3.6415475      35.203672      25.88515       38.038764    
-807617.55      3.5044864      36.758646      25.888669      37.640188    
-807613.07      3.6686721      36.592204      25.86046       37.241771    
-807614.32      2.9155027      36.440792      25.897678      36.843285    
-807626.88      4.0530099      36.278903      25.893548      36.444873    
-807635.35      3.1140221      35.376501      25.88288       36.046556    
-807639.71      3.8744404      35.547561      25.875654      35.648321    
-807637.25      3.2191212      35.825511      25.899707      35.250066    
-807634.49      3.2776852      35.300357      25.894409      34.851887    
-807628.38      3.5296472      34.104415      25.88099       34.453807    
-807616.46      3.0976528      36.537483      25.910266      34.055694    
-807612.19      3.7004979      35.992221      25.939491      33.65755     
-807618.15      3.3309556      36.816946      25.927429      33.259504    
-807629.27      3.6090978      34.752459      25.934919      32.861494    
-807634.01      3.3667882      36.116441      25.905119      32.463631    
-807638.39      3.826027       36.266125      25.91157       32.065805    
-807639.57      3.4301811      35.651947      25.863595      31.668173    
-807634.56      4.3958487      36.072059      25.871156      31.270572    
-807623.06      3.2507515      35.701213      25.883409      30.872989    
-807615.22      3.4559012      36.755915      25.865772      30.475508    
-807613.41      3.0064233      36.494327      25.8858        30.078024    
-807619.99      3.3643037      36.589744      25.912461      29.680522    
-807625.44      3.3092824      35.77153       25.89344       29.283124    
-807637.03      3.8708573      35.14773       25.915655      28.885722    
-807640.46      3.3733324      35.809366      25.910566      28.488387    
-807639.51      3.9767952      35.86012       25.922641      28.091075    
-807631.45      3.3237356      35.347587      25.858452      27.693973    
-807621.58      4.7607994      36.166415      25.871119      27.296888    
-807617.86      3.6798072      36.485369      25.89123       26.899805    
-807616.08      3.3680684      36.637173      25.897411      26.502758    
-807618.51      3.1627081      35.682147      25.90601       26.105742    
-807629.89      2.8828037      35.430907      25.932674      25.708717    
-807637.72      3.2419301      35.800647      25.947981      25.311711    
-807642.18      4.0677332      35.75299       25.948319      24.914757    
-807634.11      3.0686837      36.05209       25.865473      24.518031    
-807632.11      3.6688431      36.283442      25.869754      24.121342    
-807623.28      3.3965445      36.311013      25.901267      23.724635    
-807617.34      3.1433501      36.621113      25.918671      23.327942    
-807614.99      3.562457       36.615236      25.876397      22.931381    
-807621.99      3.1699701      36.17368       25.880326      22.534857    
-807632.76      4.2754539      34.968785      25.929025      22.138288    
-807639.24      3.9305436      34.860004      25.904833      21.741812    
-807637.09      4.573507       36.367552      25.899585      21.345393    
-807636.79      3.1215068      35.222422      25.870324      20.949071    
-807633.21      3.2099254      35.349379      25.903577      20.552736    
-807621.79      3.8425119      35.60536       25.877833      20.15649     
-807617.27      4.8869427      36.34615       25.87751       19.760288    
-807616.95      4.0445048      36.588679      25.928795      19.364046    
-807626.91      4.3225595      35.827072      25.923589      18.96786     
-807631.98      3.4705336      35.75265       25.898381      18.571758    
-807637.26      3.7755339      36.46023       25.922439      18.175664    
-807638.45      3.2891576      35.785086      25.912568      17.77963     
-807637.95      3.5807426      35.916059      25.905513      17.383651    
-807627.6       3.6423525      35.95396       25.935027      16.987673    
-807619         3.4189311      36.283468      25.911002      16.591774    
-807614.32      3.2703112      36.879481      25.905424      16.195926    
-807621.4       3.5111182      36.577426      25.851286      15.800191    
-807624.99      3.7265767      35.526862      25.866267      15.404475    
-807632.78      3.8579598      35.618064      25.870151      15.008795    
-807637.4       3.2562828      36.288255      25.887434      14.613133    
-807640.08      3.234653       35.975624      25.8941        14.217503    
-807631.67      3.8655685      37.023409      25.872722      13.821939    
-807626.02      3.0704989      35.773154      25.909961      13.426372    
-807619.62      4.0720256      36.476682      25.902584      13.030855    
-807616.41      3.6598498      37.630205      25.870838      12.63541     
-807616.82      4.567244       37.651657      25.854852      12.24002     
-807622.6       3.9891972      36.460844      25.874723      11.844647    
-807633.98      3.6828889      36.484709      25.883489      11.449303    
-807638.08      3.7294276      36.377605      25.855034      11.054023    
-807634.24      4.1527795      37.789409      25.889442      10.65875     
-807631.21      4.5867196      36.388671      25.899655      10.263506    
-807626.88      3.4860227      36.655425      25.949895      9.8682616    
-807618.36      4.1366885      37.389055      25.884701      9.4731075    
-807616.48      3.0775756      36.744172      25.894845      9.0779831    
-807616.05      3.1988792      37.625602      25.866066      8.682916     
-807626.29      2.7239109      35.577258      25.89196       8.2878672    
-807633.65      4.7512198      35.459081      25.88122       7.8928618    
-807636.63      3.8808029      36.416328      25.910538      7.4978751    
-807634.29      4.0178134      36.236746      25.936606      7.1029114    
-807631.86      3.2347517      35.639168      25.929124      6.7079906    
-807625.94      3.2220309      35.530153      25.934511      6.3131053    
-807618.26      3.630542       36.171517      25.923645      5.9182634    
-807615.14      3.6020592      36.621468      25.914566      5.5234629    
-807622.57      3.2216594      35.794343      25.863244      5.1287193    
-807627.84      3.4975691      36.64142       25.863885      4.7340088    
-807634.04      3.6061861      36.456608      25.929149      4.3393093    
-807635.08      3.503413       37.326524      25.947649      3.9446411    
-807636.42      4.1988351      36.043445      25.899648      3.5500238    
-807630.62      3.3331679      36.261854      25.885124      3.1554446    
-807623.49      3.5084631      35.967525      25.880641      2.7608998    
-807617.86      3.5410214      36.006171      25.87553       2.366389     
-807618.15      3.352311       36.565425      25.862116      1.9719128    
-807623.83      2.9435706      35.331112      25.861294      1.5774681    
-807628.34      3.6815889      35.01574       25.905988      1.1830506    
-807637.29      4.1044974      34.849725      25.874622      0.7886688    
-807637.11      3.558838       35.177959      25.916243      0.39431741   
-807636.34      2.9041625      34.61715       25.901513      0            
Loop time of 197.15 on 32 procs for 5000 steps with 1080 atoms

Performance: 4.382 ns/day, 5.476 hours/ns, 25.361 timesteps/s, 27.390 katom-step/s
69.1% CPU use with 32 MPI tasks x 1 OpenMP threads

MPI task timing breakdown:
Section |  min time  |  avg time  |  max time  |%varavg| %total
---------------------------------------------------------------
Pair    | 102.47     | 144.47     | 193.01     | 309.6 | 73.28
Neigh   | 0          | 0          | 0          |   0.0 |  0.00
Comm    | 1.8716     | 50.402     | 92.408     | 524.2 | 25.57
Output  | 0.025801   | 0.026716   | 0.027826   |   0.2 |  0.01
Modify  | 1.92       | 1.934      | 1.9451     |   0.4 |  0.98
Other   |            | 0.3147     |            |       |  0.16

Nlocal:          33.75 ave          48 max          21 min
Histogram: 8 8 0 0 0 0 0 8 0 8
Nghost:        1106.25 ave        1119 max        1092 min
Histogram: 8 0 8 0 0 0 0 0 8 8
Neighs:              0 ave           0 max           0 min
Histogram: 32 0 0 0 0 0 0 0 0 0
FullNghs:       5494.5 ave        7896 max        3378 min
Histogram: 8 8 0 0 0 0 0 8 0 8

Total # of neighbors = 175824
Ave neighs/atom = 162.8
Neighbor list builds = 0
Dangerous builds = 0

reset_timestep 0


variable interval equal 1000
thermo 10

variable nintervals equal $(v_PERIOD/v_interval)
variable nintervals equal 100
variable efield equal 1e-2*36.36*cos((step/${PERIOD})*2*3.14)
variable efield equal 1e-2*36.36*cos((step/100000)*2*3.14)
fix born all addbornforce 0.0 0.0 v_efield

variable Px equal f_born[1]+c_polarization[1]
variable Py equal f_born[2]+c_polarization[2]
variable Pz equal (f_born[3]+c_polarization[3])/vol
variable pe equal pe

fix aveP all ave/time 1 $(v_interval/2) ${interval} v_efield v_Pz v_pe f_born file Pz.${MODEL}.${STRUCTURE}.${TEMP}.$L.${ITER}
fix aveP all ave/time 1 500 ${interval} v_efield v_Pz v_pe f_born file Pz.${MODEL}.${STRUCTURE}.${TEMP}.$L.${ITER}
fix aveP all ave/time 1 500 1000 v_efield v_Pz v_pe f_born file Pz.${MODEL}.${STRUCTURE}.${TEMP}.$L.${ITER}
fix aveP all ave/time 1 500 1000 v_efield v_Pz v_pe f_born file Pz.BaTiO3-E0.${STRUCTURE}.${TEMP}.$L.${ITER}
fix aveP all ave/time 1 500 1000 v_efield v_Pz v_pe f_born file Pz.BaTiO3-E0.BaTiO3-sc333.${TEMP}.$L.${ITER}
fix aveP all ave/time 1 500 1000 v_efield v_Pz v_pe f_born file Pz.BaTiO3-E0.BaTiO3-sc333.330.$L.${ITER}
fix aveP all ave/time 1 500 1000 v_efield v_Pz v_pe f_born file Pz.BaTiO3-E0.BaTiO3-sc333.330.2.${ITER}
fix aveP all ave/time 1 500 1000 v_efield v_Pz v_pe f_born file Pz.BaTiO3-E0.BaTiO3-sc333.330.2.8

thermo_style custom step time temp press pe f_born v_efield v_Pz spcpu cpuremain

# dump 4a all custom 1000 dump.hyst.${MODEL}.${STRUCTURE}.${TEMP}.$L.${ITER}.bin id type xu yu zu fx fy fz
# dump_modify 4a sort id

fix nvt all nvt temp ${TEMP} ${TEMP} $(100*dt)
fix nvt all nvt temp 330 ${TEMP} $(100*dt)
fix nvt all nvt temp 330 330 $(100*dt)
fix nvt all nvt temp 330 330 0.2000000000000000111

run $(v_PERIOD)
run 100000
WARNING: non-constant efield is experimental, strongly distrust scalar/vector output (src/fix_addbornforce.cpp:193)
Per MPI rank memory allocation (min/avg/max) = 3.516 | 3.516 | 3.516 Mbytes
   Step          Time           Temp          Press          PotEng         f_born        v_efield         v_Pz          S/CPU         CPULeft    
         0   0              315.23996      127155.9      -807636.34     -293.65067      0.3636         0.055227404    0              0            
        10   0.02           337.11283      135426.42     -807629.62     -303.35574      0.36359993     0.057052666    28.443263      3515.4384    
        20   0.04           330.22649      136971.04     -807624.3      -307.88364      0.36359971     0.057904271    28.362266      3520.094     
        30   0.06           321.65491      144511.55     -807617.14     -313.68233      0.36359935     0.058994899    28.391645      3520.1981    
        40   0.08           317.75525      140143.28     -807619.59     -310.78459      0.36359885     0.058449997    28.480065      3517.3407    
        50   0.1            332.84415      140401.82     -807621.81     -310.47614      0.36359821     0.058392088    28.445788      3516.3313    
        60   0.12           334.11506      130700.71     -807632.12     -300.44181      0.36359742     0.056505028    28.507736      3514.2686    
        70   0.14           321.42488      130796.5      -807634.36     -296.13834      0.36359649     0.055695804    28.638862      3510.4024    
        80   0.16           308.88326      125181.54     -807638.4      -290.43434      0.36359541     0.054623194    29.036972      3501.4366    
        90   0.18           330.03502      130907.69     -807633.63     -297.92702      0.36359419     0.05603256     29.054725      3494.152     
       100   0.2            335.67054      131221.06     -807630.36     -302.07884      0.36359283     0.056813626    28.988654      3489.0397    
       110   0.22           323.83152      140781.33     -807620.48     -310.0566       0.36359132     0.058314288    28.979249      3484.8958    
       120   0.24           318.74237      142677.74     -807617.87     -311.89315      0.36358968     0.058659967    29.016694      3481.0147    
       130   0.26           328.69727      143273        -807617.97     -312.94496      0.36358788     0.058858078    29.075192      3477.1443    
       140   0.28           345.06706      136170        -807626.22     -306.785        0.36358595     0.057699833    29.091673      3473.6391    
       150   0.3            334.88931      132781.49     -807631.6      -299.61797      0.36358387     0.056352186    29.104866      3470.4517    
       160   0.32           333.42789      127162.22     -807636.57     -294.21382      0.36358165     0.055336112    29.070888      3467.8706    
       170   0.34           320.64881      127361.52     -807635.89     -292.81097      0.36357928     0.05507262     29.077229      3465.5082    
       180   0.36           325.58245      131076.65     -807632.11     -296.97858      0.36357677     0.055856859    29.057337      3463.5008    
       190   0.38           335.89469      134954.81     -807627.44     -302.85841      0.36357412     0.056963177    29.082414      3461.5126    
       200   0.4            336.80501      141155.83     -807619.03     -311.03988      0.36357132     0.05850244     29.040128      3459.9387    
       210   0.42           320.376        143897.28     -807615.46     -312.00024      0.36356838     0.058683545    28.972787      3458.8623    
       220   0.44           336.69806      142732.59     -807618.61     -310.84501      0.3635653      0.058466756    28.977683      3457.8258    
       230   0.46           350.59755      135330.17     -807625.62     -305.4931       0.36356207     0.057460626    28.972435      3456.8766    
       240   0.48           350.11026      132543.85     -807631.06     -299.64317      0.3635587      0.056360827    28.998089      3455.8508    
       250   0.5            330.51721      127368.42     -807634.5      -293.38849      0.36355519     0.055184897    29.025635      3454.7489    
       260   0.52           335.88883      128874.44     -807633.47     -294.95349      0.36355153     0.055479825    29.068929      3453.5084    
       270   0.54           335.90677      129437.19     -807631.33     -297.14684      0.36354773     0.055892971    29.069053      3452.3338    
       280   0.56           333.44529      138830.42     -807622.54     -305.40234      0.36354379     0.057446443    29.010092      3451.4675    
       290   0.58           354.53849      139120.76     -807621.92     -309.1005       0.3635397      0.058142724    29.032379      3450.5462    
       300   0.6            343.91154      144542.3      -807616.28     -313.14952      0.36353547     0.058905043    29.01637       3449.7266    
       310   0.62           331.69581      139779.45     -807618.67     -309.231        0.3635311      0.058168648    28.987463      3449.0479    
       320   0.64           348.36569      138152.39     -807624.83     -305.32854      0.36352658     0.057435281    29.02074       3448.2672    
       330   0.66           339.22287      130783.65     -807632.12     -296.92547      0.36352192     0.055855296    29.011873      3447.5445    
       340   0.68           328.63342      128530.92     -807632.99     -294.6126       0.36351712     0.055420951    29.018264      3446.8219    
       350   0.7            331.38874      128695.07     -807633.4      -294.7647       0.36351217     0.055450317    28.99951       3446.1843    
       360   0.72           333.0535       132884.79     -807628.53     -300.02909      0.36350708     0.05644143     29.002617      3445.5527    
       370   0.74           345.18347      136155.89     -807625.36     -305.08375      0.36350185     0.057393138    28.986811      3444.9873    
       380   0.76           334.73425      142522.53     -807618.39     -310.80082      0.36349647     0.058469513    29.052066      3444.2303    
       390   0.78           332.86512      142217.31     -807616.65     -312.38831      0.36349095     0.058769051    29.088192      3443.3853    
       400   0.8            356.58724      139432.67     -807623.71     -308.8082       0.36348529     0.058096439    29.072181      3442.6125    
       410   0.82           340.53071      134198.36     -807627.51     -302.94803      0.36347948     0.056994869    29.015959      3442.0225    
       420   0.84           329.95735      131816.03     -807631.26     -297.84645      0.36347353     0.056036004    29.034811      3441.391     
       430   0.86           326.83194      128348.38     -807634.48     -294.35935      0.36346744     0.05538088     29.043221      3440.7501    
       440   0.88           331.66244      129279.78     -807634.16     -295.41926      0.3634612      0.055581244    29.010727      3440.2097    
       450   0.9            328.91018      133301.04     -807629.14     -300.23361      0.36345482     0.056488025    29.052343      3439.5689    
       460   0.92           339.39541      138416.6      -807623.87     -307.08679      0.3634483      0.057778466    29.004397      3439.064     
       470   0.94           347.37602      140703.05     -807620.59     -311.57341      0.36344163     0.058623702    29.025046      3438.514     
       480   0.96           330.59393      141430.94     -807618.42     -311.44718      0.36343482     0.058601049    29.070906      3437.8599    
       490   0.98           342.9747       137664.33     -807624.3      -307.39775      0.36342786     0.057840226    29.045919      3437.2785    
       500   1              342.57665      133286.06     -807629.58     -302.16023      0.36342077     0.05685584     29.056364      3436.682     
       510   1.02           320.50295      129977.49     -807631.83     -9501.468       0.36341353     0.055871092    28.963129      3436.3115    
       520   1.04           314.17829      128069.12     -807634.26     -9396.8173      0.36340614     0.055256841    28.941837      3435.9906    
       530   1.06           324.72814      129541.77     -807634.6      -9434.0708      0.36339862     0.055477056    28.991436      3435.5578    
       540   1.08           328.99421      133414.85     -807628.5      -9651.3159      0.36339095     0.056755763    28.997055      3435.116     
       550   1.1            341.42466      138395.98     -807623.73     -9862.9105      0.36338313     0.058001319    28.975496      3434.7241    
       560   1.12           332.23627      141085.8      -807619.63     -9955.6239      0.36337518     0.058547825    28.983449      3434.317     
       570   1.14           326.03089      141834.88     -807619.32     -9939.9574      0.36336707     0.058456996    28.988695      3433.9012    
       580   1.16           337.71305      137190.48     -807624.44     -9831.5986      0.36335883     0.057821048    28.985738      3433.4939    
       590   1.18           331.26322      133501.22     -807628.17     -9683.8144      0.36335044     0.056953222    28.983203      3433.0938    
       600   1.2            331.73139      127930.19     -807635.56     -9451.6342      0.36334191     0.055589011    28.991718      3432.6787    
       610   1.22           324.36721      128541.21     -807636.28     -9394.0752      0.36333324     0.055251801    28.99995       3432.25      
       620   1.24           324.32674      129199.01     -807634.58     -9453.1697      0.36332442     0.055600718    28.991742      3431.8397    
       630   1.26           336.43271      135295.09     -807627.4      -9738.5137      0.36331546     0.057280439    28.981402      3431.4508    
       640   1.28           339.70102      137279.75     -807625.66     -9815.5434      0.36330636     0.057734962    28.970595      3431.0832    
       650   1.3            323.84441      142725.09     -807618.31     -9977.8202      0.36329711     0.058690967    28.92449       3430.8005    
       660   1.32           312.27267      139657        -807619.24     -9903.3984      0.36328772     0.058254713    28.923006      3430.5185    
       670   1.34           335.89157      139207.03     -807624.56     -9836.1205      0.36327819     0.057860483    28.91633       3430.2465    
       680   1.36           333.37843      130269.15     -807631.67     -9602.5024      0.36326851     0.056487741    28.918105      3429.9692    
       690   1.38           326.05813      131060.14     -807635.29     -9449.3516      0.36325869     0.055588318    28.927336      3429.674     
       700   1.4            316.85338      126460.59     -807636.79     -9367.4325      0.36324873     0.055107918    28.946629      3429.3446    
       710   1.42           333.53399      130592.74     -807634.12     -9526.044       0.36323863     0.056042577    28.998318      3428.9288    
       720   1.44           331.64636      133128.53     -807629.82     -9660.6709      0.36322838     0.056836203    29.010339      3428.4952    
       730   1.46           324.41078      139380.93     -807622.35     -9866.5476      0.36321798     0.05804909     28.977079      3428.1178    
       740   1.48           322.61488      140672.92     -807620.11     -9931.4022      0.36320745     0.058432351    28.965754      3427.7594    
       750   1.5            332.20166      140663.66     -807621.26     -9938.1183      0.36319677     0.058473585    29.008446      3427.3341    
       760   1.52           327.72251      137284.54     -807624.84     -9804.1845      0.36318595     0.057687269    29.002418      3426.9203    
       770   1.54           326.14764      132569.71     -807630.46     -9617.1815      0.36317498     0.056588663    28.996174      3426.5178    
       780   1.56           319.92806      129278.74     -807635.02     -9444.294       0.36316387     0.055573072    29.034534      3426.0589    
       790   1.58           320.6145       127844.89     -807636.07     -9417.5837      0.36315262     0.055417617    28.995305      3425.6614    
       800   1.6            322.05273      131311.63     -807631.91     -9556.3123      0.36314122     0.056235728    28.995276      3425.2652    
       810   1.62           327.04584      133152.4      -807628.93     -9676.3209      0.36312968     0.056943748    29.005202      3424.8559    
       820   1.64           332.07337      139230.64     -807623.49     -9871.2914      0.363118       0.05809299     29.012008      3424.4383    
       830   1.66           322.56459      140456.64     -807620.52     -9924.9971      0.36310618     0.058410953    29.013478      3424.0205    
       840   1.68           331.57254      141127.8      -807620.7      -9955.9261      0.36309421     0.058594909    28.975754      3423.6573    
       850   1.7            329.8539       135303.5      -807626.9      -9750.5839      0.3630821      0.057388295    28.960669      3423.3155    
       860   1.72           329.5206       132969.75     -807631.46     -9599.9449      0.36306984     0.056503598    28.998934      3422.9211    
       870   1.74           313.51353      128467.62     -807634.3      -9435.3169      0.36305745     0.055536523    29.027318      3422.4895    
       880   1.76           321.07804      129391.84     -807634.48     -9459.0722      0.3630449      0.05567827     29.014277      3422.0772    
       890   1.78           329.44288      129607.44     -807633.83     -9517.4851      0.36303222     0.056024059    28.98721       3421.7023    
       900   1.8            330.74326      136085.53     -807627.88     -9708.5361      0.36301939     0.057150688    28.999269      3421.3123    
       910   1.82           339.73272      138133.64     -807624.58     -9851.4759      0.36300642     0.057994196    29.000491      3420.9217    
       920   1.84           318.32551      142041.21     -807618.28     -9950.68        0.36299331     0.058580312    28.978105      3420.5608    
       930   1.86           333.3179       138609.22     -807623.36     -9849.1854      0.36298005     0.057984924    28.925851      3420.2666    
       940   1.88           325.34268      135821.03     -807625.73     -9731.1545      0.36296665     0.057292158    28.958706      3419.93      
       950   1.9            332.18295      131381.29     -807632.09     -9552.4148      0.36295311     0.056241927    29.058345      3419.4698    
       960   1.92           321.03364      130217.73     -807632.98     -9466.6622      0.36293942     0.055739141    28.984893      3419.1019    
       970   1.94           330.68285      129333.42     -807634.85     -9443.7195      0.36292559     0.055606175    28.940129      3418.789     
       980   1.96           331.38308      133655.75     -807630.94     -9564.4086      0.36291162     0.056318981    28.951896      3418.4613    
       990   1.98           344.23167      135265.89     -807627.05     -9741.0362      0.3628975      0.057361264    28.965549      3418.1169    
      1000   2              333.46011      140392.62     -807620.44     -9896.9848      0.36288325     0.058281877    28.922533      3417.8233    
      1010   2.02           326.66865      140835.86     -807619.01     -309.59524      0.36286884     0.058343451    29.027947      3417.4056    
      1020   2.04           330.60267      140370.06     -807621.1      -307.92073      0.3628543      0.058030215    28.995675      3417.0266    
      1030   2.06           340.8814       134895.18     -807627.58     -302.73737      0.36283961     0.057055676    28.970577      3416.6769    
      1040   2.08           322.99184      132719.12     -807629.4      -298.17429      0.36282478     0.056197989    28.98964       3416.3058    
      1050   2.1            326.26579      128507.8      -807633.17     -294.73322      0.3628098      0.05555173     29.011162      3415.911     
      1060   2.12           335.45874      129711.32     -807633.19     -295.83401      0.36279469     0.055761533    29.024405      3415.5025    
      1070   2.14           335.1606       132173.78     -807630        -298.92457      0.36277943     0.056346439    29.053687      3415.063     
      1080   2.16           348.31582      137265.3      -807626.15     -304.4944       0.36276402     0.057398775    29.007947      3414.6751    
      1090   2.18           326.00811      140082.79     -807619.03     -308.46849      0.36274848     0.058150403    28.974347      3414.3242    
      1100   2.2            347.33694      140422.09     -807621.25     -309.12277      0.36273279     0.058276263    29.061619      3413.8802    
      1110   2.22           341.25074      138225.25     -807623.03     -306.42413      0.36271695     0.057770035    28.998635      3413.5046    
      1120   2.24           336.06946      135370.48     -807626.68     -302.07302      0.36270098     0.056952229    28.991225      3413.1374    
      1130   2.26           339.46943      132352.84     -807630.92     -298.28134      0.36268486     0.056239853    29.037631      3412.7223    
      1140   2.28           326.02152      129787.44     -807632.53     -294.83824      0.3626686      0.055593161    29.027218      3412.3192    
      1150   2.3            332.01656      131115.4      -807632.42     -295.78629      0.36265219     0.055774444    28.933199      3412.0132    
      1160   2.32           324.55779      133169.92     -807627.67     -299.62804      0.36263564     0.056501435    28.963592      3411.6758    
      1170   2.34           346.00077      137103.08     -807624.67     -305.73103      0.36261895     0.057654941    29.036972      3411.2645    
      1180   2.36           333.38535      138887.59     -807621.09     -307.69842      0.36260212     0.058028647    29.066657      3410.8248    
      1190   2.38           327.86995      142012.69     -807619.22     -308.94422      0.36258514     0.05826632     29.065618      3410.3879    
      1200   2.4            349.68213      136881.82     -807625.66     -305.83173      0.36256802     0.057682032    29.108872      3409.9103    
      1210   2.42           334.14173      135809.28     -807626.57     -302.90887      0.36255076     0.057133482    29.07613       3409.4665    
      1220   2.44           332.45612      129941.15     -807633.06     -296.5996       0.36253335     0.055946138    29.024276      3409.0741    
      1230   2.46           320.49279      130313.14     -807632.85     -295.34195      0.3625158      0.05571161     29.001542      3408.7042    
      1240   2.48           337.0259       128695.74     -807635.3      -295.65081      0.36249811     0.055772593    29.017411      3408.3197    
      1250   2.5            328.70516      135320.97     -807628.3      -301.82031      0.36248028     0.05693923     29.099643      3407.8589    
      1260   2.52           317.37912      136617.83     -807624.44     -304.47968      0.3624623      0.057443777    29.071089      3407.4265    
      1270   2.54           327.313        140497.7      -807622.09     -308.37052      0.36244418     0.058180741    29.081995      3406.9853    
      1280   2.56           320.04171      138501.62     -807622.55     -307.2368       0.36242592     0.05796976     29.075794      3406.5513    
      1290   2.58           323.5886       137872.51     -807623.82     -306.58739      0.36240751     0.057850168    29.085285      3406.1102    
      1300   2.6            328.10044      132213.5      -807631.24     -300.00143      0.36238896     0.056610355    29.127021      3405.6331    
      1310   2.62           317.10622      131537.73     -807632.81     -296.90935      0.36237027     0.056029769    29.037266      3405.2381    
      1320   2.64           325.49698      128060.91     -807636.17     -294.86115      0.36235143     0.055646147    29.021993      3404.8573    
      1330   2.66           316.99656      131548.59     -807632.12     -297.75133      0.36233245     0.056194523    29.02594       3404.4736    
      1340   2.68           333.06929      133066.62     -807631.47     -300.75373      0.36231333     0.056764161    29.021875      3404.0941    
      1350   2.7            329.27533      137595.3      -807626.07     -305.57568      0.36229407     0.057677322    29.072281      3403.6714    
      1360   2.72           319.18989      139031.16     -807621.81     -308.47834      0.36227466     0.058228316    29.075055      3403.2475    
      1370   2.74           324.83967      140045.17     -807622.71     -308.2718       0.36225511     0.058192471    29.017258      3402.8741    
      1380   2.76           321.31118      136186.59     -807626.31     -304.12496      0.36223542     0.057412793    29.027635      3402.4923    
      1390   2.78           325.04326      133870.9      -807630.94     -299.88414      0.36221558     0.05661531     29.031478      3402.1078    
      1400   2.8            323.30948      130019.61     -807634.15     -296.35537      0.3621956      0.055952196    29.036453      3401.7197    
      1410   2.82           312.26901      128958.96     -807633.04     -295.80481      0.36217548     0.055851354    29.050097      3401.3209    
      1420   2.84           323.95529      131137.96     -807633.57     -296.75139      0.36215522     0.056033214    29.050044      3400.923     
      1430   2.86           330.35254      133612.58     -807630.34     -300.78357      0.36213481     0.056797778    29.052402      3400.5238    
      1440   2.88           325.80226      138099.62     -807623.43     -306.96962      0.36211426     0.057969198    29.067518      3400.1132    
      1450   2.9            319.45378      139537.58     -807620.98     -308.37551      0.36209357     0.058238018    29.065777      3399.7049    
      1460   2.92           326.82916      139164.22     -807623.33     -306.83836      0.36207273     0.057951055    29.071289      3399.2931    
      1470   2.94           325.51041      135836.84     -807625.95     -303.8767       0.36205176     0.057395026    29.042048      3398.9054    
      1480   2.96           328.42175      132702.09     -807629.89     -300.14304      0.36203064     0.056693136    29.082993      3398.486     
      1490   2.98           323.12907      130230.37     -807633.86     -295.24387      0.36200937     0.055771021    29.053498      3398.0907    
      1500   3              321.86991      129436.13     -807633.97     -294.77667      0.36198796     0.05568606     29.015159      3397.726     
      1510   3.02           326.50951      130396.01     -807631.94     -9514.5429      0.36196642     0.056171651    28.96546       3397.4001    
      1520   3.04           339.05026      133774.04     -807629.15     -9654.9002      0.36194472     0.057003704    28.99921       3397.0479    
      1530   3.06           326.23992      138307.28     -807622.06     -9820.5482      0.36192289     0.057985208    29.010991      3396.6868    
      1540   3.08           334.98739      139926.22     -807621.95     -9857.1289      0.36190091     0.058204732    28.99968       3396.3345    
      1550   3.1            329.93071      138907.88     -807622.66     -9807.1561      0.36187879     0.057913191    28.9498        3396.02      
      1560   3.12           342.49727      135630.76     -807627.22     -9711.8396      0.36185653     0.057353857    28.961863      3395.696     
      1570   3.14           330.79799      131315.03     -807630.58     -9545.5525      0.36183412     0.056375329    28.980252      3395.3581    
      1580   3.16           330.46629      129495.86     -807633.9      -9432.6326      0.36181157     0.055711904    28.987808      3395.0145    
      1590   3.18           325.49074      129783.19     -807634.35     -9393.9541      0.36178888     0.055486938    29.01246       3394.6527    
      1600   3.2            331.54787      133443.63     -807629.89     -9561.5982      0.36176605     0.05648072     28.992111      3394.306     
      1610   3.22           346.18112      134994.71     -807627.98     -9686.609       0.36174307     0.057222797    29.002764      3393.9515    
      1620   3.24           328.01447      139692.12     -807621.72     -9801.0776      0.36171995     0.057902711    28.999057      3393.5999    
      1630   3.26           336.38319      138438.96     -807622.56     -9811.6422      0.36169669     0.057968852    28.952873      3393.2816    
      1640   3.28           329.42152      139519.41     -807621.01     -9826.8959      0.36167329     0.058062731    28.870309      3393.0221    
      1650   3.3            337.96869      134703.81     -807627.41     -9661.4155      0.36164974     0.057088698    28.879411      3392.7551    
      1660   3.32           329.67322      132883.78     -807629.88     -9541.7269      0.36162605     0.056385159    28.848781      3392.509     
      1670   3.34           328.27726      129633.2      -807633.45     -9421.9641      0.36160222     0.055681112    28.880622      3392.2391    
      1680   3.36           329.10985      131920.25     -807631.9      -9472.7139      0.36157824     0.055984741    28.892283      3391.9601    
      1690   3.38           338.05304      132005.42     -807630.4      -9561.201       0.36155413     0.056511478    28.919413      3391.6614    
      1700   3.4            335.19387      135933.41     -807626.46     -9673.4497      0.36152987     0.057178761    28.990743      3391.313     
      1710   3.42           334.93233      137219.9      -807624.11     -9748.678       0.36150546     0.057627317    29.015229      3390.9479    
      1720   3.44           333.11608      138832.53     -807620.79     -9847.6925      0.36148092     0.058216574    29.002188      3390.5919    
      1730   3.46           337.46378      138022.02     -807623.81     -9772.4824      0.36145623     0.0577759      29.015952      3390.2268    
      1740   3.48           335.04745      134974.18     -807627.81     -9631.4421      0.3614314      0.056945968    29.018757      3389.86      
      1750   3.5            326.76554      132366.32     -807630.87     -9495.508       0.36140643     0.056146136    29.030048      3389.4859    
      1760   3.52           336.27038      129173.27     -807633.64     -9450.3098      0.36138131     0.055882766    28.994776      3389.1356    
      1770   3.54           325.43514      132131.4      -807630.43     -9504.1384      0.36135605     0.056205       28.993684      3388.786     
      1780   3.56           340.63159      131889.77     -807631.99     -9524.5491      0.36133065     0.056329664    29.009022      3388.4264    
      1790   3.58           326.60054      137205.79     -807624.13     -9712.0537      0.36130511     0.057442656    28.973484      3388.0902    
      1800   3.6            342.54594      137527.6      -807624.34     -9781.7104      0.36127942     0.057858759    28.990913      3387.7426    
      1810   3.62           328.08077      141065.42     -807619.52     -9867.8504      0.3612536      0.058372449    29.000155      3387.389     
      1820   3.64           328.58096      136413.36     -807624.95     -9700.5519      0.36122763     0.057386934    29.044204      3387.0073    
      1830   3.66           340.43358      135045.96     -807628.91     -9621.9866      0.36120151     0.05692627     29.011179      3386.6471    
      1840   3.68           322.79792      129220.56     -807631.5      -9465.8249      0.36117526     0.056006446    28.952505      3386.3242    
      1850   3.7            327.10415      131108.07     -807631.52     -9480.9022      0.36114886     0.056099754    28.973818      3385.9877    
      1860   3.72           330.08896      128320.82     -807634.45     -9403.9969      0.36112232     0.055648785    29.004732      3385.6317    
      1870   3.74           334.66087      134867.06     -807629.8      -9570.7706      0.36109564     0.056639864    29.00311       3385.2768    
      1880   3.76           343.26158      134607.32     -807627.23     -9696.4609      0.36106881     0.057387963    28.996086      3384.9263    
      1890   3.78           330.86362      141008.15     -807620.83     -9843.8686      0.36104184     0.058264739    29.0291        3384.5556    
      1900   3.8            336.75974      137417.28     -807624.86     -9744.6574      0.36101474     0.057681851    28.989141      3384.2097    
      1910   3.82           330.47946      138599.96     -807624.61     -9720.3456      0.36098748     0.057542285    28.999962      3383.8571    
      1920   3.84           336.39606      132243.62     -807629.86     -9582.6502      0.36096009     0.056731464    29.022592      3383.4909    
      1930   3.86           330.22184      131743.97     -807631.07     -9512.3849      0.36093255     0.056319774    29.034833      3383.1175    
      1940   3.88           327.77747      128558.85     -807635.35     -9365.3419      0.36090487     0.055453432    29.095697      3382.708     
      1950   3.9            314.66858      132701.69     -807630.17     -9472.5651      0.36087705     0.056092639    28.985448      3382.365     
      1960   3.92           333.58598      133064.55     -807629.35     -9587.6242      0.36084909     0.056778372    28.979582      3382.0254    
      1970   3.94           334.1272       137988.55     -807624.22     -9753.1337      0.36082098     0.057763026    29.004084      3381.6712    
      1980   3.96           320.54766      137698.46     -807623.14     -9728.2308      0.36079273     0.057620049    28.989292      3381.3258    
      1990   3.98           323.73465      138436.71     -807622.57     -9759.3692      0.36076434     0.05780903     28.99851       3380.9751    
      2000   4              339.57495      135166.53     -807626.82     -9693.5099      0.36073581     0.057423458    29.025709      3380.6086    
      2010   4.02           334.48443      132633.53     -807629.67     -299.36026      0.36070713     0.056752752    29.066484      3380.2187    
      2020   4.04           330.90456      130463.75     -807633.33     -295.19691      0.36067831     0.055967936    29.032901      3379.8486    
      2030   4.06           328.11117      129483.76     -807634.48     -293.63288      0.36064935     0.055675875    29.001758      3379.4966    
      2040   4.08           338.45201      133004.84     -807632.11     -297.40784      0.36062025     0.056396197    29.071258      3379.1051    
      2050   4.1            338.37396      133278.23     -807629.16     -300.48732      0.36059101     0.056984767    29.129241      3378.6813    
      2060   4.12           326.08726      138743.13     -807624.18     -303.67349      0.36056162     0.057593688    29.118318      3378.2644    
      2070   4.14           329.24579      137294.85     -807625.31     -303.10016      0.36053209     0.057489663    29.057771      3377.8821    
      2080   4.16           329.03918      139251.47     -807622.71     -305.58748      0.36050242     0.057966207    29.073625      3377.4913    
      2090   4.18           342.46585      133452.58     -807628.83     -301.51202      0.36047261     0.057197873    29.051545      3377.1133    
      2100   4.2            323.91042      134631.79     -807628.67     -298.99078      0.36044265     0.056724299    29.002468      3376.7626    
      2110   4.22           328.62218      127984.33     -807636.11     -292.31001      0.36041256     0.055461459    28.970739      3376.4296    
      2120   4.24           331.50906      131491.11     -807632.66     -296.11539      0.36038232     0.056188187    28.928029      3376.12      
      2130   4.26           316.01001      130012.01     -807630.88     -295.99781      0.36035193     0.056170612    28.981582      3375.7807    
      2140   4.28           328.30465      136346.76     -807627.16     -301.3102       0.36032141     0.057183571    28.999373      3375.4317    
      2150   4.3            312.13385      135488.82     -807625.05     -301.31771      0.36029075     0.057189864    29.036758      3375.0625    
      2160   4.32           325.79089      140632.85     -807622.22     -305.97702      0.36025994     0.058079165    29.077416      3374.6717    
      2170   4.34           331.33707      135967.43     -807624.89     -304.19527      0.36022899     0.057745921    29.032854      3374.3051    
      2180   4.36           339.44262      135731.57     -807629.34     -300.75133      0.36019789     0.057097081    28.980033      3373.9669    
      2190   4.38           331.33965      129852.52     -807633.66     -295.39383      0.36016666     0.056084833    28.901817      3373.6704    
      2200   4.4            326.26723      131161.5      -807632.94     -295.40321      0.36013528     0.0560915      28.984908      3373.3293    
      2210   4.42           330.1103       128887.66     -807633.94     -295.02455      0.36010377     0.056024503    29.031877      3372.9635    
      2220   4.44           317.31084      132716.39     -807630.22     -296.92557      0.36007211     0.056390461    29.132797      3372.5453    
      2230   4.46           330.0198       134582.76     -807630.29     -298.70174      0.3600403      0.056732791    29.143613      3372.1222    
      2240   4.48           323.51464      138221.6      -807622.92     -305.10189      0.36000836     0.057953521    29.088113      3371.7284    
      2250   4.5            337.43605      137217.12     -807624.96     -305.01579      0.35997627     0.057942331    29.061322      3371.3488    
      2260   4.52           329.85477      137623.3      -807626.26     -302.57461      0.35994404     0.057483739    29.062259      3370.9691    
      2270   4.54           328.55146      133764.77     -807629.98     -298.61627      0.35991167     0.056736828    29.062908      3370.5893    
      2280   4.56           330.06653      131875.23     -807631.25     -297.42143      0.35987916     0.056514915    29.068915      3370.2068    
      2290   4.58           312.31493      130771.38     -807631.35     -294.76692      0.35984651     0.056015596    29.010619      3369.8541    
      2300   4.6            326.92258      130619.57     -807635.49     -292.5164       0.35981371     0.055592989    29.051091      3369.4811    
      2310   4.62           330.96717      131969.28     -807632.39     -295.98428      0.35978077     0.056257213    29.085307      3369.0912    
      2320   4.64           332.56109      134637.26     -807626.68     -301.83306      0.35974769     0.057374155    29.063475      3368.7126    
      2330   4.66           324.89491      138548.37     -807623.09     -304.17809      0.35971447     0.057825252    29.078414      3368.3269    
      2340   4.68           334.6137       137717.52     -807626.83     -301.64441      0.35968111     0.057348911    29.020091      3367.9703    
      2350   4.7            335.11539      137881.78     -807624.83     -303.36313      0.3596476      0.057681048    29.033443      3367.6073    
      2360   4.72           330.18518      134222.74     -807627.64     -299.79276      0.35961396     0.057007517    28.987337      3367.2671    
      2370   4.74           332.5813       133001.22     -807630.88     -296.51219      0.35958017     0.056388994    28.987848      3366.9267    
      2380   4.76           334.20454      127462.17     -807636.32     -291.11919      0.35954624     0.055368609    28.997235      3366.5816    
      2390   4.78           332.64193      131460.73     -807632.85     -294.08536      0.35951216     0.055938051    29.03047       3366.2204    
      2400   4.8            326.75429      132080.09     -807629.13     -296.90172      0.35947795     0.056479127    29.076211      3365.8373    
      2410   4.82           336.3005       137364.71     -807625.56     -301.43083      0.35944359     0.057346173    29.077492      3365.4539    
      2420   4.84           328.83351      136559.71     -807624.87     -300.98755      0.35940909     0.057267338    29.053438      3365.0823    
      2430   4.86           338.18249      140490.01     -807622.4      -304.4993       0.35937446     0.057941083    29.050767      3364.7122    
      2440   4.88           329.83481      136629.29     -807623.13     -302.51981      0.35933967     0.057569992    29.045045      3364.345     
      2450   4.9            336.9178       135643.16     -807626.13     -300.17292      0.35930475     0.057128927    29.041917      3363.9795    
      2460   4.92           333.58888      129883.68     -807633.49     -292.29788      0.35926969     0.055635578    29.07477       3363.5987    
      2470   4.94           342.08436      130927.92     -807633.62     -293.01972      0.35923448     0.055778439    29.07539       3363.218     
      2480   4.96           342.51235      129214.41     -807632.81     -293.86789      0.35919913     0.055945399    29.110705      3362.8211    
      2490   4.98           330.94285      134005.01     -807628.75     -296.17417      0.35916364     0.056390031    29.091648      3362.4335    
      2500   5              338.4732       134458.4      -807628.57     -297.3368       0.35912801     0.056617007    29.075231      3362.0538    
[...]
     98740   197.48         320.56428      134815.7      -807627.33     -9648.3907      0.36236891     0.056898588    28.955585      42.551821    
     98750   197.5          331.19193      133608.4      -807629.11     -9634.135       0.36238762     0.056811587    28.943521      42.214207    
     98760   197.52         340.13444      136064.18     -807627.61     -9714.5874      0.36240618     0.057283073    28.908676      41.876597    
     98770   197.54         336.17313      135254.47     -807627.87     -9684.2319      0.36242459     0.057101177    28.845748      41.538994    
     98780   197.56         341.61916      135964.38     -807628.22     -9691.7032      0.36244287     0.057142349    28.838724      41.20139     
     98790   197.58         332.07509      135183.32     -807627.39     -9672.5226      0.362461       0.057026407    28.842192      40.863784    
     98800   197.6          330.03515      135254.36     -807627.63     -9648.1721      0.36247899     0.056880021    28.792933      40.526183    
     98810   197.62         335.83975      134061.25     -807628.98     -9626.4611      0.36249683     0.056749232    28.767416      40.188584    
     98820   197.64         326.41408      134229.64     -807628.15     -9605.1472      0.36251453     0.056620818    28.768994      39.850983    
     98830   197.66         332.4111       134651.61     -807626.73     -9670.1176      0.36253209     0.057001048    28.815399      39.513373    
     98840   197.68         331.40841      135152.16     -807626.35     -9674.976       0.36254951     0.057026946    28.797328      39.175764    
     98850   197.7          338.35461      136486.73     -807626.43     -9698.0312      0.36256678     0.057160116    28.796564      38.838153    
     98860   197.72         345.28355      135490.5      -807626.71     -9714.1041      0.36258391     0.057252145    28.798325      38.500539    
     98870   197.74         330.7728       136977.89     -807624.17     -9727.2072      0.3626009      0.057326685    28.827135      38.16292     
     98880   197.76         334.33821      135064.31     -807626.26     -9674.9724      0.36261774     0.057016194    28.8406        37.825297    
     98890   197.78         340.81183      134040.35     -807628        -9642.4357      0.36263445     0.056821833    28.796784      37.487678    
     98900   197.8          332.13968      133538.16     -807628.02     -9602.7021      0.362651       0.056585103    28.803683      37.150057    
     98910   197.82         347.10206      133137.76     -807629.34     -9625.1865      0.36266742     0.056715028    28.788088      36.812435    
     98920   197.84         337.91291      133759        -807627.09     -9655.0796      0.36268369     0.056888616    28.792586      36.474811    
     98930   197.86         325.78179      136703.51     -807624.09     -9698.7913      0.36269982     0.057143628    28.809572      36.137183    
     98940   197.88         345.68112      135566.04     -807626.5      -9709.7888      0.36271581     0.057205902    28.792105      35.799555    
     98950   197.9          333.43951      136885.57     -807623.9      -9740.9617      0.36273165     0.057387053    28.818472      35.461921    
     98960   197.92         337.3421       135671.47     -807625.04     -9725.0462      0.36274735     0.05729081     28.80734       35.124287    
     98970   197.94         335.17456      135585.86     -807626.22     -9679.006       0.36276291     0.057017139    28.865118      34.786645    
     98980   197.96         336.07676      133364.84     -807628.6      -9613.9802      0.36277832     0.056631679    28.8271        34.449005    
     98990   197.98         339.99846      134533.43     -807627.62     -9669.9392      0.36279359     0.056958911    28.855851      34.111359    
     99000   198            328.4744       133773.16     -807627.43     -9636.8529      0.36280872     0.056761655    28.867289      33.773711    
     99010   198.02         321.15811      136325.88     -807625.73     -302.08765      0.3628237      0.056935723    28.936233      33.436052    
     99020   198.04         336.59482      134871.7      -807628        -302.41409      0.36283855     0.056994917    28.955064      33.09839     
     99030   198.06         329.06201      136413.08     -807624.54     -305.15757      0.36285324     0.057509641    28.962385      32.760725    
     99040   198.08         339.17872      135492.26     -807627.34     -304.18305      0.3628678      0.057323684    28.97437       32.423057    
     99050   198.1          319.63992      135716.87     -807626.71     -302.4919       0.36288221     0.057002722    28.950866      32.08539     
     99060   198.12         330.48481      134327.23     -807629.06     -301.94155      0.36289648     0.056896773    28.89899       31.747728    
     99070   198.14         324.94484      133962.36     -807628.64     -301.9462       0.36291061     0.056895435    28.860214      31.410068    
     99080   198.16         321.13455      133572.58     -807628.27     -302.05552      0.36292459     0.056913841    28.881823      31.072405    
     99090   198.18         314.88196      134235.58     -807629.27     -300.42618      0.36293843     0.05660468     28.894406      30.734738    
     99100   198.2          317.59952      135068.7      -807627.66     -302.5665       0.36295213     0.057005795    28.901802      30.397068    
     99110   198.22         321.19516      135066.87     -807626.61     -304.35373      0.36296568     0.057340383    28.865316      30.059401    
     99120   198.24         323.85084      136179.12     -807626.5      -304.91694      0.36297909     0.057444369    28.848305      29.721734    
     99130   198.26         323.69701      134404.01     -807628.84     -302.7207       0.36299236     0.057028526    28.835634      29.384067    
     99140   198.28         328.95334      136201.37     -807628.02     -304.32707      0.36300548     0.057329073    28.821924      29.046399    
     99150   198.3          306.98849      134038.28     -807625.85     -303.57587      0.36301846     0.057185518    28.847375      28.708726    
     99160   198.32         316.33597      134924.49     -807627.82     -302.88313      0.3630313      0.057053007    28.874717      28.371049    
     99170   198.34         320.01053      132206.09     -807632.43     -298.9044       0.36304399     0.056301578    28.881671      28.033369    
     99180   198.36         325.60132      134726.89     -807628.6      -303.45995      0.36305655     0.057157685    28.894978      27.695687    
     99190   198.38         318.47844      134385.9      -807627        -304.14452      0.36306895     0.057284668    28.904736      27.358002    
     99200   198.4          323.73932      137185.04     -807627.43     -304.31906      0.36308122     0.057315605    28.907327      27.020314    
     99210   198.42         326.74178      134384.43     -807630.07     -302.05018      0.36309334     0.056886385    28.870857      26.682629    
     99220   198.44         321.31907      136951.91     -807626.49     -304.69959      0.36310532     0.057383467    28.854153      26.344944    
     99230   198.46         318.9803       134166.26     -807626.67     -304.1645       0.36311715     0.057280827    28.849659      26.007257    
     99240   198.48         329.15811      134876.89     -807630.05     -301.95565      0.36312885     0.05686302     28.91209       25.669562    
     99250   198.5          316.03648      132826.86     -807630.11     -299.90161      0.3631404      0.056474417    28.941269      25.331864    
     99260   198.52         328.96137      133653.1      -807629.66     -302.001        0.3631518      0.056867966    28.937625      24.994164    
     99270   198.54         332.40695      134058.79     -807628.3      -303.64236      0.36316306     0.057175267    28.955948      24.656461    
     99280   198.56         328.99311      134666.54     -807628.39     -302.90455      0.36317418     0.057034593    28.958419      24.318756    
     99290   198.58         316.67563      136588.27     -807625.85     -303.46729      0.36318516     0.057138826    28.953032      23.98105     
     99300   198.6          325.02374      135848.32     -807625.22     -305.11667      0.36319599     0.057447669    28.929486      23.643344    
     99310   198.62         317.86509      137598.94     -807622.84     -306.26037      0.36320668     0.057661308    28.840803      23.305645    
     99320   198.64         324.51941      133910.48     -807627.49     -302.27304      0.36321723     0.05690894     28.84444       22.967943    
     99330   198.66         325.17728      135391.27     -807627.93     -301.62307      0.36322763     0.056784944    28.877506      22.630236    
     99340   198.68         340.05431      132228.31     -807631.06     -300.46005      0.36323789     0.056564389    28.925051      22.292524    
     99350   198.7          335.09276      135491.24     -807626.08     -304.40369      0.36324801     0.05730522     28.942995      21.95481     
     99360   198.72         340.45618      132200.15     -807630.59     -300.60966      0.36325798     0.056589426    28.9399        21.617093    
     99370   198.74         335.18811      136728.27     -807626.95     -303.2169       0.36326781     0.057078691    28.956832      21.279374    
     99380   198.76         337.07424      134306.86     -807626.28     -304.21243      0.3632775      0.057264567    28.906353      20.941657    
     99390   198.78         330.09505      138256.04     -807621.86     -307.38777      0.36328704     0.057860768    28.877174      20.603941    
     99400   198.8          335.90357      134764.42     -807627.14     -302.91084      0.36329644     0.057016584    28.860184      20.266224    
     99410   198.82         332.79525      136064.04     -807627.11     -302.3902       0.3633057      0.056917133    28.86467       19.928505    
     99420   198.84         332.66081      132662.09     -807628.33     -301.15594      0.36331481     0.056683395    28.886741      19.590783    
     99430   198.86         334.58663      134771.28     -807626.87     -302.77046      0.36332378     0.05698587     28.934403      19.253056    
     99440   198.88         330.79505      132548.17     -807628.78     -300.37138      0.36333261     0.056532956    28.951364      18.915326    
     99450   198.9          342.42244      135393.23     -807628.16     -302.49993      0.36334129     0.056932209    28.974698      18.577593    
     99460   198.92         329.76996      135994.85     -807624.72     -304.26588      0.36334983     0.057263225    28.933742      18.239861    
     99470   198.94         342.78738      137585.83     -807624.01     -306.77421      0.36335823     0.057733961    28.912266      17.902129    
     99480   198.96         331.35666      136151.3      -807624.83     -304.35605      0.36336648     0.057277571    28.874665      17.564398    
     99490   198.98         335.51406      136206.19     -807626.21     -303.57326      0.3633746      0.057128979    28.872644      17.226665    
     99500   199            346.01538      134122.51     -807627.44     -303.91549      0.36338256     0.05719213     28.876581      16.88893     
     99510   199.02         326.1187       134098.11     -807625.67     -9697.1923      0.36339039     0.057025633    28.860022      16.551194    
     99520   199.04         335.0093       133876.12     -807628.92     -9634.2876      0.36339807     0.056654516    28.842343      16.213458    
     99530   199.06         333.31544      133288.85     -807629.04     -9628.8018      0.3634056      0.056621082    28.832789      15.87572     
     99540   199.08         333.65761      136555.33     -807625.76     -9737.4458      0.363413       0.057258786    28.820381      15.537981    
     99550   199.1          330.0689       135206.28     -807625.78     -9729.6171      0.36342025     0.05721161     28.794832      15.200242    
     99560   199.12         333.77168      137558.58     -807625.55     -9755.6908      0.36342736     0.057363805    28.830966      14.862499    
     99570   199.14         337.92565      133629.92     -807628.28     -9697.7511      0.36343432     0.057022025    28.849276      14.524753    
     99580   199.16         320.46483      138242.95     -807622.84     -9797.8098      0.36344114     0.057609281    28.876307      14.187004    
     99590   199.18         336.30049      131900.75     -807629.57     -9666.5771      0.36344782     0.056836613    28.869186      13.849254    
     99600   199.2          333.20862      135835.15     -807628.46     -9689.9512      0.36345435     0.056973022    28.895018      13.5115      
     99610   199.22         330.7072       130186.08     -807631.56     -9596.8462      0.36346074     0.05642461     28.91995       13.173744    
     99620   199.24         330.0968       135881.28     -807627.21     -9739.4288      0.36346699     0.057261939    28.872414      12.835989    
     99630   199.26         320.57874      132252.5      -807628.96     -9658.4455      0.3634731      0.056784853    28.82715       12.498233    
     99640   199.28         331.23892      137763.13     -807626.82     -9780.3962      0.36347906     0.057500894    28.83141       12.160476    
     99650   199.3          315.4331       133701.71     -807627.58     -9703.5986      0.36348487     0.057048472    28.849413      11.822716    
     99660   199.32         322.9702       138671.44     -807624.59     -9837.1556      0.36349055     0.057832765    28.855372      11.484954    
     99670   199.34         317.2541       133098.73     -807628.23     -9707.6434      0.36349608     0.057070493    28.797175      11.147192    
     99680   199.36         322.78119      135996.08     -807628.46     -9725.7165      0.36350147     0.057175896    28.822443      10.809428    
     99690   199.38         317.58116      132425.22     -807631.25     -9623.3106      0.36350671     0.056573052    28.831207      10.471662    
     99700   199.4          319.30749      134128.74     -807628.89     -9706.9643      0.36351181     0.057064031    28.836102      10.133893    
     99710   199.42         317.98351      132903.98     -807630.42     -9655.2701      0.36351677     0.056759364    28.818969      9.7961235    
     99720   199.44         310.43858      135438.22     -807628.31     -9687.1008      0.36352158     0.056945729    28.832113      9.4583515    
     99730   199.46         323.73591      134809.49     -807629.07     -9724.8593      0.36352625     0.057166959    28.850825      9.1205771    
     99740   199.48         325.66361      135985.43     -807626.72     -9806.7968      0.36353078     0.057647905    28.866506      8.7828004    
     99750   199.5          320.98073      135864.73     -807626.99     -9774.1396      0.36353516     0.057455242    28.863969      8.4450221    
     99760   199.52         320.98536      134468.85     -807628.93     -9709.441       0.3635394      0.057074258    28.863265      8.1072421    
     99770   199.54         327.1177       134967.57     -807629.27     -9723.1378      0.3635435      0.057154127    28.887752      7.7694596    
     99780   199.56         324.5799       133831.94     -807629.86     -9690.7031      0.36354745     0.056962852    28.840429      7.4316767    
     99790   199.58         321.75917      134057.36     -807629.34     -9689.6793      0.36355126     0.056956236    28.827672      7.0938923    
     99800   199.6          329.22893      131816.55     -807632.44     -9620.8965      0.36355493     0.056551358    28.815871      6.7561064    
     99810   199.62         312.43771      136426.08     -807626.38     -9735.8694      0.36355845     0.057226611    28.82072       6.4183186    
     99820   199.64         332.15774      133655.77     -807629.06     -9736.4646      0.36356183     0.057229578    28.850453      6.0805282    
     99830   199.66         316.00319      137017.57     -807625.09     -9781.2577      0.36356507     0.057492353    28.855128      5.742736     
     99840   199.68         325.55009      132821.7      -807629.12     -9693.4094      0.36356816     0.056975514    28.838204      5.4049423    
     99850   199.7          318.61349      136759.97     -807625.95     -9757.6075      0.36357111     0.057352389    28.892625      5.0671459    
     99860   199.72         323.3816       132193.33     -807629.49     -9663.6829      0.36357392     0.056799889    28.903771      4.7293476    
     99870   199.74         319.04094      135694.92     -807627.11     -9708.2202      0.36357658     0.057061246    28.910045      4.3915476    
     99880   199.76         322.79735      131400.42     -807631        -9599.8572      0.3635791      0.056423939    28.894701      4.0537462    
     99890   199.78         329.19503      136436.28     -807627.49     -9731.2962      0.36358148     0.057196108    28.92319       3.7159428    
     99900   199.8          326.24906      133297.24     -807627.51     -9716.3022      0.36358371     0.057107629    28.926959      3.3781377    
     99910   199.82         336.96335      137810.73     -807625.81     -9807.6828      0.3635858      0.057644389    28.876741      3.0403315    
     99920   199.84         317.99523      134729.57     -807626.16     -9712.5214      0.36358775     0.057084774    28.821631      2.7025243    
     99930   199.86         334.75383      136960        -807625.33     -9804.9834      0.36358955     0.057627929    28.821306      2.3647151    
     99940   199.88         322.30745      133380.34     -807626.26     -9717.5897      0.36359121     0.057114019    28.853779      2.0269039    
     99950   199.9          338.58336      134943.28     -807628.95     -9696.3032      0.36359273     0.056988672    28.819763      1.6890912    
     99960   199.92         327.90198      133002.31     -807629.73     -9620.4144      0.3635941      0.056542433    28.729946      1.3512771    
     99970   199.94         332.23948      135575.31     -807628.13     -9685.5464      0.36359533     0.056925043    28.771425      1.0134607    
     99980   199.96         326.36351      133539.08     -807626.51     -9709.879       0.36359641     0.057067883    28.820245      0.67564231   
     99990   199.98         337.60404      136300.52     -807627.69     -9717.448       0.36359736     0.057112221    28.791668      0.33782211   
    100000   200            327.7508       134860.89     -807626.3      -9716.4174      0.36359816     0.057106038    28.763334      0            
Loop time of 3378.23 on 32 procs for 100000 steps with 1080 atoms

Performance: 5.115 ns/day, 4.692 hours/ns, 29.601 timesteps/s, 31.969 katom-step/s
65.2% CPU use with 32 MPI tasks x 1 OpenMP threads

MPI task timing breakdown:
Section |  min time  |  avg time  |  max time  |%varavg| %total
---------------------------------------------------------------
Pair    | 2561.6     | 2800.6     | 3023.4     | 238.2 | 82.90
Neigh   | 0.0016568  | 0.0017708  | 0.0019602  |   0.2 |  0.00
Comm    | 282.99     | 505.77     | 744.87     | 560.5 | 14.97
Output  | 2.3207     | 2.3309     | 2.3396     |   0.3 |  0.07
Modify  | 62.618     | 63.501     | 63.916     |   3.3 |  1.88
Other   |            | 6.061      |            |       |  0.18

Nlocal:          33.75 ave          42 max          21 min
Histogram: 1 0 3 2 2 6 8 2 2 6
Nghost:        1031.94 ave        1044 max        1022 min
Histogram: 2 2 4 4 8 5 2 1 2 2
Neighs:              0 ave           0 max           0 min
Histogram: 32 0 0 0 0 0 0 0 0 0
FullNghs:      5336.69 ave        6603 max        3309 min
Histogram: 1 0 3 2 2 6 8 2 2 6

Total # of neighbors = 170774
Ave neighs/atom = 158.12407
Neighbor list builds = 4
Dangerous builds = 0

Total wall time: 0:59:50
