
units		metal
atom_style	atomic

read_data ${STRUCTURE}.data
read_data BaTiO3-sc333.data
Reading data file ...
  orthogonal box = (0 0 0) to (11.898253 11.898253 12.912076)
  2 by 4 by 4 MPI processor grid
  reading atoms ...
  135 atoms
  read_data CPU = 0.005 seconds
replicate $L $L $L
replicate 2 $L $L
replicate 2 2 $L
replicate 2 2 2
Replication is creating a 2x2x2 = 8 times larger system...
  orthogonal box = (0 0 0) to (23.796507 23.796507 25.824152)
  2 by 4 by 4 MPI processor grid
  1080 atoms
  replicate CPU = 0.003 seconds

pair_style allegro
pair_coeff	* * ${MODEL}.pth Ba Ti O
pair_coeff	* * BaTiO3-E0.pth Ba Ti O
mass 1 137.3
mass 2 47.9
mass 3 15.9994

timestep 0.002
compute polarization all allegro polarization 3
compute allegro will evaluate the quantity polarization of length 3 (src/compute_allegro.cpp:53)
compute polarizability all allegro polarizability 9
compute allegro will evaluate the quantity polarizability of length 9 (src/compute_allegro.cpp:53)

thermo_style custom pe fmax fnorm spcpu cpuremain

variable efield equal 1e-2*36.36
fix born all addbornforce 0.0 0.0 ${efield}
fix born all addbornforce 0.0 0.0 0.3636

thermo 10
min_style fire
#minimize 0.0 1e-6 100 100
velocity all create ${TEMP} ${SEED} dist gaussian rot yes mom yes
velocity all create 290 ${SEED} dist gaussian rot yes mom yes
velocity all create 290 30085 dist gaussian rot yes mom yes
fix nvt all nvt temp ${TEMP} ${TEMP} $(100*dt)
fix nvt all nvt temp 290 ${TEMP} $(100*dt)
fix nvt all nvt temp 290 290 $(100*dt)
fix nvt all nvt temp 290 290 0.2000000000000000111
run 5000
Neighbor list info ...
  update: every = 1 steps, delay = 0 steps, check = yes
  max neighbors/atom: 2000, page size: 100000
  master list distance cutoff = 8
  ghost atom cutoff = 8
  binsize = 8, bins = 3 3 4
  1 neighbor lists, perpetual/occasional/extra = 1 0 0
  (1) pair allegro/kk, perpetual
      attributes: full, newton on, kokkos_device
      pair build: full/bin/kk/device
      stencil: full/bin/3d
      bin: kk/device
Per MPI rank memory allocation (min/avg/max) = 3.516 | 3.516 | 3.516 Mbytes
    PotEng          Fmax          Fnorm          S/CPU         CPULeft    
-807708.29      1.5961857      37.04303       0              0            
-807647.52      3.0742737      45.259741      2.4667481      2022.9071    
-807638.15      2.4987503      35.06924       25.930212      1105.4535    
-807608.56      2.969841       37.243868      25.928357      799.38321    
-807604.81      3.9843425      50.04043       25.877195      646.24974    
-807568.55      4.0044982      40.839169      25.858739      554.24238    
-807605.17      2.8014703      38.403203      25.939349      492.6763     
-807646.63      3.7257138      33.846861      25.951318      448.57784    
-807686.56      2.843138       33.79182       25.929798      415.42737    
-807668.65      3.3378659      34.341018      25.908023      389.5756     
-807655.97      4.5532429      33.980498      25.945445      368.78973    
-807660.94      2.6477176      26.66726       25.924254      351.72704    
-807631.06      2.9763906      29.44936       25.908666      337.45328    
-807587.05      3.4562104      39.439048      25.874885      325.33496    
-807571.29      3.0972397      37.283517      25.932518      314.86284    
-807634.65      3.2858349      32.801279      25.919739      305.74171    
-807655.68      3.3177291      30.264927      25.920147      297.71232    
-807667.62      2.8537916      33.516269      25.927808      290.57893    
-807648.92      4.2309775      44.285608      25.950726      284.18617    
-807681.28      3.132717       36.278983      25.922391      278.43643    
-807642.73      4.320455       39.329826      25.877115      273.23928    
-807619.16      3.6054764      38.691272      25.911094      268.48874    
-807564.54      3.9490104      45.416844      25.945845      264.12375    
-807608.11      4.507658       49.004115      25.895396      260.12039    
-807615.17      3.9429392      39.1175        25.873809      256.42484    
-807644.44      3.2309236      35.259137      25.912937      252.98294    
-807645.43      5.4728505      45.078891      25.929329      249.77166    
-807684.71      3.0268007      37.338335      25.873459      246.78427    
-807663.29      3.5474465      35.171479      25.847377      243.98923    
-807641.48      2.6024118      31.258328      25.929958      241.34027    
-807608.76      3.115119       33.247079      25.918491      238.84487    
-807607.85      3.5438848      41.381749      25.901888      236.48931    
-807599.94      3.6040283      35.248562      25.827818      234.27303    
-807613.9       3.0135447      31.703974      25.915001      232.14918    
-807646.25      2.5038363      28.988923      25.91942       230.12666    
-807676.81      3.6962249      30.766725      25.919875      228.19757    
-807679.17      3.1738238      31.44011       25.866111      226.36456    
-807646.71      4.1370159      37.256045      25.924747      224.59879    
-807650.32      2.9685087      29.97752       25.923479      222.90588    
-807622.34      3.6245345      33.460169      25.922184      221.28023    
-807602.22      3.8096428      43.414116      25.864728      219.72644    
-807574.29      3.7545301      40.348694      25.925531      218.21942    
-807630.68      3.0690868      33.996728      25.940984      216.7633     
-807652.3       4.0012803      34.524988      25.936919      215.35762    
-807677.13      3.1484165      34.294689      25.930625      213.99927    
-807643.26      5.3072009      46.83113       25.960884      212.67961    
-807671.31      3.1168427      34.12444       25.938019      211.40393    
-807644.25      3.9862509      36.458906      25.947227      210.16481    
-807624.29      3.2527599      37.919488      25.980815      208.95658    
-807566.56      4.9094783      43.377785      25.983083      207.78163    
-807607.11      3.795128       42.54585       25.907166      206.64844    
-807627.51      3.6697554      34.761109      25.926723      205.54199    
-807658.49      2.9518757      31.85867       25.944538      204.46098    
-807648.16      4.1499874      40.048708      25.950223      203.40551    
-807676.92      2.5074044      32.590228      25.953209      202.37448    
-807669.52      3.2582659      30.398341      25.880913      201.37565    
-807643.25      2.5704225      28.496913      25.911887      200.39503    
-807603.66      3.3252531      32.896831      25.945746      199.43136    
-807599.63      2.9345021      36.264459      25.974405      198.48439    
-807611.75      3.852673       36.581972      25.913336      197.56325    
-807622.94      3.3197689      31.13845       25.955199      196.65539    
-807645.61      3.0305069      30.649349      25.969935      195.76308    
-807666.3       3.5682477      33.051775      25.966887      194.88746    
-807678.92      2.6420683      34.502203      25.88177       194.0362     
-807645.7       4.5704785      39.099913      25.892258      193.1984     
-807636.28      2.9150444      33.57482       25.964199      192.36733    
-807612.27      3.9234993      35.945001      25.968752      191.54933    
-807607.5       4.0691208      44.618575      25.943673      190.74666    
-807584.04      5.0310787      40.161987      25.92018       189.95848    
-807624.55      3.1375092      35.270824      25.989261      189.17556    
-807649.67      4.0320667      36.932539      25.961214      188.40657    
-807676.23      3.7691635      35.935209      25.919354      187.65215    
-807650         4.7696899      41.805556      25.915522      186.9083     
-807656.57      3.9576913      34.479784      25.931874      186.17284    
-807641.47      3.4760926      33.498644      25.956959      185.44469    
-807624.08      3.4586546      37.608806      25.943151      184.72685    
-807578.84      3.6191806      38.213641      25.949484      184.01722    
-807599.3       3.333835       38.348646      25.999653      183.31194    
-807633.92      3.3500447      31.277875      25.990681      182.6156     
-807662.65      2.9634178      30.688024      25.968879      181.92886    
-807654.11      4.2853275      35.551871      25.942465      181.25172    
-807662.07      3.2274556      33.99252       25.928704      180.58285    
-807667.04      2.5854447      31.217767      25.961539      179.91839    
-807641.52      3.1419172      30.906941      25.957849      179.26094    
-807603.41      3.0885488      35.195362      25.992526      178.60743    
-807588.22      3.3940942      37.616268      26.050296      177.95607    
-807615.22      4.0018676      39.03844       25.973425      177.31641    
-807631.79      3.6232236      32.328001      25.993668      176.68117    
-807646.24      3.6136698      32.932275      25.991833      176.05176    
-807656.26      3.5667888      36.622561      25.989309      175.42802    
-807674.86      3.0253286      35.393839      25.908619      174.81504    
-807650.64      3.7093453      35.998203      25.890193      174.2083     
-807630.29      3.1594821      32.733813      25.944665      173.60274    
-807604.1       3.3277078      36.234789      26.014978      172.99737    
-807609.45      4.1761544      43.167331      25.95639       172.40044    
-807599.14      3.3973577      37.081636      25.969115      171.80716    
-807626.07      2.5878696      33.08494       26.025229      171.21473    
-807645.49      4.7050309      35.571332      25.990035      170.62875    
-807674.57      2.6878519      34.38766       25.9359        170.05017    
-807656.43      3.5854555      36.130391      25.907203      169.47722    
-807648.6       3.0117654      31.957558      25.965851      168.90452    
-807635.63      3.7257278      31.485476      26.010663      168.33292    
-807623.2       3.3420687      36.112401      25.987285      167.76633    
-807592.33      3.4656333      36.979325      25.994872      167.20284    
-807600         2.9509551      36.003153      26.011391      166.64186    
-807635.01      4.0149649      30.862824      25.995268      166.08514    
-807662.86      3.014632       30.840903      25.975211      165.53277    
-807662.44      3.2360746      32.873953      25.948647      164.98498    
-807653.45      4.2724619      35.082336      26.017138      164.43651    
-807660.77      2.884693       30.445735      25.991724      163.8924     
-807639.72      3.8965014      31.095207      25.946         163.35359    
-807610.34      2.9052976      35.044208      25.987412      162.8154     
-807583.4       3.682906       38.334696      26.021625      162.27819    
-807617.24      3.7080452      36.167265      25.983441      161.74562    
-807639.04      3.6814539      32.565898      25.970476      161.21629    
-807654.36      2.8329081      32.692369      25.920668      160.69195    
-807650.01      4.1121825      38.054568      25.922541      160.1699     
-807669.79      3.1070831      34.4666        25.911577      159.65072    
-807650.81      3.7757818      34.040395      25.891556      159.13476    
-807630.57      3.6879618      33.05969       25.968616      158.61732    
-807595.19      4.6913257      37.273093      25.963982      158.1023     
-807605.69      3.9916637      40.393567      25.87458       157.59359    
-807613.37      4.2211633      34.986637      25.882939      157.0865     
-807635.16      3.5648717      31.704542      25.951708      156.57824    
-807644.28      3.5504818      35.39286       26.019539      156.06891    
-807669.58      2.7274032      33.463896      25.819933      155.57049    
-807662.04      3.1708447      33.467611      25.863321      155.07191    
-807644.38      4.0648149      32.317785      25.976233      154.57016    
-807625.76      3.0485273      31.806849      26.060603      154.06661    
-807615.47      3.8892847      36.091388      26.060257      153.56493    
-807602.56      3.4732795      36.616444      25.990417      153.06801    
-807606.02      3.509899       35.151561      26.012623      152.57186    
-807633.69      3.2524736      31.212362      26.035412      152.07648    
-807660.08      3.0142787      31.989813      26.046694      151.58231    
-807665.4       2.8708801      33.185019      25.883079      151.09641    
-807650.46      4.9146919      35.022531      25.826881      150.61426    
-807649.02      3.523695       31.711358      25.940462      150.12897    
-807635.42      3.9657089      31.440088      25.929488      149.64557    
-807612.21      3.3902327      35.850511      25.947847      149.16286    
-807586.1       3.9216246      38.385639      25.972765      148.6806     
-807615.58      3.500668       34.800809      25.96602       148.19999    
-807643.08      3.8340175      32.876986      26.294161      147.70849    
-807658.35      2.7748247      32.83925       26.299305      147.21837    
-807649.95      3.7442877      36.776447      26.29672       146.72988    
-807660.85      2.4903158      33.366746      26.318593      146.24212    
-807652.43      3.1144295      31.637904      26.229409      145.759      
-807631.22      3.1187566      31.92484       26.303667      145.27467    
-807595.44      3.4538801      35.545585      26.31305       144.79143    
-807602.54      3.1221738      37.061457      26.256724      144.31152    
-807620.35      3.2241945      33.531337      26.27757       143.83223    
-807641.35      2.5596847      32.08133       26.29069       143.35382    
-807644.67      4.0945145      35.752081      26.307751      142.87613    
-807663.67      3.1918089      33.694254      26.238729      142.40202    
-807659.62      2.9730352      34.239835      26.21707       141.92984    
-807646.22      3.1759369      32.46866       26.278188      141.45684    
-807616.85      2.8624145      33.863269      26.318148      140.98375    
-807607.93      3.1104104      35.491508      26.266989      140.51348    
-807605.92      3.4406992      37.100318      26.23506       140.04537    
-807616.93      3.4999726      33.136179      26.281892      139.57689    
-807632.87      3.8220074      32.325597      26.319594      139.10834    
-807656.73      3.6233213      32.582456      26.330881      138.64056    
-807665.62      3.2025092      33.947389      26.285839      138.17524    
-807652.64      3.9747643      34.268928      26.254851      137.71191    
-807638.56      3.420503       33.222799      26.247233      137.24981    
-807627.46      3.5831311      33.451982      26.305402      136.78698    
-807611.85      3.5042795      37.127203      26.254105      136.32666    
-807595.15      3.932952       37.428359      26.274682      135.8667     
-807614.08      3.1293486      34.316506      26.280686      135.40751    
-807642.64      3.0981383      32.020267      26.306485      134.94852    
-807663.1       2.4975198      31.995189      26.280276      134.49121    
-807653.36      3.9447168      34.731763      26.263905      134.03526    
-807651.21      3.0375127      32.940198      26.27097       133.58       
-807646.8       3.5723278      31.733414      26.256464      133.126      
-807630.42      3.0894684      32.426367      26.273351      132.67238    
-807598.01      3.0167244      35.420107      26.256464      132.22007    
-807597.95      4.4011996      37.321169      26.305494      131.76725    
-807625.57      3.3939007      32.522514      26.254457      131.31662    
-807648.21      3.087536       31.548308      26.293442      130.86574    
-807649.66      2.6971372      34.004238      26.315507      130.41508    
-807655.53      4.0812068      34.296742      26.299913      129.96562    
-807658.75      2.7164909      32.238491      26.241638      129.51842    
-807644.88      2.928979       31.485182      26.224585      129.0724     
-807616.21      3.2565679      33.257747      26.234844      128.62682    
-807599.81      2.6980454      35.656627      26.305791      128.18017    
-807611.68      3.2746162      35.688896      26.257061      127.73545    
-807626.4       2.9951935      32.383238      26.232209      127.29203    
-807637.84      2.8484829      32.1774        26.25916       126.84863    
-807652.66      2.7423007      32.584716      26.306334      126.40475    
-807663.36      3.111234       32.53196       26.269557      125.96243    
-807655.32      3.2513222      31.603047      26.246193      125.52132    
-807634.39      2.9294456      30.817151      26.283083      125.07997    
-807621.09      2.996512       31.340453      26.305179      124.63874    
-807612.22      3.2239435      34.779825      26.285549      124.19861    
-807610.8       3.3718011      33.064459      26.23392       123.76028    
-807620.05      2.9711437      31.960878      26.264945      123.32183    
-807642.94      2.9375191      31.057288      26.250153      122.88431    
-807660.22      2.4862808      32.139377      26.253147      122.4473     
-807657.08      2.6417272      33.453681      26.231421      122.01135    
-807646.01      3.552303       33.579942      26.271856      121.57505    
-807638.63      3.3954105      31.688489      26.266155      121.13944    
-807625.39      2.86102        33.288827      26.258852      120.70453    
-807607.15      2.8625866      34.525588      26.273235      120.26985    
-807604.58      3.2505774      34.695462      26.258366      119.83603    
-807628.75      2.6473545      31.20293       26.218265      119.40358    
-807650.23      2.9353204      31.266766      26.195797      118.9721     
-807654.04      2.9150963      32.749672      26.256777      118.53984    
-807651.23      3.5151546      33.382502      26.272415      118.10775    
-807651.53      3.1046864      32.180509      26.286051      117.67588    
-807641.13      3.367929       31.504056      26.25787       117.24507    
-807617.34      3.4456086      33.697019      26.260648      116.81469    
-807598.96      3.3115573      36.021099      26.287933      116.38423    
-807611.59      3.3221234      35.443307      26.293571      115.95414    
-807633.72      2.9300601      32.379274      26.264112      115.5251     
-807644.55      3.8324807      32.035419      26.273553      115.09632    
-807647.87      3.0666366      33.946299      26.297406      114.66753    
-807658.58      2.5362013      32.199229      26.28927       114.23936    
-807652.73      2.6123529      32.021049      26.242301      113.81251    
-807632.88      2.3844111      31.03459       26.250451      113.38594    
-807610.3       2.8101668      32.818883      26.27608       112.9593     
-807607.78      2.8332804      35.965883      26.236584      112.53383    
-807615.19      3.3925219      35.186805      26.22505       112.10896    
-807626.99      3.6468215      32.4495        26.261511      111.68382    
-807641.21      3.360323       33.221925      26.30517       111.25829    
-807656.18      2.8870129      34.391425      26.25202       110.83413    
-807656.95      3.4052955      34.337569      26.226213      110.41081    
-807643.3       3.0493162      33.756991      26.259276      109.98728    
-807627.52      3.3914488      32.827022      26.295416      109.56349    
-807618.11      3.4051878      34.086172      26.277864      109.14039    
-807609.03      3.1491682      36.312172      26.280435      108.71762    
-807609.28      3.1747456      34.245867      26.286601      108.29511    
-807628.07      3.1950018      32.3824        26.328339      107.87226    
-807649.32      2.7225461      31.808377      26.31348       107.45003    
-807655.65      2.9425398      33.090814      26.267287      107.02894    
-807647.95      3.0239606      34.154963      26.256883      106.60837    
-807644.14      3.9121405      32.295825      26.25266       106.18821    
-807633.32      2.8806113      32.132356      26.243051      105.76854    
-807617.79      3.3201892      34.399621      26.21502       105.34965    
-807601.96      3.0454531      35.226568      26.246529      104.93057    
-807614.35      3.1692392      33.524959      26.284193      104.5112     
-807636.56      2.3617029      31.210908      26.268092      104.09242    
-807650.83      2.4958938      31.88336       26.280526      103.67376    
-807646.73      3.2938229      33.887668      26.276764      103.25548    
-807652.44      3.1755733      32.698335      26.278168      102.83749    
-807646.39      3.1971308      32.766275      26.230475      102.42053    
-807633.67      2.7731908      31.474256      26.24843       102.0036     
-807608.29      3.8666761      34.636184      26.280058      101.58648    
-807608.24      3.3054748      35.134968      26.295141      101.16943    
-807620.68      3.1932772      33.479379      26.256237      100.75326    
-807638.27      2.7590744      31.382606      26.256483      100.33737    
-807644.24      3.3100528      32.193898      26.302309      99.921093    
-807652.03      3.5097389      33.238788      26.278616      99.505447    
-807656.6       2.7754401      31.875686      26.267417      99.090241    
-807645.02      2.6405897      30.694549      26.265398      98.675338    
-807623.9       2.6829468      31.711268      26.272483      98.260605    
-807611.69      2.4729984      33.478368      26.283604      97.845984    
-807613.47      3.0404939      34.747534      26.294696      97.431477    
-807618.94      3.0730349      33.267081      26.246207      97.017907    
-807631.62      3.4802677      32.659336      26.299352      96.603862    
-807648.99      3.5958843      32.415074      26.304126      96.190015    
-807657.53      3.061993       32.604324      26.241955      95.777266    
-807650.15      2.4658438      32.483755      26.197105      95.365363    
-807637.22      3.1146706      32.627921      26.208499      94.953539    
-807627.51      2.9479568      31.560551      26.22824       94.541685    
-807617.27      3.1773289      34.380737      26.247804      94.129808    
-807610.13      3.0707741      34.098686      26.264247      93.717951    
-807617.26      3.3066463      33.517973      26.295396      93.30593     
-807638.25      2.7561954      31.528616      26.288546      92.894234    
-807653.67      2.3932565      31.861514      26.219691      92.483644    
-807651.85      3.1057178      33.058136      26.200193      92.073518    
-807646.74      4.4423992      32.365035      26.220738      91.663347    
-807641.98      2.6652199      31.386008      26.260759      91.252894    
-807628.58      3.2247608      32.153692      26.279817      90.842426    
-807610.01      3.0384631      34.484528      26.266776      90.432337    
-807605.84      3.1275752      35.268355      26.320837      90.021813    
-807626.63      2.8461897      31.572826      26.283643      89.611955    
-807641.44      3.7998226      32.155965      26.264902      89.202534    
-807648.03      3.1155804      32.15862       26.260369      88.793374    
-807650.08      4.2527635      32.676821      26.251346      88.384524    
-807652.09      2.9491046      31.729019      26.222087      87.976214    
-807641.54      2.7295189      31.391472      26.238603      87.567907    
-807619.59      3.1640726      33.308238      26.286388      87.15925     
-807605.38      3.0865504      35.085312      26.274112      86.750933    
-807614.12      3.2213717      34.738494      26.2559        86.343016    
-807628.59      2.7392064      32.450381      26.233997      85.935534    
-807637.99      3.1598299      32.096173      26.25307       85.528027    
-807647.74      3.0013502      33.179753      26.232286      85.120934    
-807654.46      3.2337336      33.488336      26.202739      84.714344    
-807650.54      2.8463302      32.68753       26.202101      84.307934    
-807632.7       3.100991       33.002033      26.235733      83.901337    
-807616.65      3.1588247      34.318925      26.272449      83.494526    
-807612.05      2.9768436      35.725346      26.287421      83.087739    
-807615.28      3.0235667      34.154841      26.277956      82.681232    
-807623.4       2.7599614      32.920426      26.296492      82.274712    
-807638.98      3.3075693      32.621604      26.309342      81.868239    
-807653.42      2.8122201      32.633398      26.26656       81.462379    
-807652.48      3.3499516      33.305215      26.254134      81.056816    
-807643.17      2.7654897      32.519631      26.271385      80.651247    
-807630.71      3.3481921      32.962987      26.250197      80.246055    
-807623.23      2.9164901      33.323425      26.234186      79.841184    
-807610.82      2.9976222      35.251032      26.246213      79.436354    
-807610.14      2.9327034      34.484283      26.269963      79.031453    
-807626.11      2.8734144      33.047853      26.275637      78.626658    
-807646.14      2.7822891      31.729068      26.252026      78.222249    
-807651.23      3.1825336      32.521956      26.229361      77.818209    
-807648.45      3.0607169      33.112871      26.274166      77.413899    
-807644.97      3.1054008      31.775042      26.230735      77.010148    
-807637         2.6930146      31.147633      26.243134      76.606429    
-807619.24      3.0599575      33.223859      26.235469      76.202928    
-807606.42      3.076854       34.972144      26.244043      75.799495    
-807614.78      3.0981388      33.895436      26.274296      75.395936    
-807634.29      2.5280673      31.692676      26.252863      74.992714    
-807641.88      3.1618658      32.981617      26.223687      74.589895    
-807646.82      3.1150173      33.763129      26.279027      74.186729    
-807652.07      2.8692467      33.157755      26.256898      73.783899    
-807647.57      2.9800747      31.871975      26.26896       73.381105    
-807632.89      2.737682       32.199542      26.267177      72.978467    
-807612.62      3.4023667      34.884977      26.228385      72.576296    
-807614.19      3.2205772      34.450152      26.289425      72.173746    
-807619.95      2.7675945      34.252755      26.282167      71.771395    
-807633.58      2.8267539      32.302087      26.289541      71.369121    
-807640.31      3.2037615      32.816067      26.276596      70.967089    
-807652.72      2.5345254      32.04357       26.283354      70.565136    
-807651.94      3.7897295      32.726417      26.277522      70.163363    
-807643.07      2.4245533      31.594265      26.264768      69.761823    
-807626.03      2.9640968      32.44096       26.243427      69.36058     
-807619.47      2.7211153      32.357881      26.254442      68.959374    
-807615.45      3.0572859      33.929783      26.268334      68.558186    
-807620.72      3.1691959      32.750853      26.302812      68.156859    
-807630.54      3.5081828      32.456579      26.307626      67.755625    
-807646.93      2.8353386      31.611702      26.304064      67.354546    
-807653.37      3.0162128      32.446387      26.276958      66.953795    
-807647.89      3.2799892      33.032788      26.267938      66.553233    
-807637.87      3.8292554      33.324406      26.271322      66.152767    
-807628.98      4.4624303      33.262981      26.275584      65.752388    
-807619.65      3.3361689      34.145777      26.222679      65.352509    
-807610.89      3.2395459      34.75146       26.222299      64.952744    
-807620.18      3.0631714      33.48155       26.251102      64.552884    
-807635.94      2.8536557      32.191094      26.265924      64.153033    
-807649.62      2.3754175      32.129348      26.275213      63.75323     
-807647.51      2.6345179      33.563569      26.275381      63.353539    
-807646.45      3.5601009      32.956553      26.288527      62.953871    
-807641.3       2.7886747      32.15398       26.272325      62.554426    
-807627.58      2.5428232      32.971739      26.240705      62.155302    
-807610.48      2.987021       34.675852      26.270556      61.756086    
-807611.01      3.5495469      34.909913      26.279505      61.356918    
-807623.2       3.3846668      33.492671      26.277151      60.957874    
-807638.45      2.7855535      32.274147      26.283451      60.558897    
-807642.99      3.6152302      33.793308      26.247055      60.160258    
-807648.75      2.9147589      33.733844      26.26234       59.761624    
-807648.86      2.7303735      32.869175      26.235734      59.36326     
-807639.84      2.4668791      32.381277      26.220859      58.965086    
-807622.72      3.3438713      33.350826      26.218444      58.567024    
-807610.16      3.0149318      35.321261      26.232974      58.168966    
-807615.76      3.0667995      35.000722      26.244476      57.770935    
-807624.14      2.9733721      34.465682      26.304102      57.372644    
-807635.02      3.3420388      33.423819      26.291042      56.974532    
-807644.19      2.7293338      33.429783      26.294683      56.576498    
-807652.68      3.1467204      33.400137      26.262272      56.178752    
-807645.61      3.1111716      33.425551      26.253061      55.781153    
-807634.59      3.1327533      32.80904       26.272296      55.383538    
-807621.43      3.019369       33.570933      26.285974      54.985941    
-807617.03      2.7002056      35.239056      26.272243      54.588515    
-807613.81      3.0808632      35.16617       26.280416      54.191136    
-807624.1       2.825337       33.834214      26.274793      53.793881    
-807637.32      2.9675952      33.220238      26.312794      53.396513    
-807649.71      2.7700573      33.925425      26.266204      52.999489    
-807648.28      3.6997249      34.551587      26.206097      52.602873    
-807641.36      3.5629805      34.354083      26.244976      52.206135    
-807633.84      3.2638476      32.938951      26.248551      51.809463    
-807625.62      2.7654888      34.466693      26.250794      51.412865    
-807614.28      3.2745598      34.341306      26.273887      51.016234    
-807616.46      3.5340313      33.915739      26.294939      50.619583    
-807629.08      3.0967762      32.373359      26.283779      50.223076    
-807642.96      3.3045397      32.723137      26.26233       49.82676     
-807647.32      3.3052776      33.51108       26.252825      49.430574    
-807647.44      3.0153075      33.130672      26.27731       49.034352    
-807643.32      3.132643       33.377979      26.281844      48.638191    
-807636.39      3.2028563      33.538608      26.26089       48.242212    
-807621.51      3.7595262      34.40173       26.267958      47.84628     
-807613.86      3.4109739      34.536543      26.262735      47.450453    
-807619.88      3.1962988      34.50229       26.281468      47.05462     
-807632.7       2.7325741      32.98657       26.277855      46.658883    
-807641.72      3.7346446      32.67462       26.265741      46.26328     
-807645.6       2.9397168      33.00533       26.256681      45.867796    
-807649.46      3.4685797      33.154679      26.246968      45.472429    
-807644.64      3.4254135      32.680008      26.19656       45.077357    
-807632.81      3.3339415      32.816599      26.214171      44.682277    
-807616.28      3.4800796      35.101761      26.263063      44.287061    
-807617.36      4.0304494      35.923877      26.257013      43.891945    
-807621.03      3.2254858      34.67115       26.238671      43.496978    
-807632.87      3.051414       33.676201      26.255208      43.102014    
-807639.12      3.7142661      34.160799      26.28154       42.707016    
-807650.31      3.8205408      33.455823      26.224523      42.312319    
-807649.04      3.0807599      34.031277      26.223812      41.917694    
-807641.15      3.4890071      33.075016      26.23996       41.523073    
-807627.2       3.6923541      33.426026      26.258116      41.12845     
-807621.14      3.3058877      34.744543      26.281473      40.733809    
-807616.04      3.449088       35.628396      26.249624      40.339358    
-807620.02      3.4041778      34.786261      26.239368      39.945013    
-807630.79      3.561018       34.753284      26.25346       39.550683    
-807644.04      3.5657252      33.445512      26.261675      39.15639     
-807648.23      2.889813       34.024211      26.26247       38.762162    
-807643.87      2.9369817      33.958896      26.24974       38.368045    
-807637.34      3.1709807      33.681215      26.268931      37.973927    
-807627.99      2.6586368      33.868234      26.26221       37.579899    
-807620.3       2.9453673      35.251705      26.208087      37.18612     
-807611.6       3.7340517      35.142948      26.195026      36.792446    
-807622.57      3.0893941      34.68054       26.196488      36.398825    
-807634.39      3.8368834      33.394173      26.236253      36.005133    
-807643.02      3.4380392      34.520626      26.235262      35.611505    
-807644.64      3.1900444      34.619246      26.276606      35.217806    
-807642.66      3.1097964      34.493682      26.290202      34.824128    
-807637.1       3.1820836      33.771979      26.258622      34.430612    
-807628.15      3.4110359      34.240261      26.213749      34.037296    
-807614.85      3.5578352      35.419306      26.233792      33.643976    
-807615.83      3.9139739      35.800821      26.263274      33.250626    
-807624.15      3.2457184      34.548436      26.28677       32.857269    
-807637.95      3.602384       33.890737      26.278318      32.463998    
-807640.62      4.0990419      34.164032      26.283253      32.070774    
-807647.36      3.0769401      33.455865      26.276095      31.677631    
-807643.8       4.3683988      34.020422      26.281188      31.284533    
-807637.05      3.4554265      33.455225      26.260297      30.891553    
-807622.95      4.2534762      34.037459      26.270782      30.498601    
-807617.21      3.8012591      34.770006      26.236498      30.105799    
-807617.61      3.46342        35.119255      26.2257        29.71308     
-807627.97      4.147977       34.255691      26.266791      29.320309    
-807635.12      3.8927877      33.528575      26.299396      28.927513    
-807645.27      3.8510245      33.077706      26.300884      28.534771    
-807648.93      3.5527014      33.065388      26.278241      28.142144    
-807644.9       3.4338169      32.637845      26.231816      27.749684    
-807633.15      3.2321031      33.361332      26.163793      27.357438    
-807624.99      2.8343231      32.504425      26.169053      26.965227    
-807619.76      3.1914522      34.161621      26.221046      26.572942    
-807617.91      2.72743        34.29371       26.232806      26.180682    
-807627.62      3.0483182      32.957425      26.289309      25.788348    
-807637.26      3.5800519      33.360428      26.29097       25.396065    
-807648.08      3.1238268      32.867398      26.269707      25.003882    
-807643.5       3.3530025      34.099179      26.306693      24.611675    
-807642.92      2.9363405      32.752023      26.294615      24.219548    
-807631.67      2.9096802      33.528145      26.281386      23.827501    
-807627.59      3.4736195      33.630996      26.271481      23.435526    
-807616.45      3.2062474      33.722293      26.281207      23.043584    
-807621.24      3.14105        33.752077      26.307712      22.651643    
-807628.7       3.4461723      33.274026      26.289391      22.25979     
-807642.51      2.4875959      32.211005      26.275044      21.868014    
-807643.13      3.4836398      33.250421      26.294055      21.476255    
-807646.32      3.6016866      32.256756      26.280117      21.084572    
-807638.67      2.6282932      33.239904      26.217253      20.693046    
-807635.64      2.6775951      32.564039      26.209944      20.301578    
-807621.88      4.254082       32.842889      26.211839      19.910152    
-807617.45      2.971947       33.92726       26.26166       19.518688    
-807622.37      3.7444206      33.840591      26.287388      19.127232    
-807632.9       2.7378685      33.790064      26.30866       18.735792    
-807638.26      4.0771084      33.347549      26.285935      18.344436    
-807642.87      3.1019937      33.838021      26.249619      17.953182    
-807644.66      3.3263958      33.732891      26.177359      17.562077    
-807640.04      2.9967062      33.892518      26.196641      17.170984    
-807629.27      3.8097732      33.455945      26.205693      16.77992     
-807619.48      2.5111478      33.630284      26.231653      16.388863    
-807620.41      2.9074396      34.704859      26.242234      15.997835    
-807623.86      3.1386269      33.942255      26.250091      15.606841    
-807630.29      2.6822265      33.336496      26.27393       15.21586     
-807639.19      3.9408346      32.997493      26.290893      14.824905    
-807645.16      3.2106733      33.42648       26.296352      14.433989    
-807643.04      4.4889923      33.679535      26.280077      14.043137    
-807637.09      2.8348464      33.251149      26.271836      13.652338    
-807626.35      2.9015242      33.369879      26.290273      13.261564    
-807622.74      3.2411443      33.897652      26.281524      12.870843    
-807615.77      2.904335       34.929837      26.286658      12.480161    
-807623.01      2.6783154      34.262615      26.293561      12.089516    
-807629.07      2.907076       33.979046      26.2751        11.698932    
-807642.54      2.7482803      33.154003      26.235141      11.308426    
-807641.32      3.2515359      34.33675       26.209328      10.917981    
-807642.1       3.7527003      33.484842      26.178047      10.527601    
-807633.36      3.1088315      34.068205      26.227447      10.137216    
-807628.93      3.0319946      33.925829      26.228653      9.7468692    
-807616.48      3.57953        35.211446      26.24434       9.3565487    
-807619.22      3.540902       34.927122      26.262926      8.9662542    
-807622.38      3.3975264      34.468116      26.256367      8.5760038    
-807634.7       2.8731099      33.271193      26.226251      8.1858119    
-807640.58      4.7420528      33.975659      26.242676      7.7956471    
-807642.08      2.6534793      33.604641      26.234915      7.4055246    
-807640.18      2.969688       33.278139      26.234665      7.0154394    
-807635.24      3.3034107      32.939319      26.237093      6.6253898    
-807627.87      3.0533776      33.012132      26.278929      6.235357     
-807618.67      3.9571004      34.490294      26.2735        5.8453658    
-807621.63      3.3320319      33.640801      26.25706       5.4554201    
-807628.1       2.7632176      33.288349      26.268708      5.0655072    
-807637.15      2.7751617      32.945596      26.246235      4.6756402    
-807638.29      2.9885289      33.581448      26.240266      4.2858113    
-807644.37      2.5283903      32.421025      26.252049      3.8960146    
-807639.77      3.2580025      33.150551      26.230224      3.5062599    
-807634.45      2.571381       32.256181      26.25227       3.1165345    
-807623.93      3.1662523      33.188837      26.272236      2.7268408    
-807621.61      3.2350323      33.744918      26.252785      2.3371872    
-807622.22      2.8450108      33.310574      26.22406       1.9475732    
-807629.8       2.9513335      32.907507      26.267658      1.5579874    
-807635.01      3.4781869      32.88391       26.243758      1.1684395    
-807643.09      3.1209074      33.040185      26.262189      0.77892474   
-807642.04      3.0623831      33.257361      26.257368      0.3894451    
-807640.76      2.7154838      31.731811      26.259978      0            
Loop time of 194.714 on 32 procs for 5000 steps with 1080 atoms

Performance: 4.437 ns/day, 5.409 hours/ns, 25.679 timesteps/s, 27.733 katom-step/s
66.4% CPU use with 32 MPI tasks x 1 OpenMP threads

MPI task timing breakdown:
Section |  min time  |  avg time  |  max time  |%varavg| %total
---------------------------------------------------------------
Pair    | 101.77     | 144.01     | 190.59     | 304.3 | 73.96
Neigh   | 0          | 0          | 0          |   0.0 |  0.00
Comm    | 1.8444     | 48.435     | 90.673     | 524.7 | 24.88
Output  | 0.026674   | 0.027434   | 0.027972   |   0.2 |  0.01
Modify  | 1.9207     | 1.9299     | 1.9422     |   0.4 |  0.99
Other   |            | 0.3152     |            |       |  0.16

Nlocal:          33.75 ave          48 max          21 min
Histogram: 8 8 0 0 0 0 0 8 0 8
Nghost:        1106.25 ave        1119 max        1092 min
Histogram: 8 0 8 0 0 0 0 0 8 8
Neighs:              0 ave           0 max           0 min
Histogram: 32 0 0 0 0 0 0 0 0 0
FullNghs:       5494.5 ave        7896 max        3378 min
Histogram: 8 8 0 0 0 0 0 8 0 8

Total # of neighbors = 175824
Ave neighs/atom = 162.8
Neighbor list builds = 0
Dangerous builds = 0

reset_timestep 0


variable interval equal 1000
thermo 10

variable nintervals equal $(v_PERIOD/v_interval)
variable nintervals equal 100
variable efield equal 1e-2*36.36*cos((step/${PERIOD})*2*3.14)
variable efield equal 1e-2*36.36*cos((step/100000)*2*3.14)
fix born all addbornforce 0.0 0.0 v_efield

variable Px equal f_born[1]+c_polarization[1]
variable Py equal f_born[2]+c_polarization[2]
variable Pz equal (f_born[3]+c_polarization[3])/vol
variable pe equal pe

fix aveP all ave/time 1 $(v_interval/2) ${interval} v_efield v_Pz v_pe f_born file Pz.${MODEL}.${STRUCTURE}.${TEMP}.$L.${ITER}
fix aveP all ave/time 1 500 ${interval} v_efield v_Pz v_pe f_born file Pz.${MODEL}.${STRUCTURE}.${TEMP}.$L.${ITER}
fix aveP all ave/time 1 500 1000 v_efield v_Pz v_pe f_born file Pz.${MODEL}.${STRUCTURE}.${TEMP}.$L.${ITER}
fix aveP all ave/time 1 500 1000 v_efield v_Pz v_pe f_born file Pz.BaTiO3-E0.${STRUCTURE}.${TEMP}.$L.${ITER}
fix aveP all ave/time 1 500 1000 v_efield v_Pz v_pe f_born file Pz.BaTiO3-E0.BaTiO3-sc333.${TEMP}.$L.${ITER}
fix aveP all ave/time 1 500 1000 v_efield v_Pz v_pe f_born file Pz.BaTiO3-E0.BaTiO3-sc333.290.$L.${ITER}
fix aveP all ave/time 1 500 1000 v_efield v_Pz v_pe f_born file Pz.BaTiO3-E0.BaTiO3-sc333.290.2.${ITER}
fix aveP all ave/time 1 500 1000 v_efield v_Pz v_pe f_born file Pz.BaTiO3-E0.BaTiO3-sc333.290.2.2

thermo_style custom step time temp press pe f_born v_efield v_Pz spcpu cpuremain

# dump 4a all custom 1000 dump.hyst.${MODEL}.${STRUCTURE}.${TEMP}.$L.${ITER}.bin id type xu yu zu fx fy fz
# dump_modify 4a sort id

fix nvt all nvt temp ${TEMP} ${TEMP} $(100*dt)
fix nvt all nvt temp 290 ${TEMP} $(100*dt)
fix nvt all nvt temp 290 290 $(100*dt)
fix nvt all nvt temp 290 290 0.2000000000000000111

run $(v_PERIOD)
run 100000
WARNING: non-constant efield is experimental, strongly distrust scalar/vector output (src/fix_addbornforce.cpp:193)
Per MPI rank memory allocation (min/avg/max) = 3.516 | 3.516 | 3.516 Mbytes
   Step          Time           Temp          Press          PotEng         f_born        v_efield         v_Pz          S/CPU         CPULeft    
         0   0              291.88261      125981.98     -807640.76     -295.95614      0.3636         0.055660999    0              0            
        10   0.02           290.38312      135937.26     -807629.69     -306.75832      0.36359993     0.057692596    27.975593      3574.2107    
        20   0.04           284.57269      138098.38     -807625.49     -310.32358      0.36359971     0.058363156    28.035882      3569.9963    
        30   0.06           296.27725      142715.81     -807622.71     -314.58624      0.36359935     0.0591649      28.01729       3569.1443    
        40   0.08           291.68016      139201.56     -807624.35     -312.40959      0.36359885     0.058755614    27.949288      3570.7097    
        50   0.1            293.9282       136862.45     -807628.99     -308.0569       0.36359821     0.057937097    27.829883      3574.5746    
        60   0.12           299.59428      128286.06     -807639.79     -298.05973      0.36359742     0.056057022    27.95867       3574.2745    
        70   0.14           283.94346      125472.96     -807642.87     -292.73705      0.36359649     0.055056112    27.867951      3575.6201    
        80   0.16           281.71445      125022.69     -807642.02     -293.36258      0.36359541     0.05517392     27.85766       3576.7057    
        90   0.18           279.94742      129351.14     -807636.85     -298.35902      0.36359419     0.05611381     27.960712      3576.0012    
       100   0.2            293.23508      135089.56     -807631.79     -305.28944      0.36359283     0.057417462    27.88709       3576.3087    
       110   0.22           288.56212      139906.96     -807625.01     -311.48645      0.36359132     0.05858321     27.969768      3575.5334    
       120   0.24           292.73553      142985.16     -807621.07     -315.91312      0.36358968     0.059416032    27.881632      3575.7677    
       130   0.26           295.01593      139201.75     -807625.23     -312.16408      0.36358788     0.058711212    27.876595      3575.9609    
       140   0.28           295.1251       135600.23     -807631.55     -305.81402      0.36358595     0.057517211    27.891936      3575.9345    
       150   0.3            300.13375      127507.25     -807640.19     -297.88557      0.36358387     0.056026356    27.916429      3575.6544    
       160   0.32           286.33735      125828.97     -807641.01     -295.07786      0.36358165     0.055498622    27.983603      3574.828     
       170   0.34           282.23254      124071.25     -807642.43     -293.18732      0.36357928     0.055143404    27.934969      3574.4222    
       180   0.36           287.11115      131001.95     -807637.11     -299.15271      0.36357677     0.056265778    27.907864      3574.2144    
       190   0.38           296.61511      133405.53     -807632.05     -305.67272      0.36357412     0.057492507    27.897745      3574.0591    
       200   0.4            295.10871      141385.95     -807623.65     -313.82186      0.36357132     0.059025692    27.953512      3573.5267    
       210   0.42           280.64682      140305.38     -807622.44     -313.13205      0.36356838     0.058896425    27.944172      3573.0676    
       220   0.44           283.48909      140876.24     -807624.26     -311.57807      0.3635653      0.058604637    27.95814       3572.5367    
       230   0.46           298.35274      132521.26     -807634.38     -303.67009      0.36356207     0.057117734    27.969806      3571.9562    
       240   0.48           283.52498      130187.81     -807636.42     -299.4741       0.3635587      0.056329025    28.010368      3571.1792    
       250   0.5            272.94714      124954.83     -807641.35     -293.0598       0.36355519     0.055123074    27.99846       3570.496     
       260   0.52           281.93532      127551.89     -807640.42     -295.15307      0.36355153     0.055517365    28.016385      3569.7504    
       270   0.54           293.35019      128564.94     -807637.79     -299.514        0.36354773     0.056338232    27.881714      3569.6705    
       280   0.56           290.77718      136906.96     -807628.25     -308.6291       0.36354379     0.058053399    27.955193      3569.2348    
       290   0.58           298.67034      138702.88     -807626.29     -311.76864      0.3635397      0.058644609    27.93261       3568.904     
       300   0.6            282.40591      142274.03     -807622.22     -313.46992      0.36353547     0.058965312    27.919988      3568.6252    
       310   0.62           290.42942      137208.47     -807626.9      -309.94694      0.3635311      0.058303321    27.96117       3568.1715    
       320   0.64           293.76529      133704.6      -807633.04     -304.19381      0.36352658     0.057221827    27.996396      3567.5839    
       330   0.66           285.28472      128332.66     -807638.84     -297.2026       0.36352192     0.055907428    27.979933      3567.0734    
       340   0.68           280.45147      125832.45     -807641.24     -294.03703      0.36351712     0.055312677    27.887692      3566.9187    
       350   0.7            285.27249      127172.22     -807639.84     -296.05615      0.36351217     0.055693261    27.890001      3566.7438    
       360   0.72           293.18361      130754.2      -807635.93     -301.06186      0.36350708     0.056635714    27.917539      3566.4607    
       370   0.74           303.12445      135913.83     -807630.17     -308.12489      0.36350185     0.057965245    27.921045      3566.1613    
       380   0.76           290.40726      138112.48     -807625.43     -311.09817      0.36349647     0.058525452    27.965151      3565.7111    
       390   0.78           292.43184      141795        -807623.3      -313.38522      0.36349095     0.058956599    27.936674      3565.3586    
       400   0.8            288.07643      135949.85     -807628.01     -308.07537      0.36348529     0.057958569    27.959106      3564.9343    
       410   0.82           297.11457      133860.59     -807632.91     -304.24698      0.36347948     0.057239245    28.017536      3564.332     
       420   0.84           278.14828      126211.21     -807638.68     -295.81326      0.36347353     0.055653486    28.012625      3563.7563    
       430   0.86           287.70674      128515.06     -807639.13     -296.43593      0.36346744     0.055771568    27.998865      3563.2314    
       440   0.88           284.11361      126547.96     -807639.3      -295.84129      0.3634612      0.055660647    27.929672      3562.9144    
       450   0.9            300.76597      133932.54     -807634.07     -303.15033      0.36345482     0.057036797    27.920968      3562.6201    
       460   0.92           295.56281      134929.48     -807629.35     -307.20097      0.3634483      0.05779995     27.964408      3562.2027    
       470   0.94           295.16915      140924.92     -807623.34     -312.93526      0.36344163     0.058879938    27.954974      3561.8134    
       480   0.96           292.39101      138147.02     -807625.37     -310.52037      0.36343482     0.058426662    27.995936      3561.3169    
       490   0.98           291.80131      137549.78     -807627.47     -308.1764       0.36342786     0.057986736    27.955765      3560.9304    
       500   1              302.28734      130979.36     -807635.62     -301.43327      0.36342077     0.056719052    27.91041       3560.6606    
       510   1.02           289.76097      128657.22     -807636.96     -9540.2396      0.36341353     0.056099079    27.728989      3560.8447    
       520   1.04           291.36634      126559.47     -807640.38     -9436.0259      0.36340614     0.055487403    27.715544      3561.0413    
       530   1.06           295.41823      128594.5      -807638.87     -9500.5153      0.36339862     0.055867782    27.780341      3561.0589    
       540   1.08           287.15014      133198.13     -807631.05     -9712.3527      0.36339095     0.057114698    27.828022      3560.949     
       550   1.1            294.26574      137252.12     -807626.55     -9887.861       0.36338313     0.058148046    27.844436      3560.7916    
       560   1.12           296.85086      140218.33     -807623.62     -9989.6373      0.36337518     0.058747854    27.928969      3560.4341    
       570   1.14           293.3739       138501.04     -807625.73     -9906.8079      0.36336707     0.058262043    27.878553      3560.1894    
       580   1.16           299.36658      137743.8      -807628.09     -9853.2314      0.36335883     0.057948274    27.873191      3559.9527    
       590   1.18           312.73552      129254.79     -807637.42     -9617.4218      0.36335044     0.056562749    27.943669      3559.5594    
       600   1.2            294.21627      130016.67     -807638.04     -9509.2543      0.36334191     0.055927898    27.881317      3559.2999    
       610   1.22           289.51562      125190.99     -807641.39     -9384.2792      0.36333324     0.055194186    27.826081      3559.1531    
       620   1.24           291.29561      131333.84     -807635.37     -9581.5987      0.36332442     0.056356099    27.874955      3558.8983    
       630   1.26           297.02673      131488.81     -807632.85     -9695.095       0.36331546     0.057025056    27.919787      3558.5495    
       640   1.28           295.33201      139668.69     -807625.33     -9925.1509      0.36330636     0.058379673    27.891087      3558.2576    
       650   1.3            299.93974      137390.32     -807626.72     -9907.425       0.36329711     0.058276893    27.90943       3557.9276    
       660   1.32           291.54045      141436.45     -807622.39     -10006.334      0.36328772     0.058860211    27.888034      3557.6382    
       670   1.34           302.01998      132106.63     -807631.5      -9771.2015      0.36327819     0.0574786      27.945289      3557.2377    
       680   1.36           303.41285      132477.19     -807635.38     -9651.4016      0.36326851     0.056775396    27.891544      3556.9392    
       690   1.38           283.69105      124564.46     -807640.5      -9408.6936      0.36325869     0.055349136    27.859085      3556.6992    
       700   1.4            280.20922      129483.82     -807636.89     -9510.0385      0.36324873     0.055946859    27.843689      3556.4838    
       710   1.42           294.51997      127053.75     -807639.18     -9513.7603      0.36323863     0.055970311    27.925733      3556.1169    
       720   1.44           288.0843       136084.49     -807630.43     -9767.5594      0.36322838     0.057465056    27.865418      3555.8571    
       730   1.46           294.681        136033.55     -807629.79     -9829.6822      0.36321798     0.057832195    27.882435      3555.5647    
       740   1.48           285.89811      140919.42     -807623.31     -10001.777      0.36320745     0.058846407    27.885943      3555.2646    
       750   1.5            286.49067      136731.56     -807627.14     -9892.8195      0.36319677     0.058207058    27.877804      3554.9767    
       760   1.52           300.06818      135556.14     -807632.57     -9784.3461      0.36318595     0.057570541    27.915906      3554.6231    
       770   1.54           285.02602      129469.79     -807637.02     -9582.9543      0.36317498     0.056387266    27.778067      3554.4984    
       780   1.56           279.36968      128685.23     -807638.75     -9504.5696      0.36316387     0.055927751    27.804229      3554.3245    
       790   1.58           282.05199      127081.82     -807640.37     -9471.2296      0.36315262     0.055733296    27.842405      3554.0841    
       800   1.6            276.36904      129813.7      -807636.21     -9583.697       0.36314122     0.056396878    27.892359      3553.7609    
       810   1.62           287.66368      133032.63     -807632.9      -9743.9755      0.36312968     0.057341886    27.907352      3553.4132    
       820   1.64           282.93613      137117.33     -807627.67     -9892.1627      0.363118       0.058215819    27.858451      3553.1415    
       830   1.66           278.20094      139730.01     -807624.92     -9961.1424      0.36310618     0.058623676    27.865185      3552.8571    
       840   1.68           287.85147      136805.86     -807629.71     -9853.1104      0.36309421     0.057989794    27.89732       3552.5222    
       850   1.7            299.12327      134464.49     -807633.3      -9785.5143      0.3630821      0.057593883    27.895         3552.1903    
       860   1.72           284.53606      128717.56     -807637.32     -9593.1706      0.36306984     0.056463726    27.931279      3551.804     
       870   1.74           280.40426      129199.03     -807639.63     -9496.7126      0.36305745     0.0558979      27.928827      3551.422     
       880   1.76           278.53485      126182.96     -807640.83     -9452.1319      0.3630449      0.055637418    27.949135      3551.0112    
       890   1.78           286.07112      132232.76     -807635.69     -9647.1304      0.36303222     0.056787208    27.924432      3550.6369    
       900   1.8            273.62447      132921.78     -807631.17     -9739.213       0.36301939     0.057331272    27.954106      3550.2211    
       910   1.82           288.27687      138839.66     -807627.32     -9918.4477      0.36300642     0.058388449    27.845015      3549.9591    
       920   1.84           284.2009       136610.32     -807628.11     -9876.8129      0.36299331     0.058145452    27.796159      3549.7631    
       930   1.86           286.65798      139192.06     -807625.96     -9946.2805      0.36298005     0.058556551    27.792766      3549.5681    
       940   1.88           287.69293      131350.74     -807633.52     -9707.5771      0.36296665     0.057153346    27.869144      3549.2658    
       950   1.9            285.04942      131659.33     -807636.56     -9587.0116      0.36295311     0.056445623    27.809969      3549.0419    
       960   1.92           287.29501      124291.94     -807641.82     -9426.3015      0.36293942     0.0555015      27.881599      3548.7199    
       970   1.94           275.29738      130019.61     -807636.3      -9540.1424      0.36292559     0.056173929    27.814437      3548.4854    
       980   1.96           277.29177      128889.49     -807635.49     -9574.0845      0.36291162     0.056375956    27.776817      3548.2977    
       990   1.98           291.38485      135910.17     -807631.12     -9765.6498      0.3628975      0.057506204    27.742743      3548.1507    
      1000   2              287.99937      136933.69     -807627.87     -9851.118       0.36288325     0.058011774    27.774306      3547.9589    
      1010   2.02           282.54065      140625.57     -807622.48     -312.13758      0.36286884     0.058822557    27.90112       3547.6033    
      1020   2.04           290.99515      135818.21     -807628.33     -307.23836      0.3628543      0.057901617    27.887931      3547.2641    
      1030   2.06           305.30763      133988.89     -807634.2      -303.07935      0.36283961     0.057120129    27.937252      3546.8637    
      1040   2.08           291.94174      129266.31     -807636.94     -298.34466      0.36282478     0.056230099    27.923511      3546.481     
      1050   2.1            284.19874      129138.81     -807636.95     -297.05219      0.3628098      0.055988812    27.952589      3546.0635    
      1060   2.12           300.2185       127237.83     -807639.77     -296.32385      0.36279469     0.055853862    27.952398      3545.6475    
      1070   2.14           299.68847      131103.56     -807635.62     -300.28037      0.36277943     0.056602004    27.968423      3545.2136    
      1080   2.16           288.86488      135582.11     -807628.96     -305.40406      0.36276402     0.05757025     28.022762      3544.7176    
      1090   2.18           299.7418       137927.92     -807626.59     -309.23345      0.36274848     0.058294607    28.006877      3544.2425    
      1100   2.2            298.68347      138588.41     -807626.32     -309.34086      0.36273279     0.058317379    27.985862      3543.7936    
      1110   2.22           285.48352      136732.32     -807627.58     -306.24411      0.36271695     0.057736094    27.967637      3543.3671    
      1120   2.24           300.92625      132418.31     -807633.48     -302.4566       0.36270098     0.057024549    27.949882      3542.962     
      1130   2.26           290.86776      129006.59     -807635.89     -298.59163      0.36268486     0.056298358    27.92588       3542.5845    
      1140   2.28           289.58054      128361.44     -807637.75     -296.54215      0.3626686      0.055914442    27.981164      3542.1461    
      1150   2.3            286.95664      129251.41     -807637.12     -296.81402      0.36265219     0.055968236    27.951356      3541.7419    
      1160   2.32           294.16464      133269.74     -807632.72     -302.19317      0.36263564     0.056985146    27.88085       3541.4154    
      1170   2.34           298.28118      135183.44     -807630.03     -305.57642      0.36261895     0.057625786    27.906417      3541.0607    
      1180   2.36           301.2296       139136.39     -807626.36     -309.62906      0.36260212     0.058392744    27.935748      3540.6745    
      1190   2.38           289.09969      137248.43     -807626.8      -307.59697      0.36258514     0.05801223     27.89707       3540.3299    
      1200   2.4            293.46286      137066.61     -807628.39     -306.61738      0.36256802     0.057830212    27.919362      3539.9615    
      1210   2.42           295.60215      131381.04     -807634.59     -300.83637      0.36255076     0.056742574    27.991628      3539.5178    
      1220   2.44           291.37352      130430.73     -807636.61     -298.15491      0.36253335     0.056239508    27.875937      3539.1956    
      1230   2.46           280.79414      127364.7      -807638.5      -294.94033      0.3625158      0.05563585     27.888327      3538.86      
      1240   2.48           288.29125      130694.53     -807636.2      -298.25126      0.36249811     0.056263151    27.872801      3538.5399    
      1250   2.5            297.62083      131602.12     -807634.21     -301.71581      0.36248028     0.056919517    27.880671      3538.2112    
      1260   2.52           295.34414      136612.1      -807628.84     -306.8023       0.3624623      0.057881968    27.893728      3537.8688    
      1270   2.54           289.87586      137902.66     -807626.75     -308.25163      0.36244418     0.058158308    27.952071      3537.4681    
      1280   2.56           291.11333      138781.66     -807626.45     -308.82362      0.36242592     0.058269162    27.942213      3537.0778    
      1290   2.58           294.44156      134813.28     -807630.48     -305.36064      0.36240751     0.05761869     27.972549      3536.6582    
      1300   2.6            294.47659      131509        -807634.62     -301.22454      0.36238896     0.056841157    27.972702      3536.2395    
      1310   2.62           283.55202      129023.96     -807637.75     -296.67101      0.36237027     0.055984793    27.928795      3535.8639    
      1320   2.64           288.08841      128133.43     -807639.67     -295.484        0.36235143     0.055763691    27.910595      3535.5062    
      1330   2.66           293.74072      130677.92     -807637.63     -298.38276      0.36233245     0.056313694    27.925918      3535.1339    
      1340   2.68           287.80695      132781.28     -807633.25     -302.1101       0.36231333     0.057020162    27.884211      3534.8011    
      1350   2.7            292.46436      136868.87     -807629.83     -306.24306      0.36229407     0.057803289    27.94091       3534.4149    
      1360   2.72           277.35505      137518.09     -807625.92     -308.16725      0.36227466     0.058169595    27.981497      3533.9914    
      1370   2.74           283.99311      138270.42     -807626.2      -308.90224      0.36225511     0.058311479    27.98398       3533.5666    
      1380   2.76           282.94896      133667.37     -807630.47     -304.54696      0.36223542     0.057492457    27.871493      3533.2458    
      1390   2.78           293.61275      131136.71     -807635.94     -300.5614       0.36221558     0.05674317     27.900359      3532.8981    
      1400   2.8            280.97128      127248.36     -807638.81     -296.01359      0.3621956      0.055887669    27.964311      3532.4926    
      1410   2.82           286.38342      129768.87     -807638.14     -297.45881      0.36217548     0.056163647    27.910004      3532.1364    
      1420   2.84           292.6987       128509.13     -807638.55     -298.13117      0.36215522     0.056293747    27.913078      3531.7774    
      1430   2.86           282.90473      134979.81     -807631.68     -303.63489      0.36213481     0.057336201    27.942248      3531.3927    
      1440   2.88           287.17146      134641.43     -807630.8      -305.3523       0.36211426     0.057663776    27.960402      3530.9924    
      1450   2.9            278.03792      139813.8      -807624.89     -309.924        0.36209357     0.058530457    27.995943      3530.5619    
      1460   2.92           287.92095      135398.28     -807629.75     -306.6118       0.36207273     0.057908267    27.936273      3530.1838    
      1470   2.94           286.96607      134469.79     -807631.75     -304.47359      0.36205176     0.057507765    27.995779      3529.7551    
      1480   2.96           287.76218      128354.34     -807638.39     -298.04761      0.36203064     0.056297336    27.980761      3529.34      
      1490   2.98           277.05995      129181.02     -807637.6      -297.31752      0.36200937     0.056162729    28.005263      3528.9051    
      1500   3              280.57304      126753.42     -807640.62     -294.93297      0.36198796     0.055715588    27.889965      3528.5681    
      1510   3.02           287.4233       130235.37     -807638.09     -9549.495       0.36196642     0.056378       27.821498      3528.2884    
      1520   3.04           282.77884      133146.16     -807632.73     -9704.3963      0.36194472     0.057295935    27.813083      3528.0147    
      1530   3.06           285.65318      137199.03     -807629.02     -9837.8394      0.36192289     0.058087304    27.796059      3527.7541    
      1540   3.08           277.23174      138551.57     -807626.69     -9875.0865      0.36190091     0.058310769    27.794721      3527.4932    
      1550   3.1            289.10593      135566.85     -807631.47     -9776.7962      0.36187879     0.05773391     27.80807       3527.2202    
      1560   3.12           279.77093      134240.79     -807631.62     -9728.4722      0.36185653     0.057452082    27.844925      3526.916     
      1570   3.14           276.50277      129549.36     -807636.23     -9568.1805      0.36183412     0.056508968    27.843669      3526.612     
      1580   3.16           282.91264      128647.03     -807639.47     -9487.0356      0.36181157     0.056033224    27.790135      3526.3505    
      1590   3.18           273.33833      126878.54     -807639.49     -9444.5783      0.36178888     0.055785957    27.782435      3526.0939    
      1600   3.2            280.84488      132137.77     -807635.12     -9613.6656      0.36176605     0.056788284    27.897692      3525.7446    
      1610   3.22           281.98957      132724.24     -807632.02     -9715.6441      0.36174307     0.05739432     27.875641      3525.4125    
      1620   3.24           291.40171      137715.07     -807629.24     -9838.9251      0.36171995     0.058126306    27.895621      3525.0645    
      1630   3.26           285.07413      135525.8      -807629.03     -9814.0736      0.36169669     0.057983218    27.867405      3524.7382    
      1640   3.28           284.73928      136896.52     -807627.91     -9839.079       0.36167329     0.058134716    27.824223      3524.445     
      1650   3.3            288.38022      131021.73     -807634.18     -9649.7311      0.36164974     0.057019656    27.910814      3524.0844    
      1660   3.32           283.63151      130378.99     -807635.88     -9560.8427      0.36162605     0.056498121    27.877616      3523.7492    
      1670   3.34           293.15271      126136.95     -807641.1      -9428.8276      0.36160222     0.055721673    27.762509      3523.5013    
      1680   3.36           287.5142       129683.84     -807636.84     -9530.9017      0.36157824     0.056328636    27.806115      3523.219     
      1690   3.38           286.33675      130422.33     -807634.39     -9599.0055      0.36155413     0.056734922    27.872982      3522.8856    
      1700   3.4            286.5464       135852.95     -807630.06     -9730.1264      0.36152987     0.057513771    27.879489      3522.547     
      1710   3.42           297.03213      135689.18     -807628.69     -9811.255       0.36150546     0.057997228    27.895023      3522.1967    
      1720   3.44           292.39832      138105.49     -807626.4      -9856.14        0.36148092     0.058266513    27.834824      3521.8906    
      1730   3.46           289.80019      135761.5      -807628.95     -9756.6729      0.36145623     0.057682433    27.916692      3521.5241    
      1740   3.48           306.64989      131710.09     -807635.41     -9616.3852      0.3614314      0.056856944    27.947555      3521.1353    
      1750   3.5            279.6829       130424.52     -807634.73     -9512.8665      0.36140643     0.056248775    27.873199      3520.8005    
      1760   3.52           292.27915      128055.93     -807638.51     -9444.4209      0.36138131     0.055847943    27.891959      3520.4519    
      1770   3.54           295.78927      128932.99     -807637.61     -9483.2974      0.36135605     0.056081752    27.884327      3520.1087    
      1780   3.56           292.96669      131852.15     -807633.8      -9590.643       0.36133065     0.056720553    27.889655      3519.7614    
      1790   3.58           289.39185      136375.08     -807627.78     -9763.1127      0.36130511     0.057744648    27.881585      3519.4198    
      1800   3.6            294.71622      137153.84     -807627.11     -9807.8619      0.36127942     0.058013445    27.803632      3519.1329    
      1810   3.62           307.00381      137319.17     -807627.96     -9830.6782      0.3612536      0.05815256     27.846517      3518.815     
      1820   3.64           286.49063      134256.22     -807628.06     -9737.8633      0.36122763     0.057607663    27.758811      3518.558     
      1830   3.66           294.05262      132125.57     -807632.36     -9629.3814      0.36120151     0.056970019    27.718797      3518.3277    
      1840   3.68           298.08593      128165.18     -807637.79     -9474.169       0.36117526     0.056055815    27.783761      3518.051     
      1850   3.7            292.47979      129131.99     -807637.88     -9443.3069      0.36114886     0.055877298    27.824039      3517.7457    
      1860   3.72           292.87003      129384.31     -807636.52     -9492.8025      0.36112232     0.056174298    27.813472      3517.4471    
      1870   3.74           301.70488      132852.25     -807633.03     -9642.9344      0.36109564     0.05706693     27.845104      3517.1264    
      1880   3.76           294.89993      135482.88     -807629.62     -9722.8611      0.36106881     0.057544212    27.891535      3516.7741    
      1890   3.78           300.26597      137630.08     -807627.73     -9808.7526      0.36104184     0.058056891    27.865995      3516.4387    
      1900   3.8            295.28307      137095.84     -807626.69     -9822.7145      0.36101474     0.058143896    27.894763      3516.0841    
      1910   3.82           293.86462      135726.22     -807628.94     -9746.7413      0.36098748     0.057698541    27.900258      3515.7257    
      1920   3.84           295.63365      130937.56     -807634.99     -9564.1524      0.36096009     0.056621952    27.868615      3515.3881    
      1930   3.86           285.50469      129227.28     -807636.92     -9458.8591      0.36093255     0.056002865    27.878621      3515.0438    
      1940   3.88           287.51         127815.78     -807637.75     -9448.2228      0.36090487     0.055944181    27.881748      3514.6973    
      1950   3.9            288.35866      129684.11     -807635.67     -9522.3131      0.36087705     0.056387226    27.878469      3514.3528    
      1960   3.92           283.66478      132346.87     -807633.62     -9573.7161      0.36084909     0.056696007    27.858941      3514.0207    
      1970   3.94           293.17089      135910.03     -807630        -9737.0684      0.36082098     0.057667879    27.814088      3513.7172    
      1980   3.96           289.71746      137540.4      -807627.07     -9823.217       0.36079273     0.05818265     27.744864      3513.4574    
      1990   3.98           294.47413      137074.7      -807628.17     -9815.2511      0.36076434     0.058140043    27.85428       3513.127     
      2000   4              292.42402      134141.33     -807633.31     -9647.5995      0.36073581     0.057151489    27.845667      3512.8017    
      2010   4.02           283.17205      131544.16     -807635.24     -298.54519      0.36070713     0.056598233    27.923791      3512.4271    
      2020   4.04           291.70117      128039.23     -807638.72     -296.43578      0.36067831     0.056202821    27.988134      3512.0127    
      2030   4.06           274.9594       128249.11     -807638.02     -295.0164       0.36064935     0.055938204    27.986329      3511.6       
      2040   4.08           283.0866       129224.23     -807638.16     -296.18259      0.36062025     0.056163857    27.974403      3511.1952    
      2050   4.1            292.42868      132595.03     -807634.77     -301.03445      0.36059101     0.057088526    27.945777      3510.8082    
      2060   4.12           275.91096      136133.02     -807628.39     -305.26689      0.36056162     0.057895889    27.923622      3510.4351    
      2070   4.14           280.57243      137184.59     -807627.84     -306.53189      0.36053209     0.058140566    27.985114      3510.0249    
      2080   4.16           292.40134      135343.98     -807631.66     -304.41636      0.36050242     0.05774406     27.981702      3509.6173    
      2090   4.18           281.68146      133668.44     -807633.15     -301.46879      0.36047261     0.057189672    28.026719      3509.1832    
      2100   4.2            278.64765      130211.38     -807635.17     -299.00973      0.36044265     0.056727894    27.970835      3508.7832    
      2110   4.22           280.75782      127935.09     -807639.17     -295.24312      0.36041256     0.056017973    27.891252      3508.4308    
      2120   4.24           285.68178      128197.24     -807640.75     -294.29721      0.36038232     0.055843186    27.942237      3508.0482    
      2130   4.26           277.37056      130017.14     -807636.5      -297.38165      0.36035193     0.05643322     27.889172      3507.6971    
      2140   4.28           278.15576      134557.86     -807630.64     -303.26704      0.36032141     0.057554947    27.882144      3507.3501    
      2150   4.3            283.57588      135891.53     -807630.44     -304.14849      0.36029075     0.057727144    27.891372      3506.9976    
      2160   4.32           279.16871      136909.47     -807628.64     -305.22166      0.36025994     0.057935786    27.921259      3506.6276    
      2170   4.34           279.95834      135354.94     -807630.05     -303.86231      0.36022899     0.057682715    27.955543      3506.2379    
      2180   4.36           287.58055      133869.54     -807633.15     -301.64517      0.36019789     0.057266774    27.927114      3505.8649    
      2190   4.38           282.10189      129012.14     -807637.33     -296.59262      0.36016666     0.056312441    27.869851      3505.5248    
      2200   4.4            287.59492      127974.16     -807640.77     -293.66073      0.36013528     0.055760636    27.894197      3505.1707    
      2210   4.42           276.70559      127965.77     -807638.28     -294.65226      0.36010377     0.055953805    27.958289      3504.7802    
      2220   4.44           284.2996       131661.73     -807634.46     -299.40379      0.36007211     0.056861109    27.951969      3504.3935    
      2230   4.46           288.80604      132984.73     -807633.09     -301.30778      0.3600403      0.05722776     27.94527       3504.0108    
      2240   4.48           284.16254      137114.35     -807629.17     -304.40476      0.36000836     0.057821102    27.950872      3503.6253    
      2250   4.5            284.97647      136870.85     -807628.44     -305.20103      0.35997627     0.057977521    27.980734      3503.2234    
      2260   4.52           293.66505      136276.56     -807629.4      -305.26295      0.35994404     0.057994476    27.96038       3502.8331    
      2270   4.54           292.2801       132263.13     -807634.8      -299.54614      0.35991167     0.056913502    27.994854      3502.4242    
      2280   4.56           285.48877      130255.66     -807637.92     -295.28828      0.35987916     0.056109581    27.908878      3502.0628    
      2290   4.58           281.80639      128023.02     -807638.6      -294.01737      0.35984651     0.055873158    27.896409      3501.7084    
      2300   4.6            288.0041       129357.13     -807637.33     -296.05705      0.35981371     0.056265893    27.993929      3501.3008    
      2310   4.62           286.17441      131049.52     -807635.69     -297.36071      0.35978077     0.056518829    27.981609      3500.9004    
      2320   4.64           285.05011      134851.58     -807632.25     -300.49488      0.35974769     0.057119786    27.939756      3500.5228    
      2330   4.66           285.92808      136004.09     -807629.02     -303.75074      0.35971447     0.057744012    27.996326      3500.1151    
      2340   4.68           283.97041      137555.49     -807625.88     -306.43398      0.35968111     0.058259507    27.993891      3499.7092    
      2350   4.7            295.97788      134992.05     -807631.32     -302.52374      0.3596476      0.057521447    27.981631      3499.3101    
      2360   4.72           293.13552      131838.88     -807635.16     -298.11238      0.35961396     0.056687982    27.970032      3498.9176    
      2370   4.74           292.03407      129947.69     -807637.23     -295.75142      0.35958017     0.056244314    27.968666      3498.526     
      2380   4.76           283.6249       128498.06     -807636.38     -295.30489      0.35954624     0.056164696    27.986892      3498.1252    
      2390   4.78           294.6693       129053.59     -807637.95     -295.13121      0.35951216     0.056136982    27.919386      3497.7601    
      2400   4.8            293.04116      131489.89     -807635.68     -297.03662      0.35947795     0.056504789    27.948657      3497.3797    
      2410   4.82           293.6869       135235.82     -807630.32     -302.40909      0.35944359     0.057532283    27.891497      3497.0292    
      2420   4.84           289.86323      136879.89     -807627.13     -304.98033      0.35940909     0.058027023    27.960686      3496.6429    
      2430   4.86           295.82016      137256.25     -807628.72     -304.05336      0.35937446     0.057856229    27.944271      3496.2653    
      2440   4.88           293.81706      133897.24     -807631.93     -300.41473      0.35933967     0.057169391    27.956051      3495.8818    
      2450   4.9            294.03083      132676.93     -807633.88     -298.3993       0.35930475     0.056791372    27.873948      3495.5404    
      2460   4.92           289.75618      128877.33     -807635.67     -295.92944      0.35926969     0.056326805    27.792471      3495.2406    
      2470   4.94           288.23367      129503.19     -807636.99     -294.19804      0.35923448     0.056002741    27.888954      3494.8912    
      2480   4.96           299.59864      128387.53     -807639.35     -293.38939      0.35919913     0.055854303    27.844476      3494.5642    
      2490   4.98           285.34241      134181.49     -807631.16     -299.4692       0.35916364     0.057017387    27.900649      3494.2086    
      2500   5              291.05841      134947.73     -807629.58     -301.83032      0.35912801     0.057472635    27.9187        3493.844     
[...]
     98740   197.48         300.50913      134423.52     -807630.78     -9716.4995      0.36236891     0.057300239    28.621621      44.424735    
     98750   197.5          299.38013      131791.37     -807632.86     -9645.2322      0.36238762     0.056877026    28.624482      44.072117    
     98760   197.52         311.10149      133776.92     -807632.75     -9695.635       0.36240618     0.057171318    28.649821      43.719495    
     98770   197.54         290.42812      131856.58     -807631.97     -9629.5789      0.36242459     0.056778926    28.620597      43.366879    
     98780   197.56         298.98646      134739.06     -807630.98     -9695.7649      0.36244287     0.057166297    28.601524      43.014266    
     98790   197.58         297.05098      132550.35     -807631.53     -9673.6297      0.362461       0.057032934    28.592632      42.661656    
     98800   197.6          297.84145      135445.27     -807629.37     -9745.6427      0.36247899     0.057454651    28.627824      42.30904     
     98810   197.62         293.40648      133390.55     -807630.6      -9690.5822      0.36249683     0.057127233    28.655538      41.956422    
     98820   197.64         304.21531      135451.72     -807630.99     -9725.5047      0.36251453     0.057330307    28.656352      41.603804    
     98830   197.66         297.02313      133181.61     -807631.57     -9682.3193      0.36253209     0.057072971    28.681512      41.251183    
     98840   197.68         305.17412      133776.23     -807632.39     -9694.3961      0.36254951     0.057141413    28.70492       40.898559    
     98850   197.7          294.30667      132621.26     -807632.68     -9643.9378      0.36256678     0.05684129     28.686327      40.545939    
     98860   197.72         293.21374      133338.04     -807632.81     -9640.974       0.36258391     0.056821137    28.638783      40.193327    
     98870   197.74         295.63987      133222.44     -807632.71     -9662.1625      0.3626009      0.056943348    28.620985      39.840717    
     98880   197.76         288.39804      133334.13     -807631.17     -9688.1691      0.36261774     0.057093964    28.611468      39.48811     
     98890   197.78         298.65911      133988.66     -807632.37     -9703.2798      0.36263445     0.05718038     28.622684      39.135501    
     98900   197.8          285.37797      134322.34     -807631.16     -9691.976       0.362651       0.05711116     28.622221      38.782894    
     98910   197.82         293.8681       134986.61     -807631.13     -9737.4014      0.36266742     0.057376238    28.62063       38.430287    
     98920   197.84         296.63751      132585.02     -807632.68     -9710.633       0.36268369     0.057215942    28.616958      38.077682    
     98930   197.86         296.618        134224.02     -807633.1      -9704.0169      0.36269982     0.057174417    28.612955      37.725077    
     98940   197.88         285.48147      131139.03     -807634.05     -9632.8824      0.36271581     0.056752803    28.613304      37.372473    
     98950   197.9          296.53367      132642.97     -807634.01     -9686.8164      0.36273165     0.057068066    28.581204      37.019874    
     98960   197.92         277.17455      131400.42     -807632.06     -9673.1409      0.36274735     0.056985033    28.583892      36.667275    
     98970   197.94         295.16262      134031.27     -807633.05     -9723.7351      0.36276291     0.05728063     28.607667      36.314674    
     98980   197.96         284.51539      131975.58     -807633.52     -9668.76        0.36277832     0.056954362    28.663734      35.962066    
     98990   197.98         278.86196      134836.25     -807630.02     -9756.4745      0.36279359     0.05746863     28.672987      35.609458    
     99000   198            286.50555      132575.57     -807631.6      -9745.8146      0.36280872     0.057403446    28.655451      35.256853    
     99010   198.02         286.4909       134165.24     -807631.61     -304.53985      0.3628237      0.057397898    28.733307      34.904239    
     99020   198.04         287.47337      131773.69     -807634.75     -301.7022       0.36283855     0.056860749    28.755188      34.551623    
     99030   198.06         282.67859      133901.13     -807632.43     -303.36525      0.36285324     0.057171862    28.761519      34.199008    
     99040   198.08         284.1958       131600        -807633.81     -302.32225      0.3628678      0.056973014    28.727282      33.846398    
     99050   198.1          280.64085      133117.75     -807633.49     -302.13386      0.36288221     0.056935251    28.724879      33.493788    
     99060   198.12         281.77492      131452.61     -807634.9      -300.93113      0.36289648     0.056706373    28.697653      33.141183    
     99070   198.14         293.09324      133890.66     -807633.05     -304.32369      0.36291061     0.057343423    28.71451       32.788577    
     99080   198.16         284.53437      133361.51     -807631.24     -305.01499      0.36292459     0.05747147     28.684257      32.435975    
     99090   198.18         276.61707      134602.83     -807631.06     -304.0171       0.36293843     0.057281262    28.705944      32.083372    
     99100   198.2          289.17161      132621.73     -807634.26     -302.59459      0.36295213     0.057011088    28.687206      31.730771    
     99110   198.22         283.22341      133933.42     -807630.75     -305.19165      0.36296568     0.057498247    28.653289      31.378175    
     99120   198.24         282.74544      132078.98     -807632.22     -303.64702      0.36297909     0.057205124    28.686102      31.025576    
     99130   198.26         284.45951      132904.89     -807634.66     -301.29438      0.36299236     0.056759827    28.761444      30.67297     
     99140   198.28         287.03052      131649.07     -807635.88     -300.39771      0.36300548     0.05658886     28.751943      30.320365    
     99150   198.3          290.10576      132893.79     -807632.35     -304.22992      0.36301846     0.057308723    28.727144      29.967765    
     99160   198.32         286.30969      133152.78     -807632.01     -303.98652      0.3630313      0.057260848    28.697233      29.615168    
     99170   198.34         289.97609      134667.18     -807632.66     -303.65631      0.36304399     0.057196648    28.682896      29.262574    
     99180   198.36         291.25011      133508.98     -807632.99     -303.46564      0.36305655     0.057158756    28.687585      28.90998     
     99190   198.38         288.07608      134965.01     -807629.59     -306.25727      0.36306895     0.057682598    28.706525      28.557385    
     99200   198.4          276.31611      134532.38     -807629.21     -304.83307      0.36308122     0.057412415    28.694892      28.204792    
     99210   198.42         286.16122      132516.55     -807634.12     -301.08501      0.36309334     0.056704611    28.683844      27.8522      
     99220   198.44         287.12035      132187.66     -807633.86     -301.17438      0.36310532     0.05671957     28.698217      27.499609    
     99230   198.46         297.62643      132057.58     -807633.06     -303.30115      0.36311715     0.05711824     28.760693      27.147012    
     99240   198.48         290.23368      134159.29     -807630.95     -304.09339      0.36312885     0.05726559     28.749334      26.794417    
     99250   198.5          301.88831      132358.87     -807634.81     -301.58605      0.3631404      0.056791612    28.737914      26.441824    
     99260   198.52         301.09468      134503.89     -807631.34     -304.60735      0.3631518      0.057358753    28.734679      26.089233    
     99270   198.54         304.08278      133466.99     -807630.75     -305.49213      0.36316306     0.057523575    28.749871      25.736641    
     99280   198.56         292.42072      135702.25     -807628.38     -305.86029      0.36317418     0.057591135    28.763871      25.384049    
     99290   198.58         299.20931      131565.83     -807634.13     -300.88863      0.36318516     0.056653299    28.788172      25.031455    
     99300   198.6          291.64349      134868.02     -807630.44     -303.27605      0.36319599     0.057101115    28.787784      24.678863    
     99310   198.62         296.35211      132487.28     -807631.57     -302.79792      0.36320668     0.057009414    28.791506      24.326271    
     99320   198.64         297.58596      134617.88     -807630.8      -303.51222      0.36321723     0.057142239    28.747112      23.973685    
     99330   198.66         302.75858      131679.2      -807634.77     -300.28526      0.36322763     0.056533082    28.712097      23.621102    
     99340   198.68         310.10593      135108.23     -807631.03     -304.8801       0.36323789     0.057396506    28.684694      23.268522    
     99350   198.7          291.44846      133677.11     -807628.46     -305.00514      0.36324801     0.057418446    28.678156      22.915943    
     99360   198.72         302.12842      135724.77     -807629.98     -304.87284      0.36325798     0.057391965    28.675698      22.563366    
     99370   198.74         305.99292      132207.38     -807634.07     -301.44128      0.36326781     0.056744442    28.671718      22.210789    
     99380   198.76         298.88442      135155.7      -807630.42     -304.16134      0.3632775      0.057254948    28.672815      21.858213    
     99390   198.78         291.77671      132094.17     -807630.19     -303.57962      0.36328704     0.057143945    28.678908      21.505638    
     99400   198.8          307.22679      133915.17     -807633.44     -302.47622      0.36329644     0.056934775    28.711521      21.15306     
     99410   198.82         294.31966      131598.92     -807633.95     -300.39691      0.3633057      0.056541948    28.707216      20.800484    
     99420   198.84         298.51887      135063.98     -807630.24     -304.75499      0.36331481     0.057360806    28.691597      20.44791     
     99430   198.86         289.25811      133627.72     -807629.12     -304.81998      0.36332378     0.057371622    28.676128      20.095338    
     99440   198.88         292.94057      135709.36     -807630.05     -304.38719      0.36333261     0.057288771    28.749299      19.742762    
     99450   198.9          293.4033       133080.47     -807631.94     -302.75726      0.36334129     0.05698064     28.777786      19.390185    
     99460   198.92         299.24303      134748.19     -807630.47     -305.0767       0.36334983     0.057415823    28.818876      19.037606    
     99470   198.94         295.85272      132578.43     -807631.16     -304.09832      0.36335823     0.057230368    28.843875      18.685026    
     99480   198.96         297.1133       133690.75     -807633.19     -302.27137      0.36336648     0.05688525     28.819578      18.33245     
     99490   198.98         298.17766      131262.13     -807634.96     -300.81457      0.3633746      0.056609827    28.779371      17.979876    
     99500   199            296.99009      133202.36     -807631.63     -304.05184      0.36338256     0.057217788    28.771061      17.627305    
     99510   199.02         291.10746      133132.65     -807630.78     -9736.4089      0.36339039     0.057256251    28.689735      17.274739    
     99520   199.04         298.95929      134897.91     -807632.27     -9725.2981      0.36339807     0.057189704    28.622787      16.922178    
     99530   199.06         290.28914      133860.22     -807631.65     -9712.9194      0.3634056      0.057115726    28.61168       16.569618    
     99540   199.08         305.38578      134083.27     -807631.36     -9792.1442      0.363413       0.057580427    28.626931      16.217058    
     99550   199.1          289.35677      133746.93     -807630.16     -9762.9886      0.36342025     0.057407839    28.679672      15.864496    
     99560   199.12         290.86721      132617.75     -807633.4      -9669.4549      0.36342736     0.056856735    28.648599      15.511936    
     99570   199.14         284.97062      132449.04     -807633.12     -9656.2465      0.36343432     0.056777981    28.618291      15.159379    
     99580   199.16         294.24873      131596.08     -807633.64     -9687.0863      0.36344114     0.056958248    28.634459      14.806821    
     99590   199.18         281.65525      133758.07     -807630.91     -9719.3694      0.36344782     0.057147016    28.626169      14.454265    
     99600   199.2          289.34973      133233.22     -807633.72     -9667.6291      0.36345435     0.056841777    28.634877      14.101708    
     99610   199.22         296.0495       134279.86     -807632.01     -9755.1814      0.36346074     0.057355541    28.630617      13.749153    
     99620   199.24         293.89387      133511.59     -807630.7      -9794.374       0.36346699     0.057584984    28.682579      13.396596    
     99630   199.26         289.21188      135692.06     -807629.53     -9812.0225      0.3634731      0.057687777    28.713306      13.044038    
     99640   199.28         284.02919      131711.19     -807633.23     -9675.6071      0.36347906     0.056884818    28.700575      12.691481    
     99650   199.3          291.02226      133757.99     -807633.33     -9704.8944      0.36348487     0.057056091    28.628596      12.338929    
     99660   199.32         282.02511      130900.06     -807632.53     -9696.9969      0.36349055     0.05700877     28.633789      11.986377    
     99670   199.34         288.02085      133007.4      -807632.47     -9725.6931      0.36349608     0.057176606    28.654103      11.633824    
     99680   199.36         287.55395      131397.65     -807635.69     -9627.018       0.36350147     0.056595664    28.657997      11.281273    
     99690   199.38         287.95981      135360.4      -807631.77     -9754.4188      0.36350671     0.057343805    28.633938      10.928723    
     99700   199.4          282.21688      134141.24     -807629.83     -9797.0182      0.36351181     0.057593428    28.653524      10.576173    
     99710   199.42         291.41454      135271.84     -807630.98     -9800.7642      0.36351677     0.057614664    28.637775      10.223624    
     99720   199.44         289.20987      132491.01     -807634        -9699.4499      0.36352158     0.057018324    28.624447      9.871076     
     99730   199.46         285.12495      133697.83     -807632.36     -9735.7923      0.36352625     0.057231228    28.631447      9.5185288    
     99740   199.48         280.06145      132570.3      -807632.62     -9708.1621      0.36353078     0.057068094    28.667711      9.165981     
     99750   199.5          289.16304      132324.23     -807634.13     -9701.0054      0.36353516     0.057025337    28.678811      8.8134336    
     99760   199.52         293.38787      131631.38     -807636.4      -9650.4869      0.3635394      0.056727713    28.656661      8.4608876    
     99770   199.54         290.13272      132774.49     -807634.17     -9709.5276      0.3635435      0.057074124    28.63789       8.1083429    
     99780   199.56         274.79197      133608.38     -807629.82     -9783.9038      0.36354745     0.057510694    28.652457      7.7557985    
     99790   199.58         287.17078      133326.54     -807632.15     -9765.7469      0.36355126     0.057403364    28.634757      7.4032553    
     99800   199.6          282.04199      134661.24     -807632.4      -9734.0549      0.36355493     0.057216501    28.660986      7.050712     
     99810   199.62         279.11942      133926.35     -807631.39     -9755.3297      0.36355845     0.057340997    28.576903      6.6981715    
     99820   199.64         284.94782      134177.41     -807631.52     -9774.9578      0.36356183     0.057455835    28.591689      6.3456311    
     99830   199.66         288.04386      131350.17     -807634.74     -9686.6056      0.36356507     0.056936007    28.669606      5.9930897    
     99840   199.68         280.3637       132653.29     -807633.94     -9675.4811      0.36356816     0.056870135    28.655743      5.6405493    
     99850   199.7          290.04559      130934.03     -807635.76     -9660.0077      0.36357111     0.056778726    28.608078      5.2880105    
     99860   199.72         290.156        133724.8      -807632.06     -9776.479       0.36357392     0.057462866    28.633136      4.9354718    
     99870   199.74         283.2173       133332.64     -807631.84     -9752.6226      0.36357658     0.057322227    28.650313      4.5829336    
     99880   199.76         281.34459      135163.31     -807631.44     -9749.7829      0.3635791      0.057305139    28.687453      4.2303955    
     99890   199.78         282.43799      133303.59     -807631.4      -9752.7039      0.36358148     0.057321933    28.637849      3.8778588    
     99900   199.8          297.44807      135016.05     -807630.74     -9836.1959      0.36358371     0.057812306    28.675916      3.5253224    
     99910   199.82         285.28396      132412.48     -807632.38     -9723.8515      0.3635858      0.057151672    28.710399      3.1727864    
     99920   199.84         291.11634      133156.67     -807635.15     -9648.5862      0.36358775     0.056708999    28.74422       2.8202508    
     99930   199.86         289.01921      130628.1      -807634.76     -9648.5792      0.36358955     0.056708676    28.714308      2.4677165    
     99940   199.88         287.899        132939.53     -807631.9      -9725.2575      0.36359121     0.057159086    28.693823      2.1151831    
     99950   199.9          290.00131      131881.77     -807633.76     -9668.209       0.36359273     0.056823553    28.681149      1.7626507    
     99960   199.92         292.74792      134060.96     -807632.51     -9708.3118      0.3635941      0.057059036    28.650795      1.4101191    
     99970   199.94         301.99407      133083.23     -807632.45     -9746.7816      0.36359533     0.057284942    28.632764      1.0575884    
     99980   199.96         293.40925      136157.89     -807627.86     -9847.8785      0.36359641     0.057878948    28.611285      0.70505831   
     99990   199.98         296.41778      134769.47     -807631        -9754.9941      0.36359736     0.05733289     28.620556      0.35252884   
    100000   200            296.26984      134179.3      -807632.29     -9707.4977      0.36359816     0.057053614    28.63001       0            
Loop time of 3525.29 on 32 procs for 100000 steps with 1080 atoms

Performance: 4.902 ns/day, 4.896 hours/ns, 28.366 timesteps/s, 30.636 katom-step/s
62.6% CPU use with 32 MPI tasks x 1 OpenMP threads

MPI task timing breakdown:
Section |  min time  |  avg time  |  max time  |%varavg| %total
---------------------------------------------------------------
Pair    | 2582.9     | 2802.1     | 3098.2     | 205.0 | 79.48
Neigh   | 0.0016604  | 0.0017737  | 0.0019804  |   0.2 |  0.00
Comm    | 353.61     | 649.61     | 868.77     | 425.7 | 18.43
Output  | 2.3604     | 2.3711     | 2.379      |   0.3 |  0.07
Modify  | 64.561     | 64.865     | 65.431     |   2.1 |  1.84
Other   |            | 6.387      |            |       |  0.18

Nlocal:          33.75 ave          42 max          26 min
Histogram: 2 5 0 4 3 5 9 2 0 2
Nghost:        1040.44 ave        1062 max        1022 min
Histogram: 3 1 3 4 6 5 5 3 1 1
Neighs:              0 ave           0 max           0 min
Histogram: 32 0 0 0 0 0 0 0 0 0
FullNghs:      5313.69 ave        6653 max        4070 min
Histogram: 2 4 1 4 4 4 7 4 0 2

Total # of neighbors = 170038
Ave neighs/atom = 157.44259
Neighbor list builds = 4
Dangerous builds = 0

Total wall time: 1:02:15
