
units		metal
atom_style	atomic

read_data ${STRUCTURE}.data
read_data BaTiO3-sc333.data
Reading data file ...
  orthogonal box = (0 0 0) to (11.898253 11.898253 12.912076)
  2 by 4 by 4 MPI processor grid
  reading atoms ...
  135 atoms
  read_data CPU = 0.011 seconds
replicate $L $L $L
replicate 2 $L $L
replicate 2 2 $L
replicate 2 2 2
Replication is creating a 2x2x2 = 8 times larger system...
  orthogonal box = (0 0 0) to (23.796507 23.796507 25.824152)
  2 by 4 by 4 MPI processor grid
  1080 atoms
  replicate CPU = 0.006 seconds

pair_style allegro
pair_coeff	* * ${MODEL}.pth Ba Ti O
pair_coeff	* * BaTiO3-E0.pth Ba Ti O
mass 1 137.3
mass 2 47.9
mass 3 15.9994

timestep 0.002
compute polarization all allegro polarization 3
compute allegro will evaluate the quantity polarization of length 3 (src/compute_allegro.cpp:53)
compute polarizability all allegro polarizability 9
compute allegro will evaluate the quantity polarizability of length 9 (src/compute_allegro.cpp:53)

thermo_style custom pe fmax fnorm spcpu cpuremain

variable efield equal 1e-2*36.36
fix born all addbornforce 0.0 0.0 ${efield}
fix born all addbornforce 0.0 0.0 0.3636

thermo 10
min_style fire
#minimize 0.0 1e-6 100 100
velocity all create ${TEMP} ${SEED} dist gaussian rot yes mom yes
velocity all create 300 ${SEED} dist gaussian rot yes mom yes
velocity all create 300 22030 dist gaussian rot yes mom yes
fix nvt all nvt temp ${TEMP} ${TEMP} $(100*dt)
fix nvt all nvt temp 300 ${TEMP} $(100*dt)
fix nvt all nvt temp 300 300 $(100*dt)
fix nvt all nvt temp 300 300 0.2000000000000000111
run 5000
Neighbor list info ...
  update: every = 1 steps, delay = 0 steps, check = yes
  max neighbors/atom: 2000, page size: 100000
  master list distance cutoff = 8
  ghost atom cutoff = 8
  binsize = 8, bins = 3 3 4
  1 neighbor lists, perpetual/occasional/extra = 1 0 0
  (1) pair allegro/kk, perpetual
      attributes: full, newton on, kokkos_device
      pair build: full/bin/kk/device
      stencil: full/bin/3d
      bin: kk/device
Per MPI rank memory allocation (min/avg/max) = 3.516 | 3.516 | 3.516 Mbytes
    PotEng          Fmax          Fnorm          S/CPU         CPULeft    
-807708.29      1.5957881      37.04292       0              0            
-807645.15      3.1597989      46.239876      2.3156992      2154.857     
-807636.3       2.6117081      35.806621      25.904588      1171.3913    
-807606.07      3.47445        38.853735      25.925484      843.2605     
-807603.7       4.3681975      51.156306      25.837089      679.16587    
-807565.72      4.5940545      41.45262       25.834965      580.55743    
-807604.41      2.9704001      38.825925      25.93159       514.5707     
-807645.64      3.992267       34.802175      25.961437      467.29591    
-807686.23      2.5550756      34.383656      25.912573      431.78819    
-807666.61      3.5638504      34.641443      25.899877      404.09564    
-807656.34      3.7117359      33.229868      25.970989      381.81258    
-807660.39      2.6627854      26.642519      25.941717      363.53029    
-807630.82      2.6593923      29.913671      25.932401      348.23643    
-807585.36      3.4785363      38.30916       25.934627      335.23491    
-807572.61      3.1063882      36.537332      25.967226      324.01886    
-807633.05      3.3568222      31.145933      25.945903      314.25717    
-807656.85      3.0188438      28.943428      25.950682      305.66537    
-807665.49      3.014567       32.897379      25.9495        298.03953    
-807650.3       4.1956267      42.667671      25.977828      291.20694    
-807681.36      2.6800914      35.237458      25.919253      285.07506    
-807643.15      3.6229148      38.334933      25.924466      279.51594    
-807616.61      2.7210631      38.38492       25.964836      274.43583    
-807564.65      4.0685557      44.890292      25.988844      269.77482    
-807607.11      3.8124912      48.59321       25.946168      265.49877    
-807615.13      4.3189207      38.423706      25.905719      261.55888    
-807642.84      3.3089021      35.498323      25.969668      257.88524    
-807644.39      4.716077       45.307338      25.950214      254.46983    
-807683.9       2.813946       37.687956      25.898787      251.29227    
-807662.18      3.8368018      35.845791      25.867796      248.3219     
-807640.4       2.983428       31.641608      25.942466      245.51165    
-807606.26      4.3160522      34.542504      25.963445      242.85817    
-807607.04      3.8003989      43.014142      25.924026      240.3599     
-807596.15      3.5113312      36.113392      25.876921      238.00393    
-807612         3.250529       33.545085      25.97233       235.74723    
-807642.99      3.2042775      30.780852      25.957835      233.60358    
-807676.21      2.7267259      31.813022      25.945702      231.5628     
-807676.81      2.5935417      31.452771      25.852437      229.63191    
-807647.45      4.0104505      35.976128      25.942229      227.76773    
-807649.01      2.6310501      29.05454       25.955128      225.97905    
-807624.35      3.3082628      32.548038      25.950108      224.26321    
-807601.07      3.7297574      41.447064      25.923146      222.61851    
-807572.83      4.15622        39.919233      25.942094      221.03207    
-807626.99      2.9162553      33.69078       25.950515      219.50145    
-807653.76      3.8504899      33.615932      25.929621      218.02741    
-807674.12      2.7030757      33.937464      25.917374      216.60472    
-807644.23      4.58052        45.16          25.966068      215.2208     
-807669.23      2.5935173      34.235073      25.9239        213.88648    
-807645.33      3.4379206      35.844205      25.920601      212.59301    
-807624.55      3.0313264      37.561776      25.934451      211.33541    
-807565.03      3.7381099      43.375003      25.945775      210.11186    
-807604.57      3.8307494      42.922377      25.925734      208.92451    
-807624.69      3.7265326      35.159482      25.892692      207.77294    
-807656.05      3.188144       32.252563      25.950465      206.64339    
-807643.32      4.494814       41.917282      25.970208      205.53946    
-807675.65      3.0679985      34.364417      25.913531      204.46911    
-807665.44      3.3708885      33.273138      25.855295      203.43068    
-807644.84      3.1054952      29.849342      25.902284      202.40996    
-807599.31      3.7350374      35.00958       25.962836      201.40451    
-807600.58      3.7616753      38.575457      25.927046      200.4245     
-807605.77      3.4293256      37.259251      25.919061      199.46552    
-807624.6       2.8061862      31.393502      25.938085      198.52358    
-807637.96      3.5072969      32.897157      25.948338      197.59878    
-807667.85      2.7763977      32.438296      25.928063      196.69351    
-807676.43      2.7665222      34.09155       25.829146      195.81498    
-807648.79      3.8553433      36.471377      25.873107      194.94733    
-807635.28      2.7624358      32.326975      25.952291      194.08659    
-807616.46      3.354305       34.282815      25.941962      193.24126    
-807605.73      3.942969       43.513984      25.882787      192.41536    
-807583.24      4.0904343      39.463631      25.935567      191.59739    
-807620.12      2.6674958      34.994998      25.926312      190.79281    
-807648.16      3.5817051      35.706674      25.944488      189.99854    
-807675.65      2.6432188      35.220832      25.876809      189.22188    
-807649.15      4.4816892      41.18944       25.871361      188.45654    
-807654.95      2.6183784      34.247479      25.933652      187.69615    
-807642.88      3.1021605      33.179711      25.927732      186.94639    
-807626.41      3.3984483      37.027734      25.914387      186.20747    
-807576.11      3.9200548      38.738479      25.963196      185.47379    
-807595.38      3.5693614      39.205175      25.959844      184.74944    
-807629.81      3.4440475      32.384159      25.950575      184.03453    
-807661.38      2.4767216      31.657775      25.945757      183.32834    
-807649.88      3.9248255      37.582119      25.938071      182.63077    
-807661.09      3.3684853      34.841895      25.856223      181.94722    
-807664.46      3.1064388      32.527264      25.900097      181.26757    
-807644.65      3.3715957      31.304412      25.93227       180.59259    
-807601.39      3.0912049      35.806923      25.93911       179.92399    
-807588.53      3.8157864      37.627182      25.944082      179.26169    
-807609.9       3.8535042      37.506         25.906027      178.60856    
-807632.09      3.167844       31.189061      25.908624      177.96138    
-807641.9       3.1464545      32.229499      25.93702       177.31816    
-807657.38      3.4277988      34.328124      25.936522      176.68076    
-807673.9       2.4326104      33.622937      25.885579      176.05242    
-807653.34      3.3382535      33.813078      25.901835      175.42831    
-807630.51      2.8530391      32.400583      25.960649      174.80549    
-807606.56      3.4843133      35.52414       25.969588      174.18721    
-807606.88      3.9374494      42.417206      25.901113      173.57828    
-807598.09      3.8066781      37.382189      25.863036      172.97647    
-807618.75      2.9364933      34.153757      25.947722      172.37383    
-807644.39      4.6069393      34.753323      25.924537      171.7771     
-807672.62      3.0059617      34.70605       25.897088      171.18635    
-807656.58      4.0939555      36.899306      25.868348      170.60147    
-807647.93      3.3105576      33.665773      25.936212      170.01652    
-807635.22      4.5744194      32.844594      25.930054      169.43588    
-807625         3.7011966      36.831169      25.902732      168.86064    
-807589.41      3.8046975      38.110382      25.905798      168.2889     
-807593.29      3.2550709      38.199951      25.937295      167.71895    
-807628.58      3.4396339      32.095334      25.921872      167.15338    
-807662.04      2.7882212      31.859901      25.924945      166.59103    
-807657.59      3.1135222      34.446901      25.949864      166.03061    
-807654.12      4.0038854      35.142987      25.954875      165.47317    
-807657.95      3.1250183      31.467865      25.93867       164.91976    
-807643.96      3.159574       31.634509      25.885257      164.37221    
-807607.91      3.0072528      35.41969       25.924021      163.82555    
-807582.53      3.4242418      39.006264      25.949437      163.28045    
-807610.76      3.6186899      36.430751      25.889588      162.74123    
-807637.22      3.547017       32.761838      25.919038      162.2032     
-807650.28      3.7255272      33.183762      25.871681      161.67019    
-807649.5       4.4653688      37.809056      25.900743      161.13827    
-807668.17      2.5742444      34.135091      25.908367      160.60847    
-807654.44      3.7649854      34.231456      25.888747      160.08205    
-807631.05      2.5826693      32.73786       25.835822      159.56052    
-807596.72      3.8065865      36.444224      25.899761      159.03821    
-807605.29      3.2970662      39.887963      25.910557      158.51764    
-807610.14      2.8620755      34.951048      25.918656      157.99891    
-807630.19      3.1484294      32.205977      25.939427      157.48139    
-807641.17      3.3773583      34.914444      25.89766       156.96789    
-807667.29      2.7835459      34.037762      25.877461      156.45733    
-807660.41      3.3027101      34.389597      25.775496      155.95328    
-807645.22      3.1928258      33.561687      25.903303      155.44543    
-807623.58      4.6403116      34.391282      25.939114      154.93794    
-807618.86      3.1962878      36.178756      25.856743      154.43587    
-807600.29      3.1719933      37.299638      25.869703      153.93502    
-807603         3.3566295      36.301098      25.906035      153.43439    
-807626.79      2.7981613      32.785031      25.929902      152.93451    
-807657.75      3.1996949      32.513024      25.893719      152.43783    
-807661.32      2.913403       33.713332      25.887783      151.94304    
-807650.56      2.6473217      34.285697      25.873723      151.45043    
-807647.16      3.3890802      31.837109      25.843151      150.9606     
-807636.97      2.7567461      31.677065      25.886695      150.47055    
-807612.83      3.1213134      35.051575      25.928191      149.98038    
-807589.31      3.7571471      37.10346       25.931491      149.49159    
-807608.86      3.3002086      35.325597      25.957908      149.00326    
-807638.84      3.5612127      33.183512      25.929555      148.51746    
-807655.38      3.164088       32.832867      25.875535      148.03511    
-807648.75      4.2921871      36.369997      25.919022      147.55248    
-807657.41      3.3049922      33.812675      25.849987      147.07374    
-807651.34      2.9727638      32.474771      25.784586      146.59867    
-807633.18      3.3354215      31.793548      25.844353      146.12262    
-807593.9       3.300811       36.429071      25.898857      145.64583    
-807601.6       3.8367196      37.438221      25.916045      145.16965    
-807616.87      4.642273       34.394153      25.925062      144.69437    
-807639.33      2.8289505      31.775142      25.92587       144.22026    
-807641.7       4.3045858      35.232727      25.939062      143.74686    
-807661.34      2.6893996      33.006721      25.887         143.2764     
-807659.52      3.6168281      33.655583      25.867337      142.8077     
-807646.83      2.8503355      31.963698      25.869149      142.34001    
-807616.74      3.1016598      33.590985      25.906398      141.87212    
-807609.36      3.5849594      35.607011      25.916654      141.40495    
-807604.15      3.2568077      36.856057      25.924135      140.93858    
-807615.69      2.7345124      33.418902      25.894099      140.47419    
-807628.86      3.0774133      32.358688      25.92018       140.00995    
-807654.37      3.5357819      31.656333      25.900635      139.54731    
-807662.54      2.8598166      32.666093      25.89485       139.0858     
-807653.17      3.6667566      32.757255      25.822381      138.62749    
-807638.33      3.4451625      32.387058      25.862867      138.16879    
-807626.83      3.7711688      32.777907      25.912964      137.70944    
-807611.94      3.1954335      36.343561      25.920114      137.25077    
-807598.14      3.1455026      35.337951      25.897977      136.79363    
-807611.29      2.588548       33.489679      25.927166      136.33648    
-807637.9       2.668056       31.021175      25.896669      135.88108    
-807659.05      2.5518369      31.46792       25.851436      135.42782    
-807652.95      3.6357953      34.179964      25.893411      134.97412    
-807650.71      3.5295425      32.657925      25.916538      134.52055    
-807643.5       3.2730082      31.849785      25.890632      134.06851    
-807631.54      2.9290537      32.607104      25.866891      133.61789    
-807600.83      3.8279828      35.018683      25.919548      133.16654    
-807600.98      3.2817464      36.121837      25.894556      132.71663    
-807621.49      3.9467381      32.936771      25.86598       132.26823    
-807646.33      2.84775        32.051474      25.879371      131.82017    
-807648.02      4.167382       34.080864      25.890227      131.3725     
-807654.73      3.4435169      33.786312      25.927913      130.92451    
-807655.81      3.5676044      32.778947      25.905268      130.47782    
-807645.18      2.844749       31.165038      25.909367      130.03168    
-807617.62      3.6245278      32.426417      25.890314      129.58671    
-807602.72      2.4219843      34.175859      25.942406      129.14103    
-807608.29      3.3954248      35.411126      25.90106       128.69707    
-807626.67      2.671357       32.219567      25.898232      128.2538     
-807637.6       2.7960723      32.323915      25.88933       127.81137    
-807649.48      2.9081695      33.027292      25.913755      127.36893    
-807662.1       3.1356976      32.965736      25.906644      126.92727    
-807651.79      2.8351949      33.17302       25.856152      126.48744    
-807635.5       2.8212386      31.945279      25.859834      126.04807    
-807618.17      2.4085021      32.324545      25.887241      125.6086     
-807610.35      2.8084686      35.654327      25.848881      125.1706     
-807608.64      2.7715063      35.057436      25.833583      124.73349    
-807619.87      2.6105384      32.789029      25.840549      124.29674    
-807639.13      2.4832706      32.405144      25.862528      123.85998    
-807656.53      3.1038419      33.957204      25.876658      123.4234     
-807653.3       3.2528689      34.910171      25.854367      122.98785    
-807645.41      3.0472078      33.146859      25.876845      122.55228    
-807632.96      3.5765969      33.309477      25.911406      122.11642    
-807624.02      3.6377196      33.895265      25.879413      121.68177    
-807604.6       3.225166       36.045151      25.896213      121.24723    
-807605.15      2.7468893      35.361637      25.885837      120.8134     
-807625.47      3.120379       31.985924      25.882301      120.38012    
-807645.48      2.6686489      32.344495      25.83986       119.94821    
-807650.46      3.8035332      33.749982      25.851823      119.51649    
-807648.42      3.0172733      34.495417      25.8315        119.08564    
-807646.09      3.3743491      33.591144      25.886446      118.65404    
-807637.86      3.5593011      32.464066      25.869607      118.22324    
-807616.78      3.6116965      33.937124      25.900365      117.79222    
-807601.05      3.310697       36.128606      25.901873      117.36159    
-807609.55      3.8579579      35.81937       25.855005      116.93235    
-807630.51      2.6308291      32.424583      25.886885      116.50286    
-807641.85      2.86191        32.873183      25.90943       116.07332    
-807646.85      3.593678       34.342154      25.927193      115.64384    
-807652.87      2.8148932      33.590424      25.86972       115.2159     
-807649.16      2.2966928      31.829332      25.866824      114.7884     
-807633.43      3.5297487      31.954898      25.867791      114.36126    
-807610.37      2.6583105      33.779746      25.888739      113.93408    
-807608.39      2.8310199      35.247178      25.831938      113.50837    
-807612.08      3.6126812      34.960409      25.860035      113.08248    
-807629.63      2.8275049      31.880557      25.862462      112.65689    
-807639.52      3.2685508      33.283918      25.892047      112.2311     
-807654.98      2.8845481      33.240602      25.917718      111.80519    
-807653.1       2.977466       34.040106      25.856093      111.38077    
-807644.91      3.1833404      32.795912      25.817383      110.9574     
-807626.71      2.9918433      32.896572      25.897         110.5329     
-807618.83      2.5174089      33.869922      25.898079      110.10872    
-807607.73      3.1267187      35.017995      25.898765      109.68486    
-807612.41      2.9436214      34.305218      25.870837      109.26182    
-807626.89      2.8584891      32.844326      25.895769      108.83866    
-807648.83      3.3585691      31.880812      25.886307      108.41599    
-807652.85      2.7929741      33.25522       25.878732      107.99376    
-807648.84      4.3125594      33.72424       25.854578      107.57226    
-807641.63      3.3980301      32.930446      25.830884      107.15145    
-807632.31      3.2309898      32.471404      25.816975      106.73117    
-807616.96      3.0567545      33.811958      25.891585      106.30991    
-807604.9       3.5600981      35.437523      25.880662      105.88914    
-807614.93      2.9926352      33.566959      25.924729      105.46792    
-807634.34      2.5884839      31.681575      25.926846      105.04697    
-807646.9       3.0548561      31.951564      25.912888      104.62654    
-807649.1       3.4235379      33.09686       25.878549      104.20695    
-807649.09      2.5397355      32.247405      25.85326       103.78804    
-807644.69      3.178147       31.705948      25.76852       103.37073    
-807630.68      2.7353596      32.27643       25.907748      102.95147    
-807611.39      2.7788534      33.608202      25.923088      102.53225    
-807607.45      2.8338679      35.746029      25.917445      102.11339    
-807619.78      3.0693976      34.517015      25.902586      101.69502    
-807635.57      2.8274829      32.45908       25.943228      101.2763     
-807640.82      3.8443254      34.335658      25.936661      100.85794    
-807652.15      2.9145807      32.731533      25.835988      100.44135    
-807649.5       3.1231626      33.314159      25.848786      100.0248     
-807643.42      3.411827       31.815515      25.815345      99.608986    
-807622.01      3.4567833      32.706994      25.883567      99.192396    
-807612.52      2.8803524      34.543044      25.905251      98.775731    
-807608.38      3.1913051      35.668314      25.876722      98.359716    
-807620.62      3.2550768      33.810594      25.90445       97.943537    
-807631.25      4.0069202      33.002951      25.891722      97.527772    
-807647.18      2.5744571      32.575786      25.877201      97.112439    
-807650.77      3.4167894      33.63434       25.846356      96.697759    
-807648.17      3.3856469      33.117003      25.8467        96.283288    
-807636.28      3.672628       32.56118       25.881302      95.868554    
-807622.69      3.2349044      32.787894      25.911661      95.453625    
-807613.39      2.8462836      34.682261      25.901405      95.039055    
-807607.66      3.8320768      35.966984      25.880944      94.624973    
-807617.18      3.521406       33.733977      25.871762      94.211222    
-807635.15      3.9515044      33.371771      25.860417      93.797825    
-807649.21      2.9628796      33.069753      25.847094      93.384802    
-807648.11      3.6258507      34.406561      25.838841      92.972081    
-807643.56      3.2766609      33.898149      25.838739      92.559552    
-807637.27      3.4245822      33.247276      25.888366      92.14658     
-807625.68      3.6120755      33.978577      25.887757      91.733813    
-807607.99      3.3131604      35.076908      25.897993      91.321113    
-807609.83      4.3813134      35.298574      25.924385      90.908281    
-807622.29      2.9801314      33.779662      25.91887       90.495714    
-807639.37      4.4350601      33.135396      25.891204      90.083679    
-807644.66      3.2687129      33.539646      25.914388      89.67155     
-807650.2       2.6951524      33.442189      25.850827      89.260375    
-807646.38      3.2394388      33.014245      25.883171      88.848989    
-807638.8       3.5356231      32.91803       25.867429      88.437968    
-807621.23      3.3827455      33.666115      25.887027      88.026892    
-807609.93      3.4144731      35.358693      25.903583      87.6158      
-807612.24      3.139981       34.721871      25.870421      87.205269    
-807626.88      2.9312061      33.687889      25.846954      86.795176    
-807637.86      2.6691047      32.833192      25.880654      86.384863    
-807645.02      3.4685767      33.948768      25.873064      85.974803    
-807651.09      3.4062555      33.337488      25.893403      85.564681    
-807644.76      3.4362047      33.542394      25.904326      85.154605    
-807633.92      3.615097       32.461174      25.922337      84.744499    
-807619.29      2.9315358      33.784683      25.93313       84.334443    
-807610.96      3.1855875      35.354714      25.911205      83.924793    
-807616.51      3.6447961      34.733947      25.916662      83.515247    
-807627.43      3.5012252      32.663827      25.921826      83.105809    
-807639.72      2.8057975      32.048116      25.897336      82.69679     
-807648.55      3.2510809      32.459389      25.876718      82.288142    
-807649.63      2.7359521      32.772152      25.843002      81.879995    
-807643.41      2.9885761      31.951547      25.851304      81.471906    
-807630.85      2.4771871      31.865656      25.882367      81.063642    
-807620.52      2.7791444      32.921675      25.905903      80.655288    
-807612.37      3.7893083      34.618949      25.844393      80.2477      
-807616.07      3.6381379      34.452544      25.912227      79.839575    
-807629.51      3.7044756      32.379457      25.914402      79.431576    
-807641.97      2.9591792      32.804376      25.91118       79.023755    
-807648.21      4.4843017      33.625809      25.911348      78.616077    
-807646.14      3.4327436      34.267824      25.903257      78.20862     
-807640.78      3.6091655      34.149701      25.898798      77.801345    
-807629.91      3.3697077      33.909868      25.906915      77.394132    
-807617.75      4.1751054      35.29028       25.900684      76.987116    
-807610.58      3.0547072      35.866903      25.880096      76.580427    
-807617.73      4.9478875      34.51715       25.918778      76.173513    
-807631.72      3.5350341      32.665108      25.873069      75.767153    
-807640.59      4.1644449      33.409594      25.84196       75.361203    
-807648.2       3.1301451      33.022212      25.855167      74.955256    
-807648.01      3.2246709      32.927822      25.870853      74.549291    
-807640.23      3.6235542      32.587913      25.911151      74.143094    
-807629.28      3.1029461      32.055404      25.879454      73.737303    
-807614.91      3.2762311      34.549272      25.918621      73.331295    
-807610.58      3.38975        34.523109      25.925651      72.925354    
-807617.12      3.7252248      34.082195      25.930878      72.519495    
-807630.82      3.184166       33.208237      25.975691      72.113386    
-807641.89      2.8657958      32.76445       25.917463      71.707895    
-807646.27      2.9525686      33.887411      25.927908      71.302441    
-807645.77      3.1776267      33.381428      25.883282      70.897476    
-807638.87      2.6531943      33.110016      25.910818      70.492402    
-807624.02      3.0342984      34.142026      25.875632      70.087731    
-807612.85      2.8745485      35.47378       25.91347       69.682868    
-807611.15      2.9355989      35.558644      25.934806      69.277952    
-807619.55      3.0832289      35.346339      25.914114      68.873317    
-807633.19      3.0689575      32.363318      25.932687      68.468652    
-807642.73      2.735098       33.425139      25.92608       68.064153    
-807644.92      3.1379081      33.856863      25.912569      67.659872    
-807645.86      2.8357498      32.616374      25.919746      67.255647    
-807633.2       3.4362816      33.484998      25.91944       66.851536    
-807624.19      2.7083305      32.929914      25.920854      66.447524    
-807613.87      2.940972       34.636062      25.932986      66.043531    
-807614.75      2.5494189      33.786187      25.921089      65.639735    
-807622.44      2.8306298      33.502284      25.932431      65.235965    
-807635.07      2.9036665      32.569911      25.957561      64.832121    
-807644.09      3.2057515      32.935338      25.942577      64.428494    
-807646.69      3.2890327      33.568573      25.918542      64.025144    
-807641.99      3.5102093      33.769477      25.887659      63.622113    
-807635.32      2.7707126      33.556378      25.895235      63.219128    
-807623.47      2.7197395      33.363928      25.881741      62.816335    
-807613.88      2.9533195      35.15552       25.90117       62.413505    
-807615.24      2.9126286      34.481964      25.88667       62.010869    
-807623.49      2.4523087      33.767112      25.940438      61.607969    
-807635.63      3.0417842      33.494136      25.961463      61.205031    
-807643.94      3.0821646      33.6284        25.92753       60.802417    
-807647.13      3.5885073      32.997354      25.913543      60.399992    
-807642.34      3.0314977      32.890186      25.9406        59.997486    
-807634.97      2.8576797      32.773952      25.880409      59.595463    
-807622.58      2.4922112      33.745769      25.920455      59.193275    
-807615.47      3.6469775      33.949751      25.951821      58.790984    
-807615.16      3.1451452      34.592414      25.932483      58.388909    
-807626.56      2.5899815      33.211426      25.976766      57.986655    
-807636.88      3.3179516      33.126303      25.946267      57.584684    
-807644.42      4.1806825      32.945151      25.924652      57.182936    
-807645.46      4.0614261      34.08301       25.912386      56.781351    
-807642.84      3.3411262      32.378142      25.894453      56.37996     
-807633.45      3.3275069      33.197623      25.931218      55.978438    
-807621.45      3.06916        33.98614       25.960712      55.576834    
-807614.48      3.406698       34.782767      25.935423      55.175465    
-807619.25      3.2496799      34.154434      25.983187      54.773914    
-807628.24      3.4027446      33.870478      25.938739      54.372703    
-807638.19      2.9758818      32.605238      25.928669      53.971635    
-807644.05      3.6266669      33.354805      25.902243      53.570796    
-807645.1       4.4548621      33.487131      25.880899      53.170155    
-807641.38      2.7098883      32.730602      25.856699      52.769722    
-807630.86      3.0710569      32.519435      25.905745      52.369101    
-807620.26      2.6910501      33.55497       25.932942      51.968416    
-807615.45      3.0997042      34.745311      25.924647      51.567855    
-807622.59      2.6977158      33.204495      25.932439      51.167334    
-807629.42      2.9937047      33.444869      25.949189      50.766808    
-807639.04      3.3086773      33.23841       25.917371      50.366524    
-807644.77      3.4306238      33.664401      25.931698      49.966245    
-807645.51      3.4653211      33.016225      25.934754      49.56603     
-807637.09      3.1399831      32.960857      25.913294      49.165997    
-807630.83      4.1214222      32.76409       25.931201      48.765953    
-807620.36      3.1872969      33.693714      25.963738      48.365828    
-807617.63      3.040465       33.273794      25.925776      47.965963    
-807619.45      3.4512628      34.504484      25.961451      47.566005    
-807631.48      2.9212607      33.128453      25.9227        47.166304    
-807639.83      3.386145       34.014545      25.951973      46.766542    
-807644.22      2.7116578      34.27425       25.929457      46.366958    
-807642.16      3.1679834      34.947124      25.930046      45.967443    
-807637.65      3.8102331      34.373898      25.914054      45.568071    
-807629.43      2.7313358      34.581597      25.947639      45.168622    
-807620.01      4.1706744      34.596758      25.96012       44.769191    
-807615.73      2.9732474      34.714355      25.880134      44.370178    
-807618.09      3.1568321      34.629114      25.872666      43.971261    
-807631.33      2.8147045      33.075931      25.924454      43.572189    
-807640.82      3.0641439      32.475241      25.919071      43.173209    
-807642.56      2.8518897      33.388716      25.902086      42.774365    
-807643.53      2.9470418      33.212095      25.875198      42.375695    
-807637.27      3.0515033      34.030017      25.917983      41.976916    
-807628.15      3.1525577      33.577324      25.920075      41.578194    
-807616.98      3.2104645      34.458829      25.942645      41.179449    
-807614.88      3.0495217      35.108135      25.901137      40.780932    
-807621.73      2.9152372      33.856786      25.922532      40.382395    
-807631.03      3.1280863      33.08004       25.928653      39.983899    
-807640.66      2.8983699      32.537724      25.935176      39.585443    
-807642.77      3.3649098      34.382518      25.936584      39.187046    
-807643.99      4.5257983      33.084952      25.94496       38.788682    
-807635.97      3.5826082      33.266837      25.925069      38.390454    
-807625.7       6.3182111      34.424394      25.977945      37.992101    
-807619.2       3.9353267      34.384405      25.925991      37.593996    
-807616.37      5.3623721      35.558418      25.937408      37.195912    
-807624.35      3.4791648      33.908974      25.931297      36.797911    
-807631.23      3.7832005      33.33077       25.983793      36.399794    
-807641.97      2.6826231      32.067408      25.962469      36.001813    
-807644.33      2.7761427      33.42449       25.923984      35.604019    
-807641.77      3.1588737      33.271412      25.917058      35.206307    
-807635.63      3.2168913      32.954111      25.926481      34.808622    
-807627.72      3.154238       32.885798      25.880823      34.411139    
-807622.1       3.5358866      34.536059      25.946781      34.013505    
-807617.66      3.2741846      34.567015      25.901381      33.616069    
-807625.15      3.1155911      33.428067      25.900876      33.218688    
-807633.51      3.2740422      32.913513      25.859528      32.821485    
-807642.04      3.347223       33.251057      25.928019      32.424131    
-807642.8       3.4297111      33.380435      25.928341      32.026833    
-807641.91      3.2649473      33.479541      25.923233      31.629604    
-807635.12      3.0243862      33.292283      25.924048      31.232427    
-807627.52      3.0145201      33.180947      25.928741      30.835292    
-807618.59      3.145485       33.931459      25.934304      30.438195    
-807618.61      3.252602       34.91956       25.971624      30.041054    
-807626.6       2.8457615      32.534294      25.949714      29.644027    
-807636.87      3.0073613      32.233974      25.946211      29.247064    
-807641.53      3.0249664      32.119448      25.918787      28.850224    
-807645.05      2.4413192      31.894767      25.89742       28.45349     
-807641.35      2.8864395      32.658766      25.910126      28.056774    
-807634.63      2.8246853      32.295761      25.934163      27.66005     
-807623.92      3.1776306      33.012116      25.928408      27.263391    
-807616.82      2.7124018      34.212079      25.954127      26.866722    
-807620.88      2.9124088      33.764587      25.96692       26.470077    
-807627.48      3.5459728      33.43049       25.930244      26.073568    
-807636.36      2.545725       32.276199      25.927671      25.677114    
-807641.68      3.308326       33.401853      25.911211      25.280746    
-807644.68      2.8229259      33.168168      25.932391      24.88438     
-807639.79      3.6288577      33.139006      25.90724       24.488116    
-807629.91      3.7263601      33.860275      25.931274      24.09185     
-807623.56      2.8164743      33.31249       25.963917      23.695565    
-807618.69      2.857436       34.263323      25.924132      23.29941     
-807619.41      3.0635003      33.779384      25.971363      22.90321     
-807628.23      2.4881387      32.877144      25.922673      22.507154    
-807637.21      2.5546484      32.644417      25.837657      22.111304    
-807643.26      2.3927778      32.658685      25.838475      21.715492    
-807641.84      3.3809319      32.947551      25.908484      21.319593    
-807637.91      3.3906579      32.389806      25.873287      20.923801    
-807630.65      2.8204796      32.985234      25.884211      20.528031    
-807622.29      2.7514136      33.505839      25.938131      20.132212    
-807616.33      2.7129583      34.770175      25.916147      19.736475    
-807619.18      2.8479099      34.379278      25.920294      19.340775    
-807629.41      2.691879       32.579093      25.875156      18.94519     
-807638.74      2.7666162      32.310808      25.914923      18.549585    
-807642.87      2.8862122      32.82032       25.926782      18.154004    
-807641.07      3.2025092      33.217062      25.923776      17.758471    
-807636.12      2.9605847      33.054855      25.955924      17.362934    
-807629.01      2.7479396      33.543834      25.921598      16.967491    
-807619.24      3.3508264      34.636849      25.920581      16.572091    
-807616.11      3.0244281      34.997298      25.893328      16.17677     
-807619         3.0815505      34.922314      25.895006      15.781486    
-807630.57      3.1451259      33.862064      25.941734      15.386182    
-807639.16      3.0483728      33.610866      25.959388      14.9909      
-807639.4       2.9314223      34.27107       25.947228      14.595675    
-807641.57      2.6233895      33.838492      25.934293      14.200508    
-807635.27      3.0425837      34.355894      25.943057      13.805372    
-807626.64      4.2186213      34.435659      25.969706      13.410249    
-807617.63      2.798472       35.253501      25.959431      13.015179    
-807614.27      3.2229294      35.594361      25.918511      12.620194    
-807621.05      3.3068486      35.14403       25.953655      12.225213    
-807631.27      3.9050874      33.562284      25.982549      11.830245    
-807636.32      2.9745298      34.426135      26.132474      11.435185    
-807642.04      3.7502526      33.941223      26.072638      11.040229    
-807640.39      2.6812305      34.1431        26.018679      10.645367    
-807635.37      4.232618       34.542088      26.051847      10.250522    
-807625.67      3.2520094      34.353569      26.055974      9.8557209    
-807618.38      4.4827286      35.181357      26.055822      9.4609658    
-807618.54      4.10319        34.692895      26.032162      9.0662735    
-807623.68      3.9549393      34.207621      26.050219      8.6716131    
-807632.42      2.9259535      33.064077      26.112857      8.2769574    
-807638.38      3.5552946      33.871058      26.064397      7.88238      
-807642.05      2.9871917      33.921614      26.002894      7.4878839    
-807639.26      3.6471375      33.913753      26.062451      7.0933962    
-807634.12      3.455056       33.691889      26.054482      6.6989573    
-807627.08      2.8050701      33.945188      26.122974      6.304529     
-807621.24      2.8905411      34.184834      26.120703      5.9101497    
-807618.98      2.8681206      35.196811      26.124509      5.5158163    
-807625.42      2.8994873      33.755282      26.141995      5.1215235    
-807632.84      3.5457298      33.927889      26.128896      4.7272836    
-807641.09      3.4272953      33.253548      26.110943      4.3330968    
-807641.5       4.297939       33.730102      26.011535      3.9389856    
-807640.43      3.8776521      33.718557      25.997086      3.5449177    
-807634.6       2.5770658      33.372987      26.049918      3.1508753    
-807626.06      3.3451014      34.144904      26.019879      2.7568805    
-807619.15      2.8816899      34.800486      26.04146       2.3629209    
-807619.97      3.2076118      34.444915      26.036165      1.9690024    
-807626.23      2.7576325      34.003972      26.028798      1.5751244    
-807634.2       3.562138       33.695038      26.049959      1.1812835    
-807640.48      2.8530454      33.053463      26.02513       0.78748413   
-807642.36      3.0477166      32.668679      26.059743      0.39372201   
-807639.8       2.7609772      32.785616      26.024353      0            
Loop time of 196.851 on 32 procs for 5000 steps with 1080 atoms

Performance: 4.389 ns/day, 5.468 hours/ns, 25.400 timesteps/s, 27.432 katom-step/s
78.9% CPU use with 32 MPI tasks x 1 OpenMP threads

MPI task timing breakdown:
Section |  min time  |  avg time  |  max time  |%varavg| %total
---------------------------------------------------------------
Pair    | 101.72     | 145.51     | 192.76     | 309.4 | 73.92
Neigh   | 0          | 0          | 0          |   0.0 |  0.00
Comm    | 1.825      | 49.081     | 92.863     | 532.8 | 24.93
Output  | 0.025423   | 0.026443   | 0.027007   |   0.2 |  0.01
Modify  | 1.9145     | 1.9232     | 1.9339     |   0.3 |  0.98
Other   |            | 0.3128     |            |       |  0.16

Nlocal:          33.75 ave          48 max          21 min
Histogram: 8 8 0 0 0 0 0 8 0 8
Nghost:        1106.25 ave        1119 max        1092 min
Histogram: 8 0 8 0 0 0 0 0 8 8
Neighs:              0 ave           0 max           0 min
Histogram: 32 0 0 0 0 0 0 0 0 0
FullNghs:       5494.5 ave        7896 max        3378 min
Histogram: 8 8 0 0 0 0 0 8 0 8

Total # of neighbors = 175824
Ave neighs/atom = 162.8
Neighbor list builds = 0
Dangerous builds = 0

reset_timestep 0


variable interval equal 1000
thermo 10

variable nintervals equal $(v_PERIOD/v_interval)
variable nintervals equal 100
variable efield equal 1e-2*36.36*cos((step/${PERIOD})*2*3.14)
variable efield equal 1e-2*36.36*cos((step/100000)*2*3.14)
fix born all addbornforce 0.0 0.0 v_efield

variable Px equal f_born[1]+c_polarization[1]
variable Py equal f_born[2]+c_polarization[2]
variable Pz equal (f_born[3]+c_polarization[3])/vol
variable pe equal pe

fix aveP all ave/time 1 $(v_interval/2) ${interval} v_efield v_Pz v_pe f_born file Pz.${MODEL}.${STRUCTURE}.${TEMP}.$L.${ITER}
fix aveP all ave/time 1 500 ${interval} v_efield v_Pz v_pe f_born file Pz.${MODEL}.${STRUCTURE}.${TEMP}.$L.${ITER}
fix aveP all ave/time 1 500 1000 v_efield v_Pz v_pe f_born file Pz.${MODEL}.${STRUCTURE}.${TEMP}.$L.${ITER}
fix aveP all ave/time 1 500 1000 v_efield v_Pz v_pe f_born file Pz.BaTiO3-E0.${STRUCTURE}.${TEMP}.$L.${ITER}
fix aveP all ave/time 1 500 1000 v_efield v_Pz v_pe f_born file Pz.BaTiO3-E0.BaTiO3-sc333.${TEMP}.$L.${ITER}
fix aveP all ave/time 1 500 1000 v_efield v_Pz v_pe f_born file Pz.BaTiO3-E0.BaTiO3-sc333.300.$L.${ITER}
fix aveP all ave/time 1 500 1000 v_efield v_Pz v_pe f_born file Pz.BaTiO3-E0.BaTiO3-sc333.300.2.${ITER}
fix aveP all ave/time 1 500 1000 v_efield v_Pz v_pe f_born file Pz.BaTiO3-E0.BaTiO3-sc333.300.2.6

thermo_style custom step time temp press pe f_born v_efield v_Pz spcpu cpuremain

# dump 4a all custom 1000 dump.hyst.${MODEL}.${STRUCTURE}.${TEMP}.$L.${ITER}.bin id type xu yu zu fx fy fz
# dump_modify 4a sort id

fix nvt all nvt temp ${TEMP} ${TEMP} $(100*dt)
fix nvt all nvt temp 300 ${TEMP} $(100*dt)
fix nvt all nvt temp 300 300 $(100*dt)
fix nvt all nvt temp 300 300 0.2000000000000000111

run $(v_PERIOD)
run 100000
WARNING: non-constant efield is experimental, strongly distrust scalar/vector output (src/fix_addbornforce.cpp:193)
Per MPI rank memory allocation (min/avg/max) = 3.516 | 3.516 | 3.516 Mbytes
   Step          Time           Temp          Press          PotEng         f_born        v_efield         v_Pz          S/CPU         CPULeft    
         0   0              295.70192      126191.12     -807639.8      -295.38288      0.3636         0.055553186    0              0            
        10   0.02           301.56429      132368.04     -807633.7      -302.28298      0.36359993     0.05685091     29.242529      3419.3421    
        20   0.04           305.8254       138733.15     -807626.21     -310.4354       0.36359971     0.058384185    29.278003      3416.9255    
        30   0.06           293.82876      142734.6      -807619.31     -315.68616      0.36359935     0.059371764    29.237814      3417.4563    
        40   0.08           304.66146      140993.68     -807622.98     -313.51152      0.36359885     0.058962857    29.251629      3417.1472    
        50   0.1            299.40935      135785.76     -807628.95     -306.76908      0.36359821     0.057694892    29.262282      3416.5763    
        60   0.12           307.05577      131567.28     -807635.81     -300.90344      0.36359742     0.056591849    29.221002      3416.886     
        70   0.14           282.61096      125676.95     -807639.06     -294.24203      0.36359649     0.055339159    29.232641      3416.8147    
        80   0.16           301.66791      125517.45     -807643.44     -292.38459      0.36359541     0.054989985    29.262172      3416.2445    
        90   0.18           293.03155      126916.16     -807639.16     -295.45311      0.36359419     0.05556728     29.3023        3415.2057    
       100   0.2            303.41999      135265.46     -807630        -305.9818       0.36359283     0.057547677    29.312249      3414.1907    
       110   0.22           297.19237      139047.12     -807623.57     -311.56546      0.36359132     0.05859807     29.268661      3413.7595    
       120   0.24           295.3218       143254.56     -807620.68     -313.97432      0.36358968     0.059051387    29.259013      3413.4371    
       130   0.26           298.66546      139447.82     -807623.9      -311.16626      0.36358788     0.058523545    29.269407      3413.0183    
       140   0.28           293.13864      137911.03     -807625.17     -308.90652      0.36358595     0.058098845    29.270899      3412.5983    
       150   0.3            301.29897      129183.7      -807636.2      -298.8994       0.36358387     0.056217038    29.211482      3412.6512    
       160   0.32           297.15722      126491        -807641.23     -292.94815      0.36358165     0.055098063    29.166988      3412.9805    
       170   0.34           297.71859      124372.63     -807641.94     -292.12382      0.36357928     0.05494338     29.201395      3412.9937    
       180   0.36           304.80089      129972.86     -807635.67     -299.1561       0.36357677     0.056266417    29.233368      3412.7594    
       190   0.38           308.28715      134156.81     -807629.78     -305.31727      0.36357412     0.057425651    29.16348       3412.9446    
       200   0.4            305.94839      141077.18     -807622.74     -311.69636      0.36357132     0.058625914    29.12347       3413.312     
       210   0.42           311.44738      141260.07     -807621.38     -313.59557      0.36356838     0.058983607    29.183332      3413.277     
       220   0.44           311.84034      141225.59     -807621.37     -313.30262      0.3635653      0.058929006    29.24085       3412.9084    
       230   0.46           309.2546       135089.76     -807628.26     -305.83109      0.36356207     0.057524199    29.240461      3412.544     
       240   0.48           308.00952      129497.88     -807636.17     -297.44462      0.3635587      0.055947295    29.28123       3411.9836    
       250   0.5            307.12788      126313.74     -807640.37     -292.9041       0.36355519     0.055093786    29.304097      3411.3343    
       260   0.52           294.1351       126433.35     -807636.97     -294.35786      0.36355153     0.055367788    29.303349      3410.7121    
       270   0.54           312.75632      130570.44     -807635        -298.80467      0.36354773     0.056204807    29.302602      3410.1139    
       280   0.56           309.68707      135055.55     -807628.46     -304.829        0.36354379     0.057338598    29.267345      3409.6805    
       290   0.58           313.75417      141669.83     -807621.13     -312.66991      0.3635397      0.05881414     29.247844      3409.3317    
       300   0.6            317.53659      141662.04     -807620.59     -313.76235      0.36353547     0.059020319    29.255487      3408.9537    
       310   0.62           308.62469      140569.86     -807621.19     -311.86155      0.3635311      0.058663475    29.222575      3408.7019    
       320   0.64           318.40319      133472.68     -807631.87     -302.69245      0.36352658     0.056939407    29.252229      3408.3363    
       330   0.66           301.25671      130298.7      -807634.25     -297.87756      0.36352192     0.056034397    29.209393      3408.1236    
       340   0.68           303.42582      125075.75     -807639.48     -293.13539      0.36351712     0.055143065    29.166967      3408.0492    
       350   0.7            302.72059      128173.48     -807637.91     -294.63974      0.36351217     0.055426811    29.194214      3407.8684    
       360   0.72           308.79029      129576.68     -807635.36     -298.24419      0.36350708     0.056105655    29.161125      3407.7862    
       370   0.74           317.32677      137205.63     -807628.09     -306.8295       0.36350185     0.057721553    29.17916       3407.6328    
       380   0.76           320.18112      139680.47     -807623.31     -312.27217      0.36349647     0.058746311    29.230785      3407.3108    
       390   0.78           310.5273       142412.71     -807620.7      -313.701        0.36349095     0.059016007    29.237082      3406.9689    
       400   0.8            296.47824      137793.01     -807624.36     -308.37299      0.36348529     0.058014562    29.251251      3406.5858    
       410   0.82           308.2263       132932.97     -807631.37     -303.17806      0.36347948     0.057038145    29.29084       3406.0924    
       420   0.84           299.62414      128060.5      -807636.39     -297.21551      0.36347353     0.055917301    29.314874      3405.5399    
       430   0.86           295.16167      126912.08     -807638.56     -294.59475      0.36346744     0.055425167    29.26011       3405.1451    
       440   0.88           300.60579      127223.97     -807639.56     -294.54948      0.3634612      0.055417601    29.139723      3405.0722    
       450   0.9            309.34863      131586.32     -807633.59     -301.9226       0.36345482     0.056805805    29.279906      3404.6238    
       460   0.92           298.03831      137685.77     -807625.3      -308.84719      0.3634483      0.058109688    29.304173      3404.1188    
       470   0.94           310.652        140885.46     -807623.86     -312.14502      0.36344163     0.058731252    29.28167       3403.6763    
       480   0.96           290.84022      140284.19     -807621.95     -311.35452      0.36343482     0.058583614    29.255375      3403.3017    
       490   0.98           311.18779      136677.01     -807628.19     -308.01833      0.36342786     0.057956994    29.280378      3402.8692    
       500   1              305.15423      132226.58     -807632.65     -302.77826      0.36342077     0.056972132    29.24865       3402.514     
       510   1.02           299.44669      127980.14     -807638.79     -9468.213       0.36341353     0.055675544    29.138361      3402.4118    
       520   1.04           292.04081      126750.02     -807640.51     -9379.2374      0.36340614     0.055153465    29.093639      3402.4013    
       530   1.06           301.66341      127564.62     -807638.17     -9499.4783      0.36339862     0.055861684    29.067255      3402.4367    
       540   1.08           301.98246      132344.19     -807631.9      -9703.7856      0.36339095     0.057064318    29.102054      3402.3823    
       550   1.1            300.90712      136856.35     -807627.08     -9854.1635      0.36338313     0.05794988     29.163039      3402.1874    
       560   1.12           300.19535      140151.23     -807623.65     -9961.9706      0.36337518     0.058585149    29.159685      3401.9943    
       570   1.14           296.33011      140094.14     -807622.3      -9989.3621      0.36336707     0.058747545    29.192334      3401.729     
       580   1.16           298.99212      136691.69     -807626.76     -9858.1113      0.36335883     0.057976973    29.16781       3401.5104    
       590   1.18           298.26254      131267.86     -807633.71     -9631.4146      0.36335044     0.056645044    29.144638      3401.3336    
       600   1.2            295.54594      128468.27     -807638.55     -9461.9925      0.36334191     0.055649932    29.113531      3401.2119    
       610   1.22           293.92212      126075.49     -807638.85     -9447.7367      0.36333324     0.055567414    29.14549       3401.0216    
       620   1.24           296.55352      129219.76     -807636.45     -9535.4039      0.36332442     0.056084395    29.181053      3400.7593    
       630   1.26           299.51225      132985.46     -807633.15     -9656.5518      0.36331546     0.056798352    29.190736      3400.4766    
       640   1.28           302.89901      138128.24     -807626.51     -9883.5301      0.36330636     0.05813486     29.173951      3400.2225    
       650   1.3            306.82123      139489.4      -807623.39     -10001.951      0.36329711     0.058832906    29.207168      3399.9062    
       660   1.32           294.81772      140300.94     -807622.39     -9979.7368      0.36328772     0.058703758    29.230949      3399.5471    
       670   1.34           303.31508      135080.82     -807630.32     -9763.1512      0.36327819     0.057431244    29.251563      3399.1529    
       680   1.36           306.15112      131017.75     -807635.6      -9604.2264      0.36326851     0.056497883    29.228714      3398.7991    
       690   1.38           300.3202       126071.34     -807639.12     -9467.8814      0.36325869     0.055697324    29.222707      3398.4559    
       700   1.4            288.46415      128267.46     -807637.36     -9468.2079      0.36324873     0.055700773    29.237047      3398.0889    
       710   1.42           298.80882      128338.85     -807637.98     -9497.5734      0.36323863     0.055875082    29.228292      3397.7369    
       720   1.44           301.29506      134560.21     -807631.07     -9727.4353      0.36322838     0.057228995    29.22159       3397.396     
       730   1.46           298.85596      138084.9      -807625.09     -9910.2127      0.36321798     0.05830599     29.17575       3397.1281    
       740   1.48           295.30446      141581.24     -807621.18     -10014.273      0.36320745     0.058919933    29.127783      3396.934     
       750   1.5            310.51754      137637.95     -807627.82     -9869.7237      0.36319677     0.058071168    29.142796      3396.7124    
       760   1.52           304.96529      135354.73     -807630.75     -9748.4625      0.36318595     0.057359404    29.124493      3396.5159    
       770   1.54           301.7114       129496.46     -807635.35     -9587.0186      0.36317498     0.056411181    29.105907      3396.3438    
       780   1.56           300.62239      128310.94     -807638.52     -9476.7752      0.36316387     0.055764201    29.086025      3396.1971    
       790   1.58           290.57682      127244.49     -807639.32     -9405.9943      0.36315262     0.055349419    29.067318      3396.0733    
       800   1.6            292.78506      130413.21     -807634.53     -9567.73        0.36314122     0.056302918    29.1338        3395.8466    
       810   1.62           305.71119      134399.99     -807629.64     -9782.241       0.36312968     0.057567073    29.141465      3395.6059    
       820   1.64           302.16397      138692.62     -807624.6      -9924.9843      0.363118       0.058408976    29.146815      3395.3552    
       830   1.66           298.9866       139809.11     -807623.61     -9939.512       0.36310618     0.058496377    29.150599      3395.0969    
       840   1.68           302.80096      138096.26     -807626.61     -9858.3445      0.36309421     0.058020599    29.200734      3394.767     
       850   1.7            301.41283      134489.68     -807629.44     -9759.5174      0.3630821      0.057440875    29.193262      3394.4471    
       860   1.72           306.34028      129540.88     -807636.19     -9560.3484      0.36306984     0.05627054     29.237144      3394.0674    
       870   1.74           300.86079      127660.26     -807639.15     -9435.5502      0.36305745     0.055537896    29.216448      3393.7162    
       880   1.76           308.04101      127153.99     -807639.82     -9443.1502      0.3630449      0.05558455     29.195292      3393.3931    
       890   1.78           300.1609       131592.26     -807632.69     -9635.3485      0.36303222     0.056717855    29.183399      3393.0851    
       900   1.8            304.07436      136546.75     -807627.96     -9800.3798      0.36301939     0.057691339    29.175523      3392.7865    
       910   1.82           315.47339      138600.83     -807626.35     -9899.0701      0.36300642     0.058274376    29.17415       3392.4887    
       920   1.84           297.27276      139961.67     -807623.16     -9916.3585      0.36299331     0.058378259    29.141562      3392.2312    
       930   1.86           303.11001      137142.52     -807625.07     -9877.8415      0.36298005     0.058153631    29.134201      3391.9811    
       940   1.88           312.21172      133884.46     -807631.11     -9719.8191      0.36296665     0.057225421    29.194926      3391.6538    
       950   1.9            306.85773      129592.81     -807636.26     -9526.8531      0.36295311     0.056091427    29.21876       3391.2971    
       960   1.92           305.67792      128573.29     -807638.64     -9440.8384      0.36293942     0.055587093    29.175208      3390.9933    
       970   1.94           291.23431      129751.32     -807634.67     -9501.9128      0.36292559     0.055948827    29.193784      3390.6665    
       980   1.96           310.09544      132383.24     -807632.67     -9647.8517      0.36291162     0.056810326    29.162779      3390.3761    
       990   1.98           315.60285      135957.86     -807629.47     -9771.8672      0.3628975      0.057542816    29.191506      3390.051     
      1000   2              302.44209      140271.25     -807623.13     -9914.774       0.36288325     0.058386635    28.999571      3389.9499    
      1010   2.02           317.0004       138889.08     -807624.88     -310.05913      0.36286884     0.05843087     29.194135      3389.6188    
      1020   2.04           308.36682      137748.74     -807626.37     -307.29203      0.3628543      0.05791173     29.18438       3389.2986    
      1030   2.06           318.87525      131824.3      -807634.42     -300.68158      0.36283961     0.056668231    29.244635      3388.9101    
      1040   2.08           300.62664      129434.74     -807634.78     -297.7319       0.36282478     0.056114609    29.217406      3388.5528    
      1050   2.1            304.96088      126739.78     -807638.65     -294.56884      0.3628098      0.055520748    29.230197      3388.1817    
      1060   2.12           296.55285      129380.6      -807634.61     -297.45356      0.36279469     0.056066801    29.202921      3387.841     
      1070   2.14           304.9642       132072.16     -807632.76     -300.65102      0.36277943     0.056671871    29.177758      3387.5275    
      1080   2.16           301.48579      138135.13     -807625.39     -307.59446      0.36276402     0.057983151    29.167561      3387.2245    
      1090   2.18           308.53308      138454.81     -807624.27     -309.85872      0.36274848     0.05841248     29.178667      3386.9089    
      1100   2.2            313.84846      138999.55     -807625.32     -309.6293       0.36273279     0.058371756    29.217095      3386.5523    
      1110   2.22           310.18359      136441.74     -807628.74     -305.88942      0.36271695     0.057669225    29.240556      3386.1714    
      1120   2.24           308.27003      132011        -807633.19     -301.36131      0.36270098     0.056818045    29.266077      3385.765     
      1130   2.26           309.33382      129625.72     -807638.06     -296.80356      0.36268486     0.055961224    29.265968      3385.3598    
      1140   2.28           292.5496       127937.71     -807638.22     -294.53892      0.3626686      0.055536724    29.216673      3385.0057    
      1150   2.3            301.63729      129541.28     -807636.29     -297.99545      0.36265219     0.05619101     29.272584      3384.5956    
      1160   2.32           290.32193      132583.81     -807630.97     -302.0617       0.36263564     0.056960355    29.213518      3384.2455    
      1170   2.34           302.59428      137556.8      -807627.54     -307.4047       0.36261895     0.057970563    29.201553      3383.9075    
      1180   2.36           295.21425      138082.61     -807624.97     -309.23498      0.36260212     0.058318427    29.240958      3383.5307    
      1190   2.38           305.22075      138535.81     -807626.4      -309.34813      0.36258514     0.058342496    29.221588      3383.1733    
      1200   2.4            302.76181      134588.22     -807630.27     -305.3166       0.36256802     0.057584876    29.205147      3382.832     
      1210   2.42           295.15529      131097.53     -807633.95     -300.66296      0.36255076     0.056709866    29.231329      3382.4657    
      1220   2.44           296.65417      127777.74     -807639.02     -295.92899      0.36253335     0.055819644    29.239603      3382.0919    
      1230   2.46           291.62176      128426.87     -807638.66     -295.70477      0.3625158      0.05578005     29.175501      3381.779     
      1240   2.48           289.35648      129309.32     -807636.55     -297.61678      0.36249811     0.056143462    29.17326       3381.4677    
      1250   2.5            299.65434      134241.62     -807632.09     -303.54391      0.36248028     0.057264392    29.212888      3381.1192    
      1260   2.52           300.84016      136064.09     -807629.32     -306.57833      0.3624623      0.057839713    29.255383      3380.7317    
      1270   2.54           294.49078      139331.3      -807625        -309.99293      0.36244418     0.058486842    29.28927       3380.3143    
      1280   2.56           297.26276      137223.5      -807627.66     -307.71659      0.36242592     0.058060289    29.282438      3379.9042    
      1290   2.58           294.51763      134841.09     -807629.67     -305.25096      0.36240751     0.057597996    29.275754      3379.5012    
      1300   2.6            296.17841      130583.37     -807636.08     -299.02729      0.36238896     0.056426535    29.263253      3379.1101    
      1310   2.62           295.82633      127811.63     -807639.36     -295.60558      0.36237027     0.055783735    29.267632      3378.716     
      1320   2.64           292.2741       127352.84     -807638.5      -295.93275      0.36235143     0.055848378    29.282331      3378.3098    
      1330   2.66           292.11702      130043.43     -807635.68     -298.64718      0.36233245     0.056363596    29.264192      3377.9203    
      1340   2.68           296.17224      134680.28     -807631.51     -303.27897      0.36231333     0.057240773    29.276693      3377.5208    
      1350   2.7            291.54215      138056.46     -807626.35     -307.74313      0.36229407     0.058086427    29.266101      3377.1312    
      1360   2.72           300.80936      139739.22     -807625.08     -310.12359      0.36227466     0.058538874    29.248769      3376.7569    
      1370   2.74           296.68275      137021.09     -807626.82     -307.67587      0.36225511     0.058079976    29.257059      3376.3762    
      1380   2.76           301.38945      134460.5      -807631.14     -303.77276      0.36223542     0.057346303    29.239169      3376.0109    
      1390   2.78           300.98439      129359.41     -807636.29     -298.4425       0.36221558     0.056343142    29.252081      3375.6353    
      1400   2.8            293.22566      129637.76     -807636.85     -296.56109      0.3621956      0.055991036    29.154361      3375.3409    
      1410   2.82           294.99465      126936.1      -807639.21     -294.37392      0.36217548     0.055581185    29.165523      3375.0366    
      1420   2.84           303.69713      132096.34     -807635.53     -299.02081      0.36215522     0.05646173     29.205754      3374.699     
      1430   2.86           294.87429      133260.89     -807630.69     -302.59491      0.36213481     0.057139819    29.219403      3374.3503    
      1440   2.88           310.1503       139594.71     -807625.1      -310.02777      0.36211426     0.058546708    29.204317      3374.0137    
      1450   2.9            299.18223      136985.01     -807625.76     -307.77577      0.36209357     0.058124755    29.263326      3373.6302    
      1460   2.92           312.84837      138759.02     -807627.54     -307.57229      0.36207273     0.058089668    29.219889      3373.2815    
      1470   2.94           300.70335      132450.84     -807631.8      -301.66547      0.36205176     0.056977378    29.215675      3372.9362    
      1480   2.96           302.04057      131300.67     -807633.41     -299.90846      0.36203064     0.056648826    29.201904      3372.6017    
      1490   2.98           294.12911      126669.08     -807638.57     -293.60207      0.36200937     0.055460887    29.210905      3372.2602    
      1500   3              311.2104       128493.26     -807639.36     -294.94512      0.36198796     0.055717882    29.260292      3371.8806    
      1510   3.02           308.66788      129333.2      -807635.16     -9563.4541      0.36196642     0.056460411    29.192605      3371.5533    
      1520   3.04           299.98572      136285.05     -807627.32     -9772.9173      0.36194472     0.057700491    29.183708      3371.2325    
      1530   3.06           301.9828       137552.32     -807625.88     -9827.1338      0.36192289     0.058024093    29.135586      3370.9479    
      1540   3.08           304.13766      139994.03     -807624.52     -9875.6557      0.36190091     0.058314131    29.161672      3370.6428    
      1550   3.1            301.5719       136502.55     -807625.79     -9825.4936      0.36187879     0.058021478    29.184648      3370.3201    
      1560   3.12           308.06642      134077.93     -807630.29     -9706.6785      0.36185653     0.057323378    29.187098      3369.9954    
      1570   3.14           302.68289      128962.79     -807636.12     -9495.3911      0.36183412     0.056079079    29.198139      3369.6623    
      1580   3.16           299.30635      127910.78     -807638.65     -9399.6871      0.36181157     0.055517319    29.131999      3369.3775    
      1590   3.18           296.81807      129216.33     -807636.21     -9466.2985      0.36178888     0.055914251    29.175543      3369.0603    
      1600   3.2            300.07786      132044.37     -807632.31     -9606.581       0.36176605     0.056746435    29.185292      3368.7357    
      1610   3.22           305.32849      135862.8      -807629.25     -9728.8177      0.36174307     0.057472142    29.177581      3368.4165    
      1620   3.24           309.32118      137609.2      -807627.61     -9799.4484      0.36171995     0.057893086    29.166889      3368.1045    
      1630   3.26           298.03332      139157.57     -807623.08     -9894.2179      0.36169669     0.058456724    29.134172      3367.8155    
      1640   3.28           309.38762      136494.5      -807627.81     -9794.8155      0.36167329     0.057873182    29.129153      3367.5293    
      1650   3.3            309.67227      133410.21     -807633.51     -9611.654       0.36164974     0.056794661    29.12792       3367.2433    
      1660   3.32           302.81811      128326.81     -807637.74     -9447.7485      0.36162605     0.055829811    29.095377      3366.9793    
      1670   3.34           303.54793      128355.17     -807637.56     -9458.4037      0.36160222     0.055896459    29.123845      3366.6946    
      1680   3.36           294.64829      128495.54     -807636.7      -9447.9571      0.36157824     0.055838425    29.135214      3366.4014    
      1690   3.38           307.23902      131859.63     -807634.84     -9562.4957      0.36155413     0.05651913     29.151807      3366.0962    
      1700   3.4            308.42574      135196.6      -807629.75     -9733.8666      0.36152987     0.057535878    29.171129      3365.7774    
      1710   3.42           301.44864      138554.68     -807624.33     -9876.4992      0.36150546     0.058382906    29.151826      3365.4714    
      1720   3.44           300.81502      138777.83     -807624.89     -9857.9728      0.36148092     0.058277348    29.176629      3365.1483    
      1730   3.46           296.39129      136717.16     -807628.27     -9730.8233      0.36145623     0.057529608    29.195491      3364.8124    
      1740   3.48           301.67739      132475.7      -807632.57     -9616.8092      0.3614314      0.056859451    29.230319      3364.4534    
      1750   3.5            292.75402      129249.51     -807634.95     -9502.0652      0.36140643     0.056184908    29.205824      3364.1107    
      1760   3.52           291.7631       127851.28     -807637.62     -9412.4526      0.36138131     0.055658904    29.22049       3363.7584    
      1770   3.54           299.94071      128111.95     -807639.02     -9405.6579      0.36135605     0.055622613    29.256814      3363.3826    
      1780   3.56           303.29344      131981.97     -807633.14     -9611.2881      0.36133065     0.056842652    29.206163      3363.0399    
      1790   3.58           298.94378      135619.17     -807627.94     -9761.0154      0.36130511     0.057732243    29.194362      3362.7048    
      1800   3.6            296.61383      138699.26     -807624.89     -9848.2462      0.36127942     0.058252317    29.227554      3362.3484    
      1810   3.62           300.45366      137596.66     -807626.84     -9805.9423      0.3612536      0.058006237    29.178797      3362.0232    
      1820   3.64           297.96232      135670.64     -807628.74     -9735.6167      0.36122763     0.057594372    29.192458      3361.6891    
      1830   3.66           300.82663      131597.12     -807633.2      -9607.2219      0.36120151     0.056838918    29.215286      3361.3406    
      1840   3.68           292.48376      128981.67     -807636.65     -9460.7125      0.36117526     0.055976197    29.111438      3361.0573    
      1850   3.7            295.86313      127577.14     -807639.47     -9389.3735      0.36114886     0.055558166    29.158297      3360.7441    
      1860   3.72           296.49789      129129.66     -807637.08     -9471.3752      0.36112232     0.0560475      29.11628       3360.4566    
      1870   3.74           291.89311      132844.46     -807630.81     -9656.0834      0.36109564     0.057144746    29.113809      3360.1701    
      1880   3.76           307.21783      136059.4      -807630.21     -9745.5888      0.36106881     0.057678724    29.156815      3359.8565    
      1890   3.78           299.62625      138041.83     -807627.34     -9803.7799      0.36104184     0.058027459    29.139462      3359.5532    
      1900   3.8            307.07374      137292.05     -807627.97     -9818.7759      0.36101474     0.058120583    29.13613       3359.2516    
      1910   3.82           303.41694      134786.54     -807630.41     -9728.112       0.36098748     0.05758826     29.161336      3358.9342    
      1920   3.84           293.06503      131415.68     -807634.7      -9546.1052      0.36096009     0.056515109    29.17702       3358.6072    
      1930   3.86           287.26051      128065.36     -807637.86     -9421.3987      0.36093255     0.055781074    29.158907      3358.2908    
      1940   3.88           292.21046      128046.18     -807638.62     -9424.2857      0.36090487     0.055802446    29.178874      3357.9623    
      1950   3.9            288.57085      129959.07     -807635        -9527.0774      0.36087705     0.056415439    29.159734      3357.6449    
      1960   3.92           292.64044      133602.61     -807632.34     -9632.9196      0.36084909     0.057046613    29.116519      3357.3528    
      1970   3.94           293.67353      135968.68     -807629.5      -9732.1958      0.36082098     0.057639021    29.166         3357.0311    
      1980   3.96           297.31908      137913.63     -807627.7      -9809.1504      0.36079273     0.058099334    29.134559      3356.7276    
      1990   3.98           293.12029      136726.61     -807627.39     -9803.5225      0.36076434     0.058070569    29.153177      3356.4128    
      2000   4              292.98349      133974.19     -807631.32     -9675.3392      0.36073581     0.057315817    29.179573      3356.0826    
      2010   4.02           290.51366      130693        -807636.27     -297.07908      0.36070713     0.056320286    29.214603      3355.7322    
      2020   4.04           285.81445      127994.33     -807637.78     -294.88284      0.36067831     0.055908389    29.223029      3355.3771    
      2030   4.06           292.14017      128297.01     -807637.66     -295.89747      0.36064935     0.056105265    29.227752      3355.0194    
      2040   4.08           292.9303       130086.07     -807636.53     -297.13563      0.36062025     0.056344578    29.243181      3354.6533    
      2050   4.1            291.46402      134008.43     -807632.25     -301.11958      0.36059101     0.057104669    29.265363      3354.275     
      2060   4.12           299.95055      135550.39     -807629.54     -304.99679      0.36056162     0.057844661    29.256531      3353.9019    
      2070   4.14           283.64246      138718.76     -807624.97     -307.17375      0.36053209     0.058262308    29.273082      3353.52      
      2080   4.16           293.29154      135685.07     -807628.54     -304.79119      0.36050242     0.057815162    29.279538      3353.135     
      2090   4.18           297.16486      133943.2      -807632.81     -300.86411      0.36047261     0.057074962    29.301003      3352.7386    
      2100   4.2            296.97955      130166.34     -807636.32     -297.10944      0.36044265     0.056367372    29.261783      3352.3641    
      2110   4.22           294.53725      128566.05     -807637.5      -295.28773      0.36041256     0.056026437    29.267836      3351.9867    
      2120   4.24           294.14396      128729.19     -807639.14     -293.32756      0.36038232     0.055659195    29.309285      3351.5872    
      2130   4.26           292.74244      131423.11     -807634.86     -297.16109      0.36035193     0.056391364    29.318431      3351.1834    
      2140   4.28           301.64342      134347.65     -807630.99     -301.95238      0.36032141     0.057305448    29.321461      3350.7786    
      2150   4.3            304.5868       137238.05     -807627.91     -305.08356      0.36029075     0.057904621    29.298741      3350.3864    
      2160   4.32           294.58006      138075.22     -807625.65     -305.6911       0.36025994     0.058024892    29.231249      3350.0304    
      2170   4.34           306.74924      135971.3      -807629.05     -303.72909      0.36022899     0.057657426    29.233639      3349.6733    
      2180   4.36           307.21165      133637.42     -807631.67     -300.80984      0.36019789     0.057108188    29.235614      3349.3152    
      2190   4.38           296.20342      129789.24     -807634.44     -296.3138       0.36016666     0.056259502    29.200489      3348.9757    
      2200   4.4            297.78435      129133.07     -807637.48     -293.24879      0.36013528     0.055682416    29.195382      3348.6388    
      2210   4.42           303.97248      127676.03     -807638.43     -293.05162      0.36010377     0.055649848    29.20253       3348.2982    
      2220   4.44           298.9307       132937.96     -807631.57     -298.98148      0.36007211     0.056780908    29.199852      3347.9589    
      2230   4.46           305.40948      134043.81     -807630.04     -301.36545      0.3600403      0.057238714    29.244218      3347.5968    
      2240   4.48           296.59658      139043.87     -807624.85     -305.10808      0.36000836     0.057954698    29.272857      3347.2203    
      2250   4.5            313.83806      136365.07     -807628        -304.34037      0.35997627     0.057814024    29.165885      3346.8985    
      2260   4.52           302.67799      137243.34     -807625.61     -304.96698      0.35994404     0.057938247    29.181817      3346.5685    
      2270   4.54           313.56409      131047.48     -807633.38     -298.77874      0.35991167     0.056767697    29.21258       3346.2228    
      2280   4.56           300.61796      131196.92     -807634.34     -295.85968      0.35987916     0.056218157    29.202231      3345.8823    
      2290   4.58           305.05752      127283.14     -807638.24     -292.60093      0.35984651     0.055603986    29.217978      3345.5339    
      2300   4.6            302.36507      130394.86     -807634.66     -295.70995      0.35981371     0.056199926    29.216661      3345.1863    
      2310   4.62           307.56487      130172.4      -807633.98     -297.16683      0.35978077     0.056481977    29.26224       3344.8161    
      2320   4.64           305.29315      136606.41     -807628.48     -302.30787      0.35974769     0.057464411    29.284526      3344.4353    
      2330   4.66           301.51521      136133.48     -807625.74     -304.64345      0.35971447     0.057913719    29.265554      3344.064     
      2340   4.68           311.9408       139301.55     -807625.5      -306.2737       0.35968111     0.058229035    29.287469      3343.6824    
      2350   4.7            298.57555      135002.96     -807627.82     -302.16521      0.3596476      0.057453277    29.29471       3343.2976    
      2360   4.72           305.79231      133696.89     -807632.18     -298.82283      0.35961396     0.056823078    29.244486      3342.9374    
      2370   4.74           296.76045      128682.37     -807635.91     -293.94545      0.35958017     0.055900865    29.241406      3342.5788    
      2380   4.76           307.01383      128796.03     -807637.27     -293.99891      0.35954624     0.055916308    29.250031      3342.2162    
      2390   4.78           285.7613       129509.93     -807634.44     -294.0545       0.35951216     0.055932182    29.262065      3341.8481    
      2400   4.8            299.60133      132771.61     -807632.69     -297.79059      0.35947795     0.056648215    29.250484      3341.4857    
      2410   4.82           306.85833      134873.5      -807629.92     -301.7266       0.35944359     0.057402443    29.278237      3341.1104    
      2420   4.84           305.55863      137388.32     -807626.57     -305.0599       0.35940909     0.058042162    29.244444      3340.7512    
      2430   4.86           304.61554      137653.87     -807627.14     -304.44145      0.35937446     0.057930075    29.230865      3340.3986    
      2440   4.88           294.77154      135426.16     -807629.31     -301.15861      0.35933967     0.057310953    29.274065      3340.0258    
      2450   4.9            303.32667      132193.66     -807633.88     -297.92748      0.35930475     0.056701575    29.25756       3339.661     
      2460   4.92           296.80844      128925.33     -807636.52     -294.55932      0.35926969     0.056066019    29.251573      3339.2991    
      2470   4.94           288.54383      128359.04     -807636.9      -293.20544      0.35923448     0.055813792    29.278333      3338.9251    
      2480   4.96           289.16447      128955.97     -807636.36     -294.0428       0.35919913     0.055978698    29.277719      3338.5516    
      2490   4.98           306.70266      131919.89     -807633.93     -299.1201       0.35916364     0.056950921    29.258105      3338.1874    
      2500   5              292.88414      135463.56     -807628.81     -302.56529      0.35912801     0.057612584    29.266382      3337.8195    
[...]
     98740   197.48         299.50221      133705.63     -807632.21     -9674.3332      0.36236891     0.057051576    26.837302      44.670096    
     98750   197.5          293.15919      134869.06     -807628.77     -9756.3867      0.36238762     0.057532493    26.880389      44.315793    
     98760   197.52         306.27783      135063.89     -807629.89     -9779.1383      0.36240618     0.057663705    26.813035      43.961498    
     98770   197.54         294.27812      135519.97     -807629.59     -9733.5377      0.36242459     0.057391899    26.794633      43.607203    
     98780   197.56         297.0891       133351.2      -807631.65     -9681.7034      0.36244287     0.05708339     26.796527      43.252903    
     98790   197.58         302.2525       132843.18     -807632.59     -9672.6368      0.362461       0.05702708     26.810402      42.898597    
     98800   197.6          293.96648      131879.12     -807633.83     -9595.2651      0.36247899     0.056568112    26.783513      42.544292    
     98810   197.62         301.9428       131882.51     -807635.05     -9589.51        0.36249683     0.0565314      26.830227      42.189975    
     98820   197.64         305.35879      131598.05     -807634.27     -9627.975       0.36251453     0.056755384    26.852281      41.835651    
     98830   197.66         303.81618      134531.46     -807630.17     -9750.2828      0.36253209     0.057473586    26.873604      41.481319    
     98840   197.68         290.06374      134157        -807628.67     -9737.1008      0.36254951     0.057393126    26.877938      41.126984    
     98850   197.7          302.69564      136347.24     -807629.91     -9748.5309      0.36256678     0.057457761    26.89577       40.772642    
     98860   197.72         306.26745      133240.26     -807631.2      -9721.0673      0.36258391     0.057293184    26.917736      40.418292    
     98870   197.74         296.6216       134829.8      -807628.69     -9752.2866      0.3626009      0.057474489    26.917882      40.06394     
     98880   197.76         302.31732      130937.44     -807634.01     -9605.5675      0.36261774     0.05660718     26.924851      39.709582    
     98890   197.78         308.40878      132867.22     -807634.97     -9592.4423      0.36263445     0.056527227    26.976665      39.355214    
     98900   197.8          298.76668      131223.16     -807633.27     -9603.8177      0.362651       0.056591677    26.926044      39.00085     
     98910   197.82         298.96922      134654.68     -807628.57     -9746.5684      0.36266742     0.057430253    26.924621      38.646482    
     98920   197.84         296.7416       132680.31     -807630.62     -9664.545       0.36268369     0.056944388    26.908574      38.292114    
     98930   197.86         307.91198      137000.92     -807629.81     -9728.5193      0.36269982     0.057318781    26.900659      37.937743    
     98940   197.88         306.21251      134193.36     -807628.4      -9760.3323      0.36271581     0.057503683    26.855693      37.583375    
     98950   197.9          309.15168      135570.58     -807626.81     -9809.6052      0.36273165     0.057791453    26.878285      37.229001    
     98960   197.92         313.9241       132495.39     -807633.08     -9620.3536      0.36274735     0.05667406     26.860086      36.874625    
     98970   197.94         304.55367      134119.86     -807632.24     -9592.8912      0.36276291     0.056509854    26.886658      36.520242    
     98980   197.96         312.95635      130510.65     -807633.25     -9593.0419      0.36277832     0.056508341    26.898316      36.165854    
     98990   197.98         313.87907      132684.58     -807631.45     -9644.9307      0.36279359     0.056811603    26.872606      35.811466    
     99000   198            308.41116      132647.96     -807631.16     -9624.6488      0.36280872     0.056689772    26.866302      35.457075    
     99010   198.02         311.17994      135327.61     -807628.33     -303.85122      0.3628237      0.05726811     26.924721      35.102673    
     99020   198.04         318.79377      136077.25     -807626.57     -306.60083      0.36283855     0.057783978    26.888854      34.748272    
     99030   198.06         320.55739      136446.77     -807626.99     -306.3929       0.36285324     0.057742449    26.909859      34.393865    
     99040   198.08         314.98842      135343.58     -807628.21     -304.3848       0.3628678      0.057361704    26.885072      34.039457    
     99050   198.1          307.04511      133388        -807630        -301.56026      0.36288221     0.056827158    26.906505      33.685043    
     99060   198.12         314.68686      131052        -807631.67     -301.01773      0.36289648     0.056722692    26.951779      33.33062     
     99070   198.14         317.1416       130716.59     -807633.14     -300.01226      0.36291061     0.056531025    26.934576      32.976196    
     99080   198.16         305.28469      132685.39     -807631.47     -300.14493      0.36292459     0.056553844    26.916822      32.62177     
     99090   198.18         311.03703      132814.68     -807631.04     -301.55305      0.36293843     0.056816999    26.93497       32.267339    
     99100   198.2          314.16441      135602.92     -807627.83     -305.45286      0.36295213     0.057549608    26.987451      31.912898    
     99110   198.22         309.95427      136048.72     -807626.14     -306.76237      0.36296568     0.057794172    26.943268      31.558459    
     99120   198.24         312.08629      136792.93     -807627.72     -305.68263      0.36297909     0.05758862     26.91675       31.204019    
     99130   198.26         305.42144      134848.14     -807628.89     -303.82379      0.36299236     0.057236335    26.896998      30.849579    
     99140   198.28         310.93439      134178.23     -807630.2      -303.45507      0.36300548     0.057164807    26.967311      30.495127    
     99150   198.3          307.46911      132210.47     -807633.51     -299.95451      0.36301846     0.056503351    26.995345      30.140668    
     99160   198.32         311.19836      131754.64     -807634.33     -299.76489      0.3630313      0.056465634    26.977364      29.786209    
     99170   198.34         304.88501      132064.4      -807633.46     -300.02028      0.36304399     0.056511766    26.954766      29.431748    
     99180   198.36         312.89616      133693.84     -807630.77     -303.97535      0.36305655     0.057254762    26.973929      29.077282    
     99190   198.38         311.62645      134604.26     -807629.88     -304.94961      0.36306895     0.057436303    26.968986      28.722813    
     99200   198.4          307.49245      136200.37     -807628.73     -305.62246      0.36308122     0.057561089    26.915619      28.368347    
     99210   198.42         307.5291       135627.78     -807628.77     -305.76391      0.36309334     0.057585808    26.950963      28.013874    
     99220   198.44         297.44388      134909.86     -807628.11     -305.11049      0.36310532     0.05746085     26.936097      27.659399    
     99230   198.46         307.09047      133355.95     -807631.99     -302.72986      0.36311715     0.057010652    26.924815      27.304921    
     99240   198.48         298.28066      132070.08     -807633.04     -300.59374      0.36312885     0.056606551    26.912445      26.950442    
     99250   198.5          307.6772       131589.8      -807634.04     -301.004        0.3631404      0.056682007    26.951644      26.595955    
     99260   198.52         291.79034      131677.06     -807631.14     -301.81554      0.3631518      0.056833042    26.869082      26.241473    
     99270   198.54         297.12812      134450.07     -807630.11     -303.65498      0.36316306     0.057177644    26.892075      25.886985    
     99280   198.56         305.8766       133117.79     -807630.62     -304.5525       0.36317418     0.05734489     26.871859      25.532496    
     99290   198.58         306.97193      136639.96     -807628.87     -306.4973       0.36318516     0.057709335    26.90852       25.178       
     99300   198.6          298.80164      134105.08     -807629.3      -305.17322      0.36319599     0.057458315    26.911857      24.8235      
     99310   198.62         293.88567      136252.09     -807628.81     -304.89712      0.36320668     0.057404642    26.882831      24.468999    
     99320   198.64         303.46313      131408.47     -807634.32     -300.94038      0.36321723     0.05665804     26.921996      24.114491    
     99330   198.66         298.31455      133455.48     -807631.95     -302.57046      0.36322763     0.056963303    26.928298      23.759979    
     99340   198.68         298.90814      130160.1      -807634.31     -300.51555      0.36323789     0.056574839    26.92795       23.405463    
     99350   198.7          298.61549      134320.75     -807631.53     -303.17359      0.36324801     0.05707365     26.9163        23.050946    
     99360   198.72         290.06675      132988.02     -807631.54     -302.22418      0.36325798     0.056893356    26.948131      22.696422    
     99370   198.74         298.93699      137038.7      -807628.63     -306.32464      0.36326781     0.057663704    26.934158      22.341896    
     99380   198.76         306.74015      133972.59     -807629.98     -306.23592      0.3632775      0.057645465    26.919486      21.987368    
     99390   198.78         304.14153      136378.69     -807629.23     -306.57549      0.36328704     0.05770787     26.90054       21.632838    
     99400   198.8          296.44225      132720.47     -807632.28     -302.60904      0.36329644     0.056959776    26.881831      21.278306    
     99410   198.82         298.36386      133222.18     -807632.78     -302.3525       0.3633057      0.056910038    26.920221      20.923767    
     99420   198.84         306.26607      129516.36     -807635.49     -300.95407      0.36331481     0.056645399    26.95447       20.569222    
     99430   198.86         286.902        132073.5      -807632        -301.7157       0.36332378     0.056787351    26.938578      20.214676    
     99440   198.88         303.42082      131288.22     -807635.39     -300.66884      0.36333261     0.056588941    26.934623      19.860126    
     99450   198.9          293.50379      134439.39     -807629.89     -304.82248      0.36334129     0.057369327    26.910959      19.505575    
     99460   198.92         301.43655      135341.17     -807629.04     -306.89659      0.36334983     0.057758329    26.935687      19.151018    
     99470   198.94         300.89345      136686.59     -807628.22     -307.60587      0.36335823     0.057890479    26.904384      18.79646     
     99480   198.96         296.73859      134934.3      -807630.12     -305.15409      0.36336648     0.057427756    26.925994      18.441897    
     99490   198.98         292.2331       133721.54     -807631.02     -303.67144      0.3633746      0.057147457    26.936478      18.087331    
     99500   199            295.35888      132028.01     -807631.97     -303.20868      0.36338256     0.057059119    26.935611      17.732761    
     99510   199.02         294.18783      130246.58     -807634.54     -9614.5157      0.36339039     0.056539442    26.897865      17.37819     
     99520   199.04         289.88765      131957.37     -807634.23     -9603.1432      0.36339807     0.056471371    26.90185       17.023615    
     99530   199.06         296.88847      131454.47     -807633.83     -9648.7261      0.3634056      0.056738245    26.917052      16.669036    
     99540   199.08         305.41569      135237.67     -807630.03     -9806.4803      0.363413       0.057664727    26.906068      16.314454    
     99550   199.1          304.2907       135279.8      -807630.42     -9787.9338      0.36342025     0.057554521    26.894745      15.95987     
     99560   199.12         301.75379      137129.73     -807629.54     -9800.565       0.36342736     0.057627667    26.905709      15.605281    
     99570   199.14         290.57745      134763.5      -807628.88     -9771.5702      0.36343432     0.057456076    26.895286      15.25069     
     99580   199.16         292.8019       136158.8      -807628.83     -9778.7847      0.36344114     0.057497417    26.85962       14.896097    
     99590   199.18         304.96101      130530.24     -807635.1      -9630.0299      0.36344782     0.056621727    26.817378      14.541503    
     99600   199.2          301.75374      132148.7      -807634.79     -9615.6673      0.36345435     0.056536262    26.845658      14.186904    
     99610   199.22         295.91161      130475.6      -807634.51     -9598.5181      0.36346074     0.05643444     26.808792      13.832303    
     99620   199.24         298.23897      133568.01     -807629.87     -9747.968       0.36346699     0.057312144    26.774247      13.4777      
     99630   199.26         313.80758      132663.22     -807633.29     -9703.2883      0.3634731      0.057048497    26.766888      13.123094    
     99640   199.28         303.90658      137324.04     -807628.32     -9809.3008      0.36347906     0.05767083     26.751963      12.768485    
     99650   199.3          302.84162      135076.97     -807627.97     -9811.9713      0.36348487     0.057685607    26.78387       12.413871    
     99660   199.32         306.6046       137016.71     -807627.81     -9824.3045      0.36349055     0.057757214    26.839467      12.05925     
     99670   199.34         303.81833      133252.59     -807631.2      -9698.1815      0.36349608     0.057014867    26.868203      11.704624    
     99680   199.36         310.58448      133399.28     -807633.02     -9662.4076      0.36350147     0.056803713    26.890978      11.349993    
     99690   199.38         308.7847       130022.66     -807634.2      -9613.7118      0.36350671     0.056516623    26.86886       10.99536     
     99700   199.4          303.13381      133331.6      -807631.42     -9670.7581      0.36351181     0.056851186    26.87299       10.640724    
     99710   199.42         303.19994      132423.8      -807631.43     -9668.4634      0.36351677     0.056836922    26.867315      10.286084    
     99720   199.44         323.60684      134476.74     -807631.45     -9752.805       0.36352158     0.057331972    26.877312      9.9314402    
     99730   199.46         305.37334      136045.18     -807627.42     -9801.1663      0.36352625     0.057615524    26.904263      9.5767919    
     99740   199.48         300.65933      136829.14     -807625.63     -9833.6367      0.36353078     0.05780568     26.871538      9.2221414    
     99750   199.5          307.59643      134580.17     -807629.06     -9753.4948      0.36353516     0.057333885    26.916648      8.8674858    
     99760   199.52         302.43376      134105.69     -807630.18     -9694.1277      0.3635394      0.056984243    26.904126      8.5128273    
     99770   199.54         308.9978       132436.63     -807631.99     -9665.4762      0.3635435      0.056815183    26.917833      8.1581648    
     99780   199.56         300.03917      131642.46     -807631.18     -9651.1106      0.36354745     0.056730123    26.950744      7.8034981    
     99790   199.58         300.49534      132733.52     -807631.93     -9631.1023      0.36355126     0.056611919    26.871445      7.4488303    
     99800   199.6          320.33881      132540.51     -807633.74     -9662.6633      0.36355493     0.056796862    26.843359      7.0941598    
     99810   199.62         317.14527      135733.25     -807629.08     -9800.5157      0.36355845     0.057606597    26.837437      6.7394859    
     99820   199.64         307.32009      135638.43     -807627.31     -9818.6875      0.36356183     0.057712872    26.881481      6.3848073    
     99830   199.66         307.39944      136090.53     -807628.31     -9789.2721      0.36356507     0.057539461    26.872002      6.0301255    
     99840   199.68         304.95528      134160.2      -807630.3      -9721.3199      0.36356816     0.057139565    26.905663      5.6754394    
     99850   199.7          309.1039       133831.98     -807631.18     -9719.6831      0.36357111     0.05712948     26.897166      5.3207501    
     99860   199.72         310.31343      131804.06     -807633.16     -9668.7267      0.36357392     0.056829535    26.887453      4.9660575    
     99870   199.74         292.07893      132619.59     -807632.22     -9626.2311      0.36357658     0.056579345    26.849866      4.6113622    
     99880   199.76         298.04533      132775.73     -807633.25     -9629.914       0.3635791      0.0566006      26.80633       4.256664     
     99890   199.78         301.82545      134057.71     -807630.4      -9746.1394      0.36358148     0.05728335     26.826535      3.9019619    
     99900   199.8          295.27662      135621.39     -807627.47     -9821.2308      0.36358371     0.057724348    26.793208      3.5472566    
     99910   199.82         304.17942      135811.99     -807629.58     -9799.5298      0.3635858      0.057596469    26.790484      3.1925477    
     99920   199.84         307.65002      134329.76     -807631.56     -9760.1593      0.36358775     0.057364763    26.767059      2.8378352    
     99930   199.86         290.84572      134658.08     -807629.19     -9769.0028      0.36358955     0.057416456    26.829827      2.4831184    
     99940   199.88         306.97991      131940.96     -807633.26     -9718.0617      0.36359121     0.057116793    26.827616      2.1283981    
     99950   199.9          288.36412      131317.83     -807633.39     -9634.6489      0.36359273     0.056626308    26.799097      1.7736743    
     99960   199.92         297.6666       130223.85     -807635.88     -9600.2326      0.3635941      0.056423818    26.804079      1.4189467    
     99970   199.94         282.29093      133237.99     -807631.1      -9688.3061      0.36359533     0.056941263    26.836861      1.0642154    
     99980   199.96         299.07784      133178.69     -807631.57     -9751.6654      0.36359641     0.057313475    26.857531      0.70948047   
     99990   199.98         296.37124      136154.18     -807630.35     -9777.745       0.36359736     0.057466603    26.852769      0.354742     
    100000   200            296.34142      134989.45     -807630.72     -9769.0644      0.36359816     0.057415459    26.86118       0            
Loop time of 3547.44 on 32 procs for 100000 steps with 1080 atoms

Performance: 4.871 ns/day, 4.927 hours/ns, 28.189 timesteps/s, 30.445 katom-step/s
71.8% CPU use with 32 MPI tasks x 1 OpenMP threads

MPI task timing breakdown:
Section |  min time  |  avg time  |  max time  |%varavg| %total
---------------------------------------------------------------
Pair    | 2585.4     | 2808.9     | 3108.4     | 262.5 | 79.18
Neigh   | 0.0016299  | 0.0026259  | 0.0090281  |   4.6 |  0.00
Comm    | 366.28     | 665.85     | 889.35     | 539.2 | 18.77
Output  | 2.3369     | 2.3543     | 2.3629     |   0.3 |  0.07
Modify  | 63.632     | 64.265     | 64.589     |   3.3 |  1.81
Other   |            | 6.037      |            |       |  0.17

Nlocal:          33.75 ave          45 max          27 min
Histogram: 5 3 4 6 1 9 0 3 0 1
Nghost:        1048.31 ave        1060 max        1034 min
Histogram: 4 0 1 8 1 1 7 1 5 4
Neighs:              0 ave           0 max           0 min
Histogram: 32 0 0 0 0 0 0 0 0 0
FullNghs:      5322.56 ave        7154 max        4214 min
Histogram: 5 3 4 5 4 7 0 3 0 1

Total # of neighbors = 170322
Ave neighs/atom = 157.70556
Neighbor list builds = 4
Dangerous builds = 0

Total wall time: 1:02:37
