
units		metal
atom_style	atomic

read_data ${STRUCTURE}.data
read_data BaTiO3-sc333.data
Reading data file ...
  orthogonal box = (0 0 0) to (11.898253 11.898253 12.912076)
  2 by 4 by 4 MPI processor grid
  reading atoms ...
  135 atoms
  read_data CPU = 0.031 seconds
replicate $L $L $L
replicate 2 $L $L
replicate 2 2 $L
replicate 2 2 2
Replication is creating a 2x2x2 = 8 times larger system...
  orthogonal box = (0 0 0) to (23.796507 23.796507 25.824152)
  2 by 4 by 4 MPI processor grid
  1080 atoms
  replicate CPU = 0.004 seconds

pair_style allegro
pair_coeff	* * ${MODEL}.pth Ba Ti O
pair_coeff	* * BaTiO3-E0.pth Ba Ti O
mass 1 137.3
mass 2 47.9
mass 3 15.9994

timestep 0.002
compute polarization all allegro polarization 3
compute allegro will evaluate the quantity polarization of length 3 (src/compute_allegro.cpp:53)
compute polarizability all allegro polarizability 9
compute allegro will evaluate the quantity polarizability of length 9 (src/compute_allegro.cpp:53)

thermo_style custom pe fmax fnorm spcpu cpuremain

variable efield equal 1e-2*36.36
fix born all addbornforce 0.0 0.0 ${efield}
fix born all addbornforce 0.0 0.0 0.3636

thermo 10
min_style fire
#minimize 0.0 1e-6 100 100
velocity all create ${TEMP} ${SEED} dist gaussian rot yes mom yes
velocity all create 350 ${SEED} dist gaussian rot yes mom yes
velocity all create 350 20944 dist gaussian rot yes mom yes
fix nvt all nvt temp ${TEMP} ${TEMP} $(100*dt)
fix nvt all nvt temp 350 ${TEMP} $(100*dt)
fix nvt all nvt temp 350 350 $(100*dt)
fix nvt all nvt temp 350 350 0.2000000000000000111
run 5000
Neighbor list info ...
  update: every = 1 steps, delay = 0 steps, check = yes
  max neighbors/atom: 2000, page size: 100000
  master list distance cutoff = 8
  ghost atom cutoff = 8
  binsize = 8, bins = 3 3 4
  1 neighbor lists, perpetual/occasional/extra = 1 0 0
  (1) pair allegro/kk, perpetual
      attributes: full, newton on, kokkos_device
      pair build: full/bin/kk/device
      stencil: full/bin/3d
      bin: kk/device
Per MPI rank memory allocation (min/avg/max) = 3.516 | 3.516 | 3.516 Mbytes
    PotEng          Fmax          Fnorm          S/CPU         CPULeft    
-807708.29      1.5959277      37.043978      0              0            
-807644.89      3.407591       45.319175      2.1280404      2344.8812    
-807632.44      2.5234919      35.907648      25.857508      1266.388     
-807605.14      3.3064962      37.681805      25.879409      906.57815    
-807601.25      4.1871274      50.301638      25.813721      726.60205    
-807566.81      3.5692624      40.981457      25.781305      618.50963    
-807598.8       3.0168318      39.294344      25.836381      546.25064    
-807643.64      3.886199       34.038434      25.860353      494.50122    
-807681.97      2.772465       34.309196      25.841618      455.60972    
-807666.93      2.7114868      34.750915      25.82244       425.29046    
-807647.85      4.8144086      36.725188      25.841431      400.94368    
-807658.27      2.7565674      29.173754      25.866174      380.93673    
-807624.1       3.4035979      32.372032      25.836764      364.21776    
-807584.4       3.5754923      41.997172      25.788382      350.03859    
-807561.32      3.9204939      41.089887      25.868337      337.78801    
-807627.74      3.65699        36.169478      25.864996      327.12092    
-807649.26      3.5714963      33.636685      25.794989      317.77062    
-807662.13      3.0137356      36.053532      25.800924      309.47222    
-807640.34      4.8301165      47.949623      25.856869      302.03034    
-807677.02      2.9580255      37.72818       25.808635      295.34941    
-807639.34      4.6529863      41.479826      25.790588      289.30434    
-807615.21      3.1603701      39.549259      25.859629      283.77443    
-807558.34      4.6844959      46.416237      25.869604      278.70885    
-807599.64      4.2282806      49.913006      25.853246      274.05522    
-807610.16      4.4583141      39.238414      25.789028      269.77626    
-807638.3       2.9989237      36.103961      25.875167      265.78407    
-807639.59      5.4528175      45.08766       25.875233      262.06923    
-807677.97      2.7979585      38.348768      25.820042      258.61541    
-807662.36      2.7680388      35.230393      25.751695      255.39794    
-807636.58      3.1400762      32.987858      25.828235      252.35691    
-807606.78      3.858852       34.74511       25.862548      249.48474    
-807601.31      3.9455437      41.726362      25.842355      246.77751    
-807594.39      4.009199       39.138969      25.744962      244.2367     
-807602.43      2.8054821      34.592201      25.844874      241.80509    
-807637.84      3.684903       31.546017      25.843031      239.49412    
-807669.67      3.1038223      32.819717      25.835221      237.29467    
-807674.86      2.3842805      34.518408      25.805849      235.20158    
-807640.59      4.1573999      40.725285      25.838498      233.19455    
-807644.69      3.1584167      33.437261      25.872825      231.26654    
-807620.89      4.6074191      36.093988      25.853073      229.42108    
-807599.11      4.2696925      45.06071       25.787439      227.65987    
-807563.4       5.1711045      43.431567      25.844085      225.95614    
-807615.09      3.7529712      38.441905      25.887209      224.30809    
-807644.24      3.8486427      36.809235      25.829563      222.72788    
-807669.45      3.2017086      36.603487      25.804779      221.20576    
-807638.27      4.6009048      47.34935       25.846385      219.72776    
-807664.07      2.9849643      36.344309      25.856271      218.29574    
-807643.18      3.5769172      37.208324      25.816602      216.91392    
-807625.33      3.2011234      38.378838      25.826464      215.57215    
-807562.29      3.974123       43.595855      25.886858      214.26103    
-807594.19      4.0821481      44.354437      25.85649       212.99098    
-807616.2       3.5814513      36.75808       25.818101      211.76063    
-807648.71      3.0969981      33.199068      25.839673      210.55993    
-807636.68      5.0812305      41.823761      25.858078      209.3876     
-807667.72      3.589422       35.217954      25.844809      208.24601    
-807663.33      3.4749301      35.424687      25.787068      207.13887    
-807640.67      3.0233505      32.982855      25.804495      206.05535    
-807600.6       3.7427998      36.236579      25.856971      204.99014    
-807592.97      3.4342313      38.067732      25.87376       203.94641    
-807598.67      3.8485657      42.656529      25.721334      202.94207    
-807611.07      3.9735609      34.9796        25.771041      201.95276    
-807629.96      4.4846535      35.030979      25.803602      200.97964    
-807655.12      4.3528458      35.591674      25.835817      200.02199    
-807671.22      2.8429442      37.99156       25.747647      199.09165    
-807643.63      4.8131823      40.997167      25.714825      198.18163    
-807631.25      3.1177103      36.540387      25.811259      197.27791    
-807609         3.9170194      38.718993      25.816513      196.38933    
-807604.39      4.2234188      46.552193      25.811007      195.51623    
-807574.83      4.0793279      42.91936       25.783767      194.66003    
-807607.42      2.9458095      38.101621      25.835786      193.81251    
-807635.5       3.5808915      37.653524      25.843513      192.97746    
-807668.37      3.3224274      37.051349      25.793837      192.15951    
-807646.39      4.7531597      41.762677      25.80484       191.35255    
-807647.66      2.8576382      36.886303      25.890046      190.54961    
-807640.34      3.4480768      35.405397      25.858887      189.76061    
-807625.04      3.8416114      38.280127      25.817906      188.98582    
-807579.26      3.3765421      39.405047      25.846134      188.21887    
-807583         4.0713002      41.302343      25.953532      187.45299    
-807619.66      3.3511931      34.593315      25.91264       186.70016    
-807651.2       3.6708541      33.570634      25.900612      185.95758    
-807647.39      3.9841248      36.723023      25.926097      185.22191    
-807650.98      4.0064574      37.458283      25.751492      184.50841    
-807661.74      3.0875756      33.801731      25.897595      183.79168    
-807643.32      4.0862635      33.378027      25.869899      183.08499    
-807606.71      2.783772       36.124448      25.872788      182.38571    
-807581.66      3.2236492      39.423354      25.963387      181.6872     
-807603.21      3.6512751      41.227806      25.913911      180.99952    
-807618.63      3.7094607      35.242503      25.93531       180.31727    
-807633.51      3.1306677      35.026157      25.924998      179.64247    
-807644.23      4.6549921      39.241185      25.983501      178.97016    
-807666.25      2.7654891      37.58637       25.867866      178.31208    
-807650.07      4.2581644      37.436998      25.83828       177.66195    
-807629.96      3.1285151      35.47222       25.805743      177.01971    
-807604.22      4.3635091      37.404956      25.872512      176.37857    
-807605.49      3.617291       42.27819       25.851524      175.7442     
-807593.01      3.574656       38.193009      25.795831      175.11861    
-807608.83      3.4285468      36.391695      25.85948       174.49395    
-807631.25      4.0373205      36.651231      25.867338      173.87372    
-807663.61      2.85865        36.15799       25.844366      173.25966    
-807653.93      2.98236        37.441102      25.806231      172.65251    
-807642.79      4.0164555      35.423345      25.843816      172.04749    
-807632.27      4.0577603      34.784683      25.90684       171.44307    
-807624.76      3.2414535      35.888382      25.8729        170.84492    
-807593.29      3.5214308      38.458959      25.924646      170.24789    
-807584.03      3.5372326      39.695429      25.926857      169.65481    
-807615.25      3.0107765      34.829766      25.918644      169.06614    
-807648.58      3.2973233      34.406679      25.914333      168.48153    
-807653.47      3.4508731      35.917376      25.877777      167.90264    
-807643.34      4.7292198      38.800948      25.918691      167.3251     
-807651.54      2.8968288      34.765616      25.905501      166.75178    
-807640.03      3.0615999      34.480747      25.81086       166.18689    
-807612.83      3.1611784      36.94655       25.840947      165.62361    
-807578.03      4.0354436      40.491194      25.908429      165.05999    
-807596.64      3.4216582      40.463047      25.92688       164.49857    
-807622.85      3.7443129      36.79529       25.875163      163.94284    
-807641.38      3.6555611      35.55744       25.892036      163.38922    
-807636.71      4.848812       41.254821      25.964964      162.83489    
-807658.43      3.0436701      36.828854      25.848859      162.28912    
-807647.59      3.8186555      38.04397       25.873316      161.74485    
-807633.15      3.0998703      35.481134      25.918419      161.20108    
-807593.8       4.2050827      39.990907      25.923726      160.6597     
-807597.51      3.7190669      41.588976      25.922684      160.12094    
-807598.55      4.1016174      40.455962      25.857715      159.58769    
-807618.17      3.4369569      36.130143      25.922482      159.05386    
-807626.44      4.1069172      37.319207      25.895178      158.52365    
-807655.34      3.3389464      35.738663      25.908582      157.99514    
-807654.94      2.9798307      36.76284       25.854509      157.4713     
-807643.82      2.9206183      35.560522      25.845791      156.94999    
-807623.1       3.235358       35.383564      25.858936      156.43022    
-807616.12      3.5739724      36.33048       25.796158      155.91521    
-807602.01      4.1530894      39.733462      25.787647      155.40253    
-807592.94      4.2643583      39.512003      25.850332      154.8891     
-807610.97      3.3333033      36.249991      25.895874      154.3757     
-807641.75      2.8372032      34.462523      25.872907      153.86515    
-807654.02      3.4550837      35.905487      25.862607      153.35688    
-807644.29      3.8083109      37.404192      25.825093      152.85193    
-807641.08      3.9967845      36.002477      25.861864      152.34724    
-807633.93      3.5834116      34.949074      25.899087      151.84279    
-807616.94      3.3724061      37.892618      25.839261      151.34241    
-807588.42      3.2581278      40.466938      25.846463      150.84338    
-807596.72      3.4875195      39.531434      25.932588      150.34264    
-807623.85      3.3986949      36.215592      25.91396       149.84424    
-807645.28      3.0148185      35.926742      25.863719      149.34932    
-807642.3       4.7137676      37.77903       25.84924       148.85646    
-807648.47      3.0455351      36.029603      25.892352      148.36347    
-807646.73      2.9918601      35.079071      25.856718      147.87326    
-807632.81      3.2689583      35.491051      25.862967      147.38424    
-807599.16      3.6339221      36.993473      25.886861      146.89575    
-807594.35      3.465416       39.338563      25.937065      146.40687    
-807608.05      3.5739575      36.944714      25.884427      145.92122    
-807628.56      2.9969158      34.864088      25.776556      145.44067    
-807634.01      4.1094899      36.830655      25.827325      144.95959    
-807647.84      3.2809643      36.282834      25.865476      144.47843    
-807652.23      4.3787946      36.389668      25.790415      144.00106    
-807645.4       3.225812       34.832282      25.763764      143.52575    
-807619.15      4.2142269      36.260048      25.817815      143.04976    
-807603.5       3.6480229      37.660271      25.906645      142.57198    
-807602.16      4.1104997      39.093264      25.872547      142.09647    
-807607.03      3.1926979      37.055328      25.855616      141.62265    
-807619.37      3.3952273      35.810895      25.864719      141.14962    
-807638.06      3.1353153      34.865317      25.909557      140.67626    
-807654.88      3.4339458      35.877325      25.856895      140.20563    
-807646.96      3.7640779      36.933865      25.843062      139.73647    
-807634.21      3.367786       35.887699      25.892614      139.26679    
-807623.28      3.5445728      35.250655      25.896857      138.798      
-807613.66      2.8145307      37.706508      25.906795      138.32991    
-807596.3       3.3946992      38.46342       25.87561       137.86375    
-807601.89      3.3103066      37.784577      25.850532      137.39928    
-807623.92      3.429989       35.359399      25.912454      136.93392    
-807645.73      4.2592523      36.368071      25.785162      136.47322    
-807643.98      3.7882939      37.640134      25.811388      136.01262    
-807640.79      4.769607       37.626684      25.813105      135.55283    
-807636.09      3.7060677      36.440224      25.809703      135.09397    
-807628.61      3.9736934      35.747461      25.821894      134.63559    
-807601.33      3.4838828      37.917467      25.808224      134.17842    
-807593.44      4.1043265      39.265329      25.838492      133.72119    
-807607         3.8584987      37.162094      25.876671      133.26372    
-807630.84      3.0645494      34.823903      25.807987      132.80892    
-807639.63      2.9411756      35.849227      25.807094      132.35491    
-807642.45      4.7839008      37.031568      25.809099      131.90158    
-807647.06      3.3922977      36.149039      25.776704      131.44986    
-807638.6       5.1663902      35.953302      25.725154      131.0002     
-807617.3       3.2788814      36.754222      25.820101      130.54872    
-807596.71      4.9619908      38.694172      25.912154      130.09556    
-807597.28      4.087674       39.600107      25.886285      129.64379    
-807611.37      4.5207246      37.318408      25.91471       129.192      
-807626.69      3.8006266      35.687446      25.861351      128.74227    
-807634.7       4.200102       37.303517      25.899541      128.29226    
-807647.78      3.269239       36.699547      25.85099       127.84413    
-807645.24      3.5918628      36.50011       25.831956      127.39712    
-807632.78      3.4094535      36.227528      25.824753      126.95092    
-807611.88      4.06883        37.074776      25.808652      126.50573    
-807606.52      3.7242818      39.239782      25.874497      126.05955    
-807603.36      3.5282513      38.996207      25.845488      125.61468    
-807610.73      3.7029443      36.942949      25.850822      125.17029    
-807623.64      3.4893819      35.571582      25.86527       124.72614    
-807643.15      3.4128732      35.004781      25.846869      124.28302    
-807647.82      2.713214       34.419494      25.793151      123.8417     
-807639.9       3.0190151      35.761245      25.798152      123.4008     
-807628.7       3.1016808      34.927964      25.826617      122.9598     
-807622.87      2.6438309      34.677236      25.841015      122.51901    
-807608.51      3.1842737      37.484128      25.881372      122.07786    
-807600.55      3.3747624      38.352739      25.885335      121.63717    
-807611.28      3.7610002      37.526514      25.894108      121.19682    
-807632.67      3.1897994      35.607917      25.871075      120.7575     
-807642.29      3.5603422      35.406138      25.835154      120.31946    
-807642.03      3.3781528      36.151256      25.783356      119.88303    
-807638.37      3.3406734      35.907875      25.754468      119.44769    
-807632.2       2.6975995      35.638743      25.796772      119.01191    
-807621.75      3.5412968      35.138798      25.852978      118.57541    
-807601.44      3.3521796      37.447409      25.867466      118.13909    
-807603.26      3.6897359      37.486242      25.861621      117.70335    
-807619.46      2.9284801      35.143601      25.857161      117.26817    
-807634.31      3.4223646      34.617464      25.838431      116.83383    
-807638.54      4.2748317      35.650068      25.803959      116.40062    
-807643.65      2.8470301      35.793878      25.822443      115.96746    
-807644.11      3.3085578      35.325726      25.81209       115.53493    
-807632.95      4.1409594      35.437301      25.849072      115.1021     
-807613.91      2.8222285      35.808589      25.935331      114.66802    
-807604.65      3.427495       38.188269      25.921424      114.23466    
-807607.26      3.4558967      38.386325      25.923653      113.80168    
-807619.82      2.8515803      36.595531      25.903369      113.36951    
-807627.33      3.8478699      36.281072      25.932978      112.9372     
-807641.53      3.8690807      35.42565       25.892179      112.50607    
-807644.34      3.7780075      36.402439      25.882125      112.07553    
-807641.06      3.1292359      35.257066      25.87395       111.64552    
-807625.84      3.8844527      35.436022      25.89882       111.21545    
-807617.11      2.6816496      35.007495      25.910555      110.78556    
-807607.67      3.8261019      37.826241      25.7962        110.3581     
-807609.08      3.5920371      37.077804      25.899068      109.92916    
-807618.19      3.1810062      35.318113      25.910701      109.50039    
-807630.26      3.1512328      36.105557      25.88002       109.07252    
-807644.14      3.2531295      36.188881      25.908408      108.64452    
-807642.35      3.5780955      36.029293      25.85246       108.21784    
-807634.92      3.2616518      35.677569      25.851741      107.79151    
-807627         3.8369736      35.428256      25.877649      107.36508    
-807618.19      3.6175589      37.535455      25.829193      106.93981    
-807606.19      3.660218       38.098519      25.831099      106.51482    
-807606.92      3.5838073      37.627624      25.871177      106.08949    
-807621.99      3.6435974      36.094372      25.906688      105.6639     
-807636         3.6918361      36.262761      25.865336      105.23932    
-807640.47      3.6984438      36.036481      25.786458      104.81632    
-807637.95      3.4581476      36.424804      25.754889      104.39411    
-807636.65      3.59101        35.004944      25.783258      103.97174    
-807629.1       3.4109933      35.549608      25.849389      103.54861    
-807611.69      3.3979296      36.829003      25.901509      103.12496    
-807600.68      3.576584       38.318279      25.8876        102.70183    
-807611.68      3.3793436      37.331523      25.893649      102.27891    
-807624.61      4.2664736      36.737295      25.887839      101.85637    
-807631.56      3.7327757      37.610188      25.850355      101.43469    
-807639.2       3.9857796      37.043215      25.850915      101.01328    
-807640.39      3.9171369      37.518403      25.870331      100.59186    
-807636.14      4.0963678      37.309535      25.833947      100.17125    
-807621.64      3.6092801      36.469562      25.871678      99.75035     
-807610.38      3.6950343      36.37663       25.905596      99.329234    
-807606.79      3.5015962      38.7685        25.885064      98.908686    
-807611.39      3.4234364      37.609128      25.894412      98.488273    
-807621.71      3.4964404      36.881897      25.906224      98.067961    
-807632.31      3.3039996      35.842257      25.938677      97.647461    
-807640.93      3.9827157      36.384118      25.862425      97.228289    
-807640.14      3.4723642      37.140918      25.829836      96.809817    
-807632.44      4.3661009      36.544325      25.851204      96.391292    
-807619.23      3.6142931      37.151275      25.897059      95.972387    
-807613.12      5.1994416      37.960629      25.873786      95.554045    
-807607.85      3.5567545      38.753996      25.844224      95.136338    
-807612.1       5.4224278      37.528165      25.864097      94.718601    
-807623.47      3.4383018      36.253627      25.916385      94.30041     
-807636.94      4.2493458      36.72895       25.873566      93.88302     
-807639.81      4.3757522      37.666963      25.846127      93.466215    
-807637.45      3.2996858      36.52217       25.811211      93.050082    
-807631.73      4.2204721      36.407322      25.815218      92.63411     
-807625.32      3.072663       35.715677      25.780385      92.218792    
-807611.73      4.1813215      38.14027       25.837158      91.80296     
-807606.96      3.9251382      37.998504      25.920241      91.386309    
-807613.5       3.4181396      36.763421      25.918271      90.969906    
-807627         2.9160552      35.400117      25.917107      90.55374     
-807639.63      3.6046099      35.056501      25.866205      90.138411    
-807638.17      3.1658417      35.431975      25.874114      89.723193    
-807640.04      3.0098433      34.852193      25.830279      89.308706    
-807634.01      3.1014469      34.507269      25.821778      88.894515    
-807624.3       2.9912623      34.382429      25.85183       88.480164    
-807608.06      2.6748222      36.54156       25.858044      88.065936    
-807609.76      3.3094413      36.783283      25.905249      87.651358    
-807618.06      2.7106507      36.537285      25.882598      87.237241    
-807630.11      3.4043282      35.522926      25.896576      86.823161    
-807637.01      3.3643071      36.499087      25.854771      86.409748    
-807640.53      3.6500958      36.63575       25.807448      85.997052    
-807641.24      3.2131513      35.929121      25.800686      85.584606    
-807631.38      2.661372       35.727181      25.852078      85.171767    
-807616.68      2.8265233      36.274171      25.877715      84.758827    
-807610.2       3.0678801      37.066464      25.932006      84.345485    
-807611.39      3.0285383      37.040559      25.917849      83.932484    
-807617.08      2.9594827      36.499469      25.919819      83.519649    
-807629.49      3.8265356      35.971937      25.890789      83.107304    
-807636.69      3.868974       36.60674       25.879094      82.695258    
-807641.55      3.4846714      36.853009      25.849343      82.283696    
-807636.2       3.1085611      36.661915      25.867742      81.87211     
-807626.69      3.5644374      36.813158      25.891758      81.460448    
-807616.48      3.0885966      36.520727      25.86913       81.049186    
-807613.16      3.433018       37.111877      25.863673      80.638144    
-807611.3       3.05262        37.150279      25.884077      80.227061    
-807616.81      2.8947297      36.380924      25.90673       79.81592     
-807629.52      3.2634645      35.42068       25.902418      79.404987    
-807639.12      3.5788212      36.042829      25.818337      78.995035    
-807638.58      3.880613       36.487281      25.816745      78.585248    
-807634.24      3.237377       36.150256      25.844122      78.175346    
-807625.92      3.3797461      36.205155      25.854818      77.765492    
-807618.1       3.2132667      37.102537      25.855728      77.35578     
-807610.29      2.8757055      37.051027      25.862491      76.946154    
-807608.86      3.9131127      37.487339      25.880077      76.536515    
-807618.11      3.3515473      36.630395      25.849483      76.127305    
-807632.71      3.517572       36.103903      25.838851      75.718336    
-807636.38      3.3642349      37.095083      25.853641      75.309374    
-807636.66      3.7121838      36.560336      25.813887      74.90091     
-807634.95      3.7275217      36.853486      25.84262       74.492325    
-807629.01      2.9448534      36.089719      25.852955      74.083787    
-807615.41      3.3559821      37.108337      25.903899      73.674943    
-807604.7       3.5880772      38.122668      25.92425       73.266068    
-807610.62      3.7653648      37.869577      25.878033      72.857733    
-807620.21      3.9507335      37.38627       25.879029      72.449527    
-807631.1       3.5333125      37.027631      25.846645      72.041729    
-807633.24      3.5026018      38.069464      25.827251      71.634223    
-807638.67      3.627072       37.568206      25.839518      71.226742    
-807634.99      3.656247       36.7063        25.788084      70.819811    
-807625.21      3.4459064      36.277326      25.828658      70.412667    
-807610.29      4.1779131      38.027024      25.868705      70.005324    
-807609.54      3.9662836      38.074445      25.834791      69.598378    
-807611.31      3.6838215      37.655952      25.833197      69.191567    
-807620.18      3.8339046      37.330394      25.862281      68.784648    
-807628.17      3.361649       36.62301       25.875549      68.377749    
-807638.09      3.2228916      36.55435       25.839798      67.971249    
-807637.18      3.558549       36.869459      25.84122       67.564856    
-807629.91      3.6402879      36.591176      25.859973      67.158438    
-807621.31      3.7823163      37.504344      25.879066      66.751995    
-807614.91      4.7739731      37.779687      25.865135      66.345776    
-807607.75      4.3933204      38.962963      25.930743      65.939192    
-807611.93      3.712875       38.399488      25.875362      65.533136    
-807623.04      3.9176551      37.340564      25.887526      65.127108    
-807632.57      3.1693673      36.706401      25.905835      64.721066    
-807637.63      4.5625592      38.148814      25.834115      64.315651    
-807634.7       3.2402704      37.337394      25.853039      63.91021     
-807630.99      4.1171087      37.390521      25.852918      63.50488     
-807622.16      3.3454734      36.774961      25.832157      63.099801    
-807614.5       4.4370756      38.303259      25.832432      62.694826    
-807609.04      3.7566984      37.939194      25.86335       62.289744    
-807616.14      3.7389357      36.593517      25.857638      61.884808    
-807624.53      3.2785332      36.290907      25.835089      61.480127    
-807635.56      4.1117463      36.434933      25.812351      61.075698    
-807634.53      3.7422437      37.099587      25.82624       60.671276    
-807639.19      3.0646612      35.192755      25.852792      60.266781    
-807629.2       3.0326524      36.508018      25.816694      59.862618    
-807624.35      3.1940187      35.844188      25.854099      59.458313    
-807613.21      3.0133287      37.439546      25.840819      59.054192    
-807611.75      3.3965149      38.087332      25.836618      58.650193    
-807619.13      2.8891962      36.588747      25.89993       58.2459      
-807627.21      2.818998       35.724461      25.85436       57.841988    
-807631.19      3.8974116      36.502968      25.809457      57.438444    
-807638.35      3.0091242      35.956068      25.790703      57.035103    
-807635.2       3.7858713      37.094347      25.835331      56.631584    
-807628.79      2.9010679      36.770421      25.830764      56.228183    
-807620.15      4.3793037      37.419811      25.883543      55.824566    
-807615.21      4.5085633      37.057951      25.930583      55.420774    
-807615.06      3.7081245      37.540398      25.879146      55.017375    
-807619.96      3.7459576      36.587628      25.899659      54.613954    
-807626.4       3.5801572      36.362812      25.860505      54.210846    
-807633.73      3.3146692      36.039412      25.856111      53.807853    
-807638.64      2.7394351      35.848994      25.835094      53.405063    
-807633.67      3.1989101      35.676394      25.879001      53.002122    
-807627.26      4.0216373      36.824623      25.860683      52.599368    
-807619.63      3.4559912      36.425642      25.881602      52.19659     
-807616.19      3.0105805      36.838434      25.899795      51.793806    
-807611.88      2.9036105      37.159449      25.928085      51.390965    
-807622.77      3.1033881      35.073882      25.931217      50.988201    
-807628.2       2.8412906      35.918116      25.908052      50.585645    
-807636.24      3.4556951      35.945771      25.860193      50.183419    
-807636.94      3.1589238      35.542341      25.854024      49.781307    
-807633.04      4.0795332      37.053742      25.867186      49.379211    
-807627.11      3.5104854      36.060272      25.893734      48.977068    
-807619.89      3.9443289      37.130656      25.921377      48.574877    
-807612.19      4.2436214      37.51734       25.86009       48.173064    
-807613         4.1907266      37.573856      25.845493      47.771399    
-807620.61      3.3257531      36.491374      25.853641      47.369774    
-807629.91      3.2483534      36.373655      25.810299      46.968427    
-807633.68      4.4819052      36.866088      25.815544      46.567129    
-807635.45      3.2849438      36.57019       25.88199       46.165603    
-807631.92      3.9702931      37.358413      25.828131      45.764396    
-807625.62      3.4304988      36.91399       25.821247      45.363293    
-807618.07      3.7689447      37.198585      25.850341      44.962133    
-807609.65      3.0792372      37.419961      25.865485      44.560983    
-807615.37      2.8452746      36.421013      25.8397        44.160017    
-807621.55      3.3585077      36.94957       25.802908      43.759278    
-807629.71      2.8443453      35.621928      25.822313      43.358525    
-807631.1       4.0654198      37.61477       25.831463      42.957804    
-807638.12      3.5154754      36.672556      25.83776       42.557126    
-807631.56      4.0014639      37.587699      25.86065       42.156425    
-807621.92      3.7428365      37.531009      25.86606       41.755773    
-807612.24      4.4040531      38.041808      25.86214       41.355208    
-807612.92      3.4340261      38.021822      25.902606      40.954556    
-807616.13      4.0695809      37.627145      25.857344      40.554151    
-807620.69      3.1022746      36.861621      25.884297      40.153712    
-807628.74      3.817008       37.337181      25.851391      39.753467    
-807638.96      3.458659       35.947713      25.843562      39.353317    
-807636.01      3.4119454      36.089314      25.830265      38.953282    
-807629.34      3.6148077      36.140756      25.85331       38.553228    
-807622.68      3.4659266      36.958615      25.887301      38.153119    
-807616.01      3.2174142      37.744166      25.788019      37.753426    
-807613.96      3.5694222      37.794579      25.797966      37.353758    
-807613.98      3.7758567      37.044145      25.796702      36.954154    
-807625.76      3.274391       36.192855      25.802815      36.554587    
-807632.26      3.9492526      36.572946      25.844453      36.15494     
-807636.24      3.7708164      36.238345      25.837826      35.755377    
-807631.59      3.6413175      36.603312      25.866051      35.355784    
-807631.48      3.8566281      36.56309       25.829869      34.956369    
-807621.98      3.5822336      37.248974      25.824847      34.557029    
-807617.73      3.627          37.079219      25.852731      34.157661    
-807613.58      3.3619962      37.970994      25.848223      33.758368    
-807619.52      3.1823268      37.4827        25.784963      33.359326    
-807624.31      4.5231745      37.935487      25.833513      32.960192    
-807632.98      3.5837979      37.114779      25.850906      32.561066    
-807631.48      4.414953       38.115016      25.841365      32.162025    
-807634.38      3.3194672      36.811688      25.840941      31.763043    
-807630.36      3.868773       37.119718      25.829948      31.364149    
-807623.34      3.0841916      36.045382      25.852456      30.965248    
-807614.25      3.5792174      37.109151      25.824442      30.566481    
-807617.68      3.0946457      36.446867      25.821233      30.167777    
-807619.03      2.9496494      36.846897      25.858245      29.769029    
-807627.74      3.5617137      35.672055      25.873824      29.370297    
-807629.74      3.8233677      36.852712      25.894951      28.971569    
-807635.93      3.0318426      36.392328      25.854286      28.573001    
-807634.91      4.7109077      36.839023      25.850421      28.174498    
-807627.88      3.6170411      36.957322      25.867009      27.776008    
-807619.97      3.0348381      36.61798       25.810495      27.377709    
-807615.29      4.3737182      37.656896      25.839486      26.979393    
-807615.4       3.2758643      37.843267      25.816479      26.581181    
-807617.42      3.3487849      36.560008      25.862874      26.182914    
-807625.71      3.7359165      36.711188      25.851041      25.784727    
-807631.6       3.3174305      36.881788      25.838903      25.386619    
-807636.13      4.1521563      37.615937      25.863794      24.988508    
-807630.17      3.7319497      37.221746      25.822895      24.590536    
-807628.09      3.5984981      36.618041      25.825089      24.192608    
-807620.16      4.0161814      37.271066      25.800277      23.79478     
-807616.93      3.5933843      37.730294      25.835658      23.396927    
-807611.62      4.0214283      38.368389      25.840362      22.999113    
-807619.62      3.617262       36.993925      25.870154      22.601291    
-807626.11      3.7036646      37.235188      25.839077      22.203579    
-807632.96      3.0282347      36.806514      25.868616      21.80586     
-807633.1       3.7412516      36.923655      25.808215      21.4083      
-807629.83      3.2805144      37.304153      25.785776      21.010826    
-807625.82      3.5961866      36.70913       25.770933      20.613421    
-807621.63      3.0920714      36.299121      25.813045      20.215985    
-807613.04      3.8954969      37.038772      25.837392      19.818554    
-807614.24      3.9009904      37.528451      25.838427      19.421167    
-807623.3       3.6545681      36.306204      25.829715      19.02384     
-807626.46      3.2687399      36.977967      25.870051      18.626495    
-807630.39      4.5607175      37.531372      25.829799      18.229258    
-807631.34      3.7098245      37.393085      25.807713      17.832099    
-807631.44      4.6115078      37.662815      25.818956      17.434966    
-807624.62      3.7425445      37.384697      25.827712      17.037863    
-807615.65      4.394947       38.047638      25.809108      16.64083     
-807612.85      4.6613354      39.010011      25.846893      16.243787    
-807618.35      3.7124957      37.750888      25.886992      15.846737    
-807621.32      5.2418205      37.654706      25.845111      15.449786    
-807626.51      3.9173899      36.625751      25.823957      15.052905    
-807631.6       5.2822788      37.226998      25.825518      14.656063    
-807635.27      4.0581016      36.406474      25.882102      14.259198    
-807631.8       3.9003566      36.24469       25.880268      13.862379    
-807623.44      2.8941912      35.694442      25.838492      13.465651    
-807618.06      3.4723023      36.388203      25.856214      13.068946    
-807617.86      3.6910261      37.227648      25.852652      12.672286    
-807618.23      3.3044613      37.196376      25.841034      12.275681    
-807621.25      3.3597827      36.947286      25.875526      11.879083    
-807628.74      3.5508054      37.030169      25.906355      11.4825      
-807635.22      3.4244125      36.894938      25.835229      11.086025    
-807634.3       3.0777714      37.311943      25.880283      10.689552    
-807626.29      4.2526364      38.090175      25.864659      10.293133    
-807624.91      3.6402824      37.202595      25.888106      9.8967374    
-807619.75      3.1947567      37.962248      25.893331      9.5003804    
-807617.94      3.2775031      37.254369      25.861384      9.1040889    
-807616.76      3.6358329      37.512935      25.896914      8.7078133    
-807624.14      3.8090618      36.755736      25.923804      8.3115624    
-807632.34      3.6756477      36.341869      25.898811      7.9153708    
-807633.36      2.9298051      36.956889      25.848507      7.5192507    
-807628.8       3.6674922      37.128053      25.866897      7.1231588    
-807630.17      3.4805398      36.072444      25.879305      6.7270996    
-807624.54      4.8563635      37.657691      25.844019      6.3310978    
-807621.73      3.4437622      36.001604      25.809578      5.9351493    
-807613.67      3.9498383      37.709381      25.819347      5.5392316    
-807621.98      3.1483149      36.498208      25.833108      5.1433437    
-807626.58      3.3274495      36.885526      25.834334      4.7474914    
-807630.53      3.4812907      36.666071      25.853492      4.3516685    
-807631.95      3.3123111      35.470668      25.842872      3.9558857    
-807631.19      4.289098       36.829148      25.844056      3.5601385    
-807631.44      3.7623969      36.569939      25.860576      3.1644232    
-807621.48      3.2706332      36.764707      25.845045      2.7687477    
-807616.18      3.5490953      37.569429      25.895443      2.3730985    
-807616.64      3.6089003      37.1487        25.849954      1.9774946    
-807620.4       4.3455228      37.801272      25.826985      1.5819287    
-807622.43      4.8020115      37.725059      25.854533      1.186394     
-807627.44      3.2170853      37.313062      25.885195      0.79089259   
-807631.66      3.4814994      36.703757      25.853249      0.39542896   
-807632.07      4.3040572      37.184715      25.834096      0            
Loop time of 197.706 on 32 procs for 5000 steps with 1080 atoms

Performance: 4.370 ns/day, 5.492 hours/ns, 25.290 timesteps/s, 27.313 katom-step/s
73.5% CPU use with 32 MPI tasks x 1 OpenMP threads

MPI task timing breakdown:
Section |  min time  |  avg time  |  max time  |%varavg| %total
---------------------------------------------------------------
Pair    | 102.05     | 144.47     | 193.72     | 311.6 | 73.07
Neigh   | 0          | 0          | 0          |   0.0 |  0.00
Comm    | 1.6744     | 50.926     | 93.339     | 524.8 | 25.76
Output  | 0.025173   | 0.028299   | 0.031001   |   0.5 |  0.01
Modify  | 1.9544     | 1.9676     | 1.9796     |   0.4 |  1.00
Other   |            | 0.3178     |            |       |  0.16

Nlocal:          33.75 ave          48 max          21 min
Histogram: 8 8 0 0 0 0 0 8 0 8
Nghost:        1106.25 ave        1119 max        1092 min
Histogram: 8 0 8 0 0 0 0 0 8 8
Neighs:              0 ave           0 max           0 min
Histogram: 32 0 0 0 0 0 0 0 0 0
FullNghs:       5494.5 ave        7896 max        3378 min
Histogram: 8 8 0 0 0 0 0 8 0 8

Total # of neighbors = 175824
Ave neighs/atom = 162.8
Neighbor list builds = 0
Dangerous builds = 0

reset_timestep 0


variable interval equal 1000
thermo 10

variable nintervals equal $(v_PERIOD/v_interval)
variable nintervals equal 100
variable efield equal 1e-2*36.36*cos((step/${PERIOD})*2*3.14)
variable efield equal 1e-2*36.36*cos((step/100000)*2*3.14)
fix born all addbornforce 0.0 0.0 v_efield

variable Px equal f_born[1]+c_polarization[1]
variable Py equal f_born[2]+c_polarization[2]
variable Pz equal (f_born[3]+c_polarization[3])/vol
variable pe equal pe

fix aveP all ave/time 1 $(v_interval/2) ${interval} v_efield v_Pz v_pe f_born file Pz.${MODEL}.${STRUCTURE}.${TEMP}.$L.${ITER}
fix aveP all ave/time 1 500 ${interval} v_efield v_Pz v_pe f_born file Pz.${MODEL}.${STRUCTURE}.${TEMP}.$L.${ITER}
fix aveP all ave/time 1 500 1000 v_efield v_Pz v_pe f_born file Pz.${MODEL}.${STRUCTURE}.${TEMP}.$L.${ITER}
fix aveP all ave/time 1 500 1000 v_efield v_Pz v_pe f_born file Pz.BaTiO3-E0.${STRUCTURE}.${TEMP}.$L.${ITER}
fix aveP all ave/time 1 500 1000 v_efield v_Pz v_pe f_born file Pz.BaTiO3-E0.BaTiO3-sc333.${TEMP}.$L.${ITER}
fix aveP all ave/time 1 500 1000 v_efield v_Pz v_pe f_born file Pz.BaTiO3-E0.BaTiO3-sc333.350.$L.${ITER}
fix aveP all ave/time 1 500 1000 v_efield v_Pz v_pe f_born file Pz.BaTiO3-E0.BaTiO3-sc333.350.2.${ITER}
fix aveP all ave/time 1 500 1000 v_efield v_Pz v_pe f_born file Pz.BaTiO3-E0.BaTiO3-sc333.350.2.7

thermo_style custom step time temp press pe f_born v_efield v_Pz spcpu cpuremain

# dump 4a all custom 1000 dump.hyst.${MODEL}.${STRUCTURE}.${TEMP}.$L.${ITER}.bin id type xu yu zu fx fy fz
# dump_modify 4a sort id

fix nvt all nvt temp ${TEMP} ${TEMP} $(100*dt)
fix nvt all nvt temp 350 ${TEMP} $(100*dt)
fix nvt all nvt temp 350 350 $(100*dt)
fix nvt all nvt temp 350 350 0.2000000000000000111

run $(v_PERIOD)
run 100000
WARNING: non-constant efield is experimental, strongly distrust scalar/vector output (src/fix_addbornforce.cpp:193)
Per MPI rank memory allocation (min/avg/max) = 3.516 | 3.516 | 3.516 Mbytes
   Step          Time           Temp          Press          PotEng         f_born        v_efield         v_Pz          S/CPU         CPULeft    
         0   0              346.4942       129581.98     -807632.07     -293.83499      0.3636         0.05526207     0              0            
        10   0.02           350.87696      135155.28     -807625.44     -301.03606      0.36359993     0.0566164      28.032394      3566.9636    
        20   0.04           360.09121      136909.99     -807621.36     -306.58164      0.36359971     0.057659402    28.067298      3564.3798    
        30   0.06           360.65036      142432.85     -807618.04     -309.93958      0.36359935     0.058290993    28.089687      3562.3347    
        40   0.08           360.57902      139868.3      -807620.67     -307.40898      0.36359885     0.057815138    28.014327      3563.5285    
        50   0.1            350.32189      140034.18     -807618.35     -308.30921      0.36359821     0.057984549    28.025782      3563.8083    
        60   0.12           358.74417      134838.2      -807624.25     -303.82257      0.36359742     0.057140858    28.007664      3564.2614    
        70   0.14           343.20099      133290.93     -807627.43     -298.4777       0.36359649     0.056135775    27.967552      3565.214     
        80   0.16           346.415        129224.65     -807632.8      -293.73649      0.36359541     0.055244242    28.008009      3565.1945    
        90   0.18           345.84071      132012.63     -807629.06     -297.57223      0.36359419     0.055965833    28.069141      3564.2358    
       100   0.2            360.5845       133973.12     -807625.88     -302.99337      0.36359283     0.056985627    28.028497      3563.9141    
       110   0.22           346.74216      138389.98     -807621.41     -305.69763      0.36359132     0.05749447     28.005439      3563.8528    
       120   0.24           360.17703      139065.93     -807622.14     -307.11781      0.36358968     0.057761834    28.012151      3563.6709    
       130   0.26           352.6084       141411.71     -807617.86     -310.53701      0.36358788     0.058405196    28.020549      3563.38      
       140   0.28           347.12936      138338.58     -807620.6      -307.38461      0.36358595     0.057812606    28.055683      3562.7615    
       150   0.3            344.24382      135082.84     -807625.82     -302.01542      0.36358387     0.056803099    28.010672      3562.558     
       160   0.32           328.67004      131347.37     -807629.62     -296.3248       0.36358165     0.055733147    28.01168       3562.3278    
       170   0.34           354.35214      130392.76     -807632.45     -297.33583      0.36357928     0.055923668    27.981643      3562.3078    
       180   0.36           338.01035      131379.03     -807627.68     -300.13948      0.36357677     0.056451374    28.007499      3562.0673    
       190   0.38           349.22912      134641.68     -807628.28     -301.38477      0.36357412     0.056686007    28.024844      3561.6987    
       200   0.4            339.82863      138519.63     -807622.82     -305.7593       0.36357132     0.057509234    28.057976      3561.1206    
       210   0.42           345.19087      140749.53     -807620.1      -309.5734       0.36356838     0.058227084    28.053303      3560.592     
       220   0.44           340.33409      139877.04     -807619.13     -310.09811      0.3635653      0.058326272    28.05648       3560.0608    
       230   0.46           337.19672      136846.45     -807625.05     -303.86045      0.36356207     0.057153538    28.08518       3559.3868    
       240   0.48           333.9331       133253.38     -807629.13     -299.35817      0.3635587      0.05630722     28.078196      3558.776     
       250   0.5            351.18613      130118.96     -807632.91     -298.09589      0.36355519     0.056070335    28.020933      3558.4761    
       260   0.52           332.09289      131544.87     -807630.16     -298.24085      0.36355153     0.056098166    28.067139      3557.9465    
       270   0.54           335.10835      132546.39     -807629.54     -299.24883      0.36354773     0.056288353    28.046591      3557.5259    
       280   0.56           347.12291      135487.51     -807628.23     -302.20488      0.36354379     0.056844999    28.031917      3557.1766    
       290   0.58           342.91123      138832.64     -807621.31     -308.55805      0.3635397      0.058040687    28.04605       3556.7649    
       300   0.6            339.76147      140752.26     -807618.64     -310.75719      0.36353547     0.058455034    28.023511      3556.4522    
       310   0.62           348.31853      139178.7      -807623.58     -306.88838      0.3635311      0.057727984    28.013511      3556.1774    
       320   0.64           342.33955      134736.07     -807626.49     -303.09997      0.36352658     0.057016065    28.060269      3555.7125    
       330   0.66           336.84849      133241.05     -807628.11     -300.6602       0.36352192     0.056557845    28.039838      3555.3323    
       340   0.68           339.78963      130538.85     -807630.83     -298.24887      0.36351712     0.056104985    28.065643      3554.8575    
       350   0.7            329.77283      131377.63     -807631.09     -296.39875      0.36351217     0.055757711    28.066281      3554.3871    
       360   0.72           337.0217       132345.86     -807629.74     -298.67916      0.36350708     0.05618748     28.035995      3554.0297    
       370   0.74           345.39464      136401.2      -807623.77     -305.68888      0.36350185     0.057506976    28.035473      3553.6741    
       380   0.76           359.99168      138956.18     -807623.35     -308.07675      0.36349647     0.057957046    28.01981       3553.3708    
       390   0.78           341.65838      140839.06     -807620.21     -308.47942      0.36349095     0.058033679    28.043375      3552.9879    
       400   0.8            346.82562      138269.1      -807622.25     -307.10382      0.36348529     0.057775791    27.987807      3552.7827    
       410   0.82           352.6356       135075.58     -807626.3      -303.79654      0.36347948     0.057154503    27.994724      3552.5487    
       420   0.84           342.05122      133521.19     -807628.07     -300.38023      0.36347353     0.056512703    28.032487      3552.1947    
       430   0.86           335.72164      130671.27     -807630.98     -296.47945      0.36346744     0.055779756    28.071321      3551.7265    
       440   0.88           348.97925      131697.17     -807631.48     -297.6652       0.3634612      0.056003804    28.069676      3551.2678    
       450   0.9            351.34342      134139.44     -807627.63     -301.77845      0.36345482     0.056778683    28.061044      3550.838     
       460   0.92           336.55107      138361.22     -807620.88     -306.36704      0.3634483      0.057643046    28.086574      3550.3414    
       470   0.94           351.88264      138596.04     -807622.34     -306.91901      0.36344163     0.057747958    28.082905      3549.8606    
       480   0.96           347.06794      139703.65     -807620.75     -307.68623      0.36343482     0.057893399    28.103206      3549.3315    
       490   0.98           348.53324      137899.31     -807622.21     -306.32871      0.36342786     0.057639075    28.082338      3548.8633    
       500   1              357.9813       134941.82     -807626.71     -302.9501       0.36342077     0.057004466    28.106091      3548.3397    
       510   1.02           346.67246      132014.07     -807629.92     -9535.2773      0.36341353     0.056069899    27.991085      3548.108     
       520   1.04           358.95108      131640.85     -807632.7      -9496.099       0.36340614     0.055840655    28.021213      3547.7978    
       530   1.06           353.35919      131579.71     -807630.05     -9552.2076      0.36339862     0.056171759    28.007138      3547.5194    
       540   1.08           357.79959      134489.63     -807626.56     -9679.359       0.36339095     0.056920674    27.960169      3547.3487    
       550   1.1            343.03934      137856.92     -807622.08     -9756.3909      0.36338313     0.057374903    27.970197      3547.148     
       560   1.12           350.4058       140420.16     -807619.73     -9859.5086      0.36337518     0.057982583    27.962757      3546.9586    
       570   1.14           350.37094      139357.46     -807619.41     -9867.6563      0.36336707     0.058031792    27.976843      3546.7319    
       580   1.16           348.27487      139322.74     -807620.28     -9825.3418      0.36335883     0.057784251    27.960098      3546.5374    
       590   1.18           354.21819      134400.03     -807626.23     -9657.6842      0.36335044     0.056799543    27.999958      3546.2516    
       600   1.2            346.54564      132992.5      -807627.88     -9563.5464      0.36334191     0.056247213    28.022628      3545.9155    
       610   1.22           356.05705      130386.93     -807631.23     -9495.776       0.36333324     0.05584996     28.035073      3545.5529    
       620   1.24           352.99364      132097.17     -807628.53     -9563.0534      0.36332442     0.056247021    28.019711      3545.2218    
       630   1.26           357.8448       133998.56     -807627.63     -9611.3713      0.36331546     0.056532607    27.98237       3544.9652    
       640   1.28           342.73807      138629.7      -807620.63     -9764.247       0.36330636     0.057433237    27.996996      3544.6762    
       650   1.3            359.54894      139816.98     -807619.71     -9867.4978      0.36329711     0.058042035    27.989744      3544.3994    
       660   1.32           346.30186      140430.16     -807618.07     -9858.2371      0.36328772     0.057989061    27.964658      3544.1684    
       670   1.34           357.86861      137589.1      -807622.89     -9752.4151      0.36327819     0.05736809     27.930618      3543.9982    
       680   1.36           355.13415      135193.25     -807625.5      -9653.169       0.36326851     0.056785793    27.945042      3543.7955    
       690   1.38           352.26158      132737.5      -807628.15     -9551.9014      0.36325869     0.056191594    27.982841      3543.5188    
       700   1.4            357.03978      130816.45     -807630.11     -9507.7536      0.36324873     0.055933417    27.96958       3543.2636    
       710   1.42           360.1954       133154.66     -807629.14     -9549.9533      0.36323863     0.056183238    27.985647      3542.977     
       720   1.44           353.10569      135678.06     -807624.75     -9660.3012      0.36322838     0.056834028    27.901918      3542.8363    
       730   1.46           347.66457      140302.43     -807618.61     -9831.4875      0.36321798     0.057842816    27.959214      3542.5897    
       740   1.48           349.89628      138870.3      -807619.65     -9809.3347      0.36320745     0.057714156    27.947911      3542.3596    
       750   1.5            362.06262      141077.22     -807619.88     -9850.925       0.36319677     0.057960561    27.967968      3542.0919    
       760   1.52           354.54376      135860.73     -807623.21     -9714.7392      0.36318595     0.057160978    28.013483      3541.7462    
       770   1.54           355.42161      137307.56     -807623.56     -9701.9853      0.36317498     0.057087658    28.015292      3541.3972    
       780   1.56           360.16549      129781.83     -807632.02     -9459.1297      0.36316387     0.055660369    27.994193      3541.0821    
       790   1.58           355.77331      134620.3      -807628.99     -9531.2802      0.36315262     0.056086662    27.95911       3540.8224    
       800   1.6            343.75695      130942.18     -807628.27     -9512.3252      0.36314122     0.055976879    27.935877      3540.5971    
       810   1.62           351.08608      138941.14     -807622.24     -9736.3212      0.36312968     0.057296841    27.90951       3540.4098    
       820   1.64           348.69009      136639.99     -807621.96     -9746.3335      0.363118       0.057357607    27.97206       3540.1215    
       830   1.66           349.30854      143412.66     -807617.64     -9887.4387      0.36310618     0.058189913    27.991911      3539.8012    
       840   1.68           347.17372      138083.77     -807620.34     -9801.2476      0.36309421     0.057684559    27.97985       3539.4983    
       850   1.7            354.74946      139236.42     -807622.15     -9779.1366      0.3630821      0.057556346    27.985296      3539.1859    
       860   1.72           366.52677      131961.46     -807630.56     -9572.8487      0.36306984     0.056344114    28.014908      3538.829     
       870   1.74           348.18453      133250.92     -807628.59     -9559.3019      0.36305745     0.056266301    28.028311      3538.4526    
       880   1.76           347.4356       130021.41     -807630.98     -9489.6917      0.3630449      0.055858503    27.969241      3538.1615    
       890   1.78           350.11855      133720.62     -807628.52     -9587.1392      0.36303222     0.056434074    28.009461      3537.8118    
       900   1.8            354.41567      134864.06     -807626.33     -9686.7347      0.36301939     0.057022351    28.020566      3537.4464    
       910   1.82           347.31377      139167.91     -807621.37     -9820.3528      0.36300642     0.057810978    27.999859      3537.1097    
       920   1.84           338.80099      140939.59     -807619.25     -9858.1018      0.36299331     0.058035298    27.988579      3536.7883    
       930   1.86           334.72377      138995.99     -807620.77     -9797.7073      0.36298005     0.057681858    27.975892      3536.4833    
       940   1.88           341.75272      137209.31     -807624.15     -9723.8777      0.36296665     0.057249316    27.96958       3536.1856    
       950   1.9            346.23032      132000.51     -807629.18     -9590.14        0.36295311     0.056464042    27.898623      3535.9815    
       960   1.92           329.17604      132697.21     -807628.35     -9539.1651      0.36293942     0.056166034    27.921353      3535.7442    
       970   1.94           333.99724      129386.82     -807631.65     -9461.5533      0.36292559     0.055711183    27.946618      3535.4712    
       980   1.96           341.71181      134591.25     -807628.17     -9606.1742      0.36291162     0.056564913    27.949886      3535.1924    
       990   1.98           340.13823      134510.49     -807626.13     -9670.8493      0.3628975      0.056947961    27.992633      3534.8572    
      1000   2              355.96892      139600.53     -807622.34     -9859.1752      0.36288325     0.058059221    27.969279      3534.5512    
      1010   2.02           344.78477      137484.72     -807622.76     -306.26297      0.36286884     0.057715482    28.09134       3534.0918    
      1020   2.04           333.87072      141362.58     -807619.75     -307.62705      0.3628543      0.057974868    28.096924      3533.6277    
      1030   2.06           337.68469      134296.47     -807625.71     -302.34434      0.36283961     0.056981603    28.119178      3533.1386    
      1040   2.08           338.75013      134192        -807626.65     -301.328        0.36282478     0.056792381    28.079678      3532.6996    
      1050   2.1            343.20222      129357.7      -807633.21     -295.38827      0.3628098      0.055675195    28.085676      3532.2551    
      1060   2.12           337.4203       133828.07     -807628.54     -298.97523      0.36279469     0.056353619    28.067387      3531.8338    
      1070   2.14           343.01929      131848.87     -807628.72     -299.58194      0.36277943     0.056470353    28.104066      3531.3708    
      1080   2.16           355.89548      137587.75     -807624.98     -304.87373      0.36276402     0.057470281    28.09586       3530.9194    
      1090   2.18           346.14786      137072.11     -807622.66     -305.74259      0.36274848     0.057636535    28.071998      3530.497     
      1100   2.2            348.12142      141527.94     -807619.89     -308.43014      0.36273279     0.058145689    28.104309      3530.0391    
      1110   2.22           340.2717       137065.25     -807622.16     -304.9777       0.36271695     0.057497339    28.133333      3529.5503    
      1120   2.24           335.9433       137353.95     -807623.52     -302.6485       0.36270098     0.057060729    28.076589      3529.1274    
      1130   2.26           352.19913      131643.58     -807630.19     -297.97515      0.36268486     0.056182122    28.059812      3528.7242    
      1140   2.28           341.43393      132451.96     -807628.97     -297.27055      0.3626686      0.056051786    28.027861      3528.3571    
      1150   2.3            349.45163      132232.65     -807629.11     -297.91538      0.36265219     0.056175913    28.006404      3528.0137    
      1160   2.32           363.73262      133752.23     -807627.95     -300.75331      0.36263564     0.05671363     28.013204      3527.6626    
      1170   2.34           342.88155      139426.75     -807620.83     -304.64151      0.36261895     0.057449478    28.029096      3527.2944    
      1180   2.36           354.64263      139433.36     -807620.25     -306.67787      0.36260212     0.057836183    28.073143      3526.8795    
      1190   2.38           355.22915      140281.61     -807619.66     -307.05521      0.36258514     0.057910055    28.104921      3526.432     
      1200   2.4            341.96131      136309.84     -807621.17     -303.52425      0.36256802     0.057246825    28.064587      3526.0283    
      1210   2.42           357.69257      136465.27     -807624.46     -302.12158      0.36255076     0.056984986    28.057334      3525.6329    
      1220   2.44           355.75751      131100.36     -807629.47     -296.79938      0.36253335     0.055983821    28.07561       3525.2193    
      1230   2.46           357.72687      133540.48     -807627.84     -298.43231      0.3625158      0.056294558    28.078038      3524.8041    
      1240   2.48           348.5464       131375.35     -807628.76     -296.24777      0.36249811     0.055885206    28.044738      3524.4236    
      1250   2.5            354.80796      137777.77     -807623.66     -302.02656      0.36248028     0.056978141    27.991124      3524.0974    
      1260   2.52           364.18344      135528.15     -807623.46     -303.66254      0.3624623      0.057289613    28.037555      3523.7244    
      1270   2.54           366.58168      141274.19     -807619.97     -307.35099      0.36244418     0.057988383    28.131455      3523.2591    
      1280   2.56           359.65042      138052.09     -807621.68     -304.77033      0.36242592     0.057504385    28.077647      3522.848     
      1290   2.58           360.36445      137979.7      -807622.32     -304.11318      0.36240751     0.057383307    28.043486      3522.471     
      1300   2.6            365.1065       131938.07     -807627.82     -299.4335       0.36238896     0.056503187    28.010125      3522.1265    
      1310   2.62           348.81489      134476.37     -807625.85     -299.10067      0.36237027     0.056443293    28.051496      3521.7422    
      1320   2.64           345.64379      131680.16     -807629.19     -295.44935      0.36235143     0.05575715     28.063081      3521.3474    
      1330   2.66           342.89004      134301.79     -807625.75     -298.51004      0.36233245     0.056337715    28.034865      3520.9796    
      1340   2.68           344.54746      135644.15     -807622.41     -302.20246      0.36231333     0.057037594    28.045321      3520.6023    
      1350   2.7            361.53881      138886.15     -807620.66     -306.31081      0.36229407     0.057816077    28.082042      3520.1912    
      1360   2.72           362.1516       138692.51     -807621.31     -305.83564      0.36227466     0.057729481    28.065682      3519.796     
      1370   2.74           361.27591      139441.14     -807621.92     -305.17574      0.36225511     0.057608027    28.006646      3519.4554    
      1380   2.76           352.7466       136818.5      -807622.65     -303.39756      0.36223542     0.057275475    28.060056      3519.066     
      1390   2.78           355.48555      134909.97     -807625.62     -300.83322      0.36221558     0.056794487    28.049859      3518.6863    
      1400   2.8            358.96261      131539.53     -807629.93     -297.1243       0.3621956      0.056097372    28.038829      3518.3167    
      1410   2.82           353.90388      131890.21     -807631.22     -295.24633      0.36217548     0.055745905    28.048331      3517.9389    
      1420   2.84           337.73219      134804.33     -807625        -299.31614      0.36215522     0.056517495    28.059028      3517.552     
      1430   2.86           353.72123      135329.02     -807625.15     -301.54552      0.36213481     0.056941659    28.058742      3517.1658    
      1440   2.88           366.40983      137807.93     -807624.04     -304.51084      0.36211426     0.057504873    28.055641      3516.7826    
      1450   2.9            353.02892      137997.3      -807621.85     -304.99211      0.36209357     0.057599049    28.071823      3516.3859    
      1460   2.92           341.31008      140283.17     -807618.38     -306.82295      0.36207273     0.057948145    28.114089      3515.9536    
      1470   2.94           348.50351      134586.59     -807623.66     -302.77588      0.36205176     0.057187108    28.109845      3515.5259    
      1480   2.96           351.70977      135452.55     -807626.82     -299.98854      0.36203064     0.056663952    28.090361      3515.1156    
      1490   2.98           354.81828      130279.35     -807631.4      -295.99404      0.36200937     0.055912727    28.14731       3514.6585    
      1500   3              352.78345      132902.31     -807629.13     -297.96937      0.36198796     0.056289191    28.146364      3514.2034    
      1510   3.02           343.70254      131779.81     -807627.67     -9546.9687      0.36196642     0.056363086    28.044491      3513.8339    
      1520   3.04           345.8787       137381.2      -807624.28     -9663.0503      0.36194472     0.057051823    28.005277      3513.4968    
      1530   3.06           342.31087      136077.73     -807622.9      -9696.6719      0.36192289     0.057253783    27.975068      3513.1844    
      1540   3.08           352.92274      140157.96     -807620.36     -9824.0709      0.36190091     0.058009531    28.011671      3512.8415    
      1550   3.1            336.43771      138039.26     -807619.81     -9772.7148      0.36187879     0.057709809    28.000567      3512.5074    
      1560   3.12           357.94431      137838.08     -807624.66     -9710.1113      0.36185653     0.05734365     27.994857      3512.1776    
      1570   3.14           357.45251      132726.01     -807629.98     -9541.5457      0.36183412     0.056351665    28.026716      3511.822     
      1580   3.16           347.31296      132832.61     -807629.08     -9524.5069      0.36181157     0.056254541    27.98358       3511.5007    
      1590   3.18           338.95517      131436.28     -807629.15     -9488.338       0.36178888     0.056044432    27.989176      3511.1744    
      1600   3.2            342.46707      134450.43     -807627.81     -9546.533       0.36176605     0.056391729    27.974412      3510.8594    
      1610   3.22           347.9421       134755.11     -807626.51     -9612.9681      0.36174307     0.05678777     27.996067      3510.5269    
      1620   3.24           350.49579      138108.77     -807622.63     -9747.9203      0.36171995     0.057588669    27.939138      3510.2384    
      1630   3.26           354.55497      138262.96     -807621.48     -9802.045       0.36169669     0.057912151    27.961655      3509.9316    
      1640   3.28           350.1923       138613.79     -807621.82     -9768.6255      0.36167329     0.057718438    27.978189      3509.6115    
      1650   3.3            357.45505      135331.32     -807626.89     -9639.4858      0.36164974     0.056959117    28.00284       3509.2722    
      1660   3.32           352.30288      133678.65     -807627.36     -9599.3504      0.36162605     0.056725675    28.020074      3508.9196    
      1670   3.34           336.60839      131764.37     -807627.29     -9528.9817      0.36160222     0.056313555    28.005956      3508.5776    
      1680   3.36           334.05209      132075.61     -807628.86     -9466.0169      0.36157824     0.055945161    28.00089       3508.2393    
      1690   3.38           344.66079      133239.84     -807628.67     -9515.9835      0.36155413     0.05624422     27.99229       3507.9071    
      1700   3.4            351.87862      134426.28     -807625.43     -9649.7886      0.36152987     0.057038902    27.980223      3507.5834    
      1710   3.42           349.19748      138194.75     -807621.74     -9749.4282      0.36150546     0.057631752    27.99275       3507.2502    
      1720   3.44           349.53037      138481.17     -807621.8      -9743.197       0.36148092     0.057598828    28.010092      3506.9041    
      1730   3.46           344.63393      139173.66     -807620.58     -9749.4362      0.36145623     0.057639649    28.005863      3506.5609    
      1740   3.48           348.22805      135822.05     -807623.82     -9654.067       0.3614314      0.057079738    28.016308      3506.2101    
      1750   3.5            348.22143      135674        -807624.99     -9604.3999      0.36140643     0.056790004    28.009797      3505.8638    
      1760   3.52           352.03633      131708.68     -807630.08     -9447.9723      0.36138131     0.055868944    28.002007      3505.5229    
      1770   3.54           359.90851      133935.88     -807630.1      -9468.5427      0.36135605     0.055994497    27.994337      3505.1873    
      1780   3.56           356.25189      132113.56     -807627.81     -9520.9984      0.36133065     0.056308664    27.981841      3504.8603    
      1790   3.58           366.22673      136918.39     -807624.31     -9665.8727      0.36130511     0.057169515    27.906379      3504.5859    
      1800   3.6            352.43313      136478.1      -807622.63     -9654.1474      0.36127942     0.057104224    27.913348      3504.3058    
      1810   3.62           350.56226      140987.33     -807618.69     -9760.6439      0.3612536      0.057738278    27.939023      3504.0068    
      1820   3.64           359.15808      137225.55     -807621.24     -9716.3647      0.36122763     0.05748048     27.993313      3503.6699    
      1830   3.66           363.34987      137813.79     -807622.69     -9679.9035      0.36120151     0.057268922    27.973685      3503.3461    
      1840   3.68           365.60198      133710.78     -807628.07     -9512.9175      0.36117526     0.056285079    27.920935      3503.058     
      1850   3.7            351.17152      134115.96     -807625.68     -9518.8922      0.36114886     0.056324546    27.924099      3502.767     
      1860   3.72           363.16149      131578.05     -807628.63     -9476.78        0.36112232     0.056079484    27.986736      3502.433     
      1870   3.74           342.65137      134711.66     -807623.3      -9551.6141      0.36109564     0.056526496    28.000435      3502.0895    
      1880   3.76           376.56985      134366.26     -807627.44     -9570.3643      0.36106881     0.056641668    28.013463      3501.7373    
      1890   3.78           353.71678      138778.93     -807620.62     -9686.5108      0.36104184     0.057333356    27.970084      3501.4137    
      1900   3.8            351.5611       139672.9      -807618.62     -9741.7671      0.36101474     0.057664742    27.984472      3501.0803    
      1910   3.82           365.73457      137992.29     -807622.46     -9683.5942      0.36098748     0.057324725    28.011369      3500.729     
      1920   3.84           362.47178      136348.52     -807623.87     -9624.3178      0.36096009     0.056978145    28.012411      3500.377     
      1930   3.86           359.45177      134192.12     -807626.27     -9537.9969      0.36093255     0.056471414    27.998229      3500.0341    
      1940   3.88           352.23897      133766.15     -807625.55     -9533.3098      0.36090487     0.056447992    27.979643      3499.703     
      1950   3.9            357.32681      131706.91     -807628.67     -9462.2833      0.36087705     0.056031754    28.002839      3499.3568    
      1960   3.92           353.74905      134503.3      -807625.73     -9544.154       0.36084909     0.056520939    27.989729      3499.0189    
      1970   3.94           351.47872      134666.46     -807624.18     -9594.5741      0.36082098     0.056823955    28.00531       3498.6708    
      1980   3.96           356.68398      139595.81     -807620.92     -9728.2966      0.36079273     0.057620439    28.005874      3498.3223    
      1990   3.98           353.40948      137528.67     -807621.52     -9705.8591      0.36076434     0.057492066    27.946609      3498.0111    
      2000   4              342.33905      140298.29     -807620.37     -9696.326       0.36073581     0.05744014     27.943015      3497.7016    
      2010   4.02           366.65953      134672.98     -807627.72     -299.3474       0.36070713     0.056750316    28.058934      3497.3195    
      2020   4.04           354.7425       135001.46     -807625.98     -299.67182      0.36067831     0.056816358    28.038236      3496.9505    
      2030   4.06           335.46733      132722.18     -807626.74     -296.51604      0.36064935     0.056222551    28.031616      3496.5857    
      2040   4.08           352.47195      133043.98     -807629.85     -295.91809      0.36062025     0.056113703    28.029953      3496.2219    
      2050   4.1            340.99968      134057.16     -807626.93     -297.49008      0.36059101     0.056416367    28.023633      3495.8621    
      2060   4.12           344.57986      136143.56     -807623.84     -301.21922      0.36056162     0.057128221    28.021357      3495.5037    
      2070   4.14           348.8983       137092.34     -807622.99     -302.82086      0.36053209     0.057436687    28.058203      3495.1231    
      2080   4.16           356.28113      137934.19     -807624.04     -302.85394      0.36050242     0.057447688    28.025065      3494.7626    
      2090   4.18           348.15795      137195.95     -807624.48     -301.46161      0.36047261     0.05718831     28.033493      3494.3971    
      2100   4.2            340.17757      136616.18     -807624.02     -300.86038      0.36044265     0.057078998    28.028439      3494.0346    
      2110   4.22           335.74407      134162.55     -807626.26     -298.04939      0.36041256     0.056550421    27.980835      3493.7004    
      2120   4.24           337.68548      132594.82     -807629.19     -295.41984      0.36038232     0.056056207    27.9983        3493.3557    
      2130   4.26           338.5903       132559.91     -807628.08     -296.6737       0.36035193     0.056298875    28.016198      3493.0004    
      2140   4.28           342.633        133912.28     -807627.49     -297.89873      0.36032141     0.056536134    28.051573      3492.6245    
      2150   4.3            352.49196      136397.1      -807625.86     -300.80187      0.36029075     0.057091959    28.086195      3492.2288    
      2160   4.32           341.37345      136313.29     -807623.58     -301.59401      0.36025994     0.0572472      28.088686      3491.832     
      2170   4.34           343.12441      139454.49     -807621.28     -304.05498      0.36022899     0.057719291    28.072814      3491.4446    
      2180   4.36           339.90296      135722.07     -807623.54     -301.35608      0.36019789     0.057211892    28.119798      3491.0308    
      2190   4.38           334.92309      136991.61     -807624.24     -299.78469      0.36016666     0.056918501    28.059792      3490.6516    
      2200   4.4            343.78344      131207.95     -807629.38     -295.94681      0.36013528     0.056194719    28.059363      3490.2727    
      2210   4.42           340.0137       134436.9      -807627.31     -297.23393      0.36010377     0.05644406     28.077945      3489.8837    
      2220   4.44           345.93315      131010.27     -807630.16     -295.21142      0.36007211     0.056064919    28.097703      3489.4839    
      2230   4.46           357.9248       134313.48     -807628.19     -298.5604       0.3600403      0.056705946    28.090179      3489.0887    
      2240   4.48           342.22751      134690.96     -807625.37     -299.22838      0.36000836     0.05683786     28.052733      3488.7146    
      2250   4.5            336.66598      139678.35     -807619.73     -303.83706      0.35997627     0.057718414    28.0532        3488.3403    
      2260   4.52           342.34764      136904.38     -807622.46     -301.84144      0.35994404     0.057344449    28.067261      3487.9585    
      2270   4.54           350.67438      137603.14     -807623.63     -301.51133      0.35991167     0.057286887    28.003195      3487.6121    
      2280   4.56           339.26175      134692.6      -807624.51     -298.90222      0.35987916     0.056796288    28.00629       3487.2638    
      2290   4.58           357.33368      133850.71     -807628.54     -297.13125      0.35984651     0.0564649      28.018736      3486.9087    
      2300   4.6            362.88059      131429.81     -807630.85     -295.33783      0.35981371     0.056129204    28.049397      3486.537     
      2310   4.62           348.68355      132738.03     -807629.22     -294.72244      0.35978077     0.056017377    28.046183      3486.1672    
      2320   4.64           344.00855      134674.26     -807625.2      -297.85214      0.35974769     0.05661744     28.042788      3485.7993    
      2330   4.66           354.36736      135806.14     -807623.78     -300.44522      0.35971447     0.057115622    28.11617       3485.3924    
      2340   4.68           356.81232      138762.82     -807621.96     -302.24986      0.35968111     0.05746402     28.085738      3485.0021    
      2350   4.7            352.56469      137209.65     -807622.51     -300.78784      0.3596476      0.057191387    28.031589      3484.6407    
      2360   4.72           373.33645      137931.69     -807624.47     -301.28074      0.35961396     0.057290466    28.014827      3484.2882    
      2370   4.74           350.63916      134025.03     -807624.46     -297.88582      0.35958017     0.056650223    28.048474      3483.9179    
      2380   4.76           360.15206      135434.64     -807626.7      -296.46842      0.35954624     0.05638599     28.056432      3483.5437    
      2390   4.78           351.76307      131247.3      -807628.9      -292.78463      0.35951216     0.05569064     28.082086      3483.1563    
      2400   4.8            362.42014      134956.71     -807626.04     -296.6118       0.35947795     0.056423977    28.064164      3482.7783    
      2410   4.82           374.42946      133550        -807626.79     -297.35992      0.35944359     0.056571697    28.065171      3482.4001    
      2420   4.84           360.43029      139676.87     -807620.32     -301.50664      0.35940909     0.057366101    28.042464      3482.0337    
      2430   4.86           365.26589      138023.26     -807621.34     -301.00028      0.35937446     0.057275279    27.999275      3481.6894    
      2440   4.88           374.01624      139937.57     -807620.56     -302.72741      0.35933967     0.057609499    27.980026      3481.3549    
      2450   4.9            368.77288      135352.28     -807622.83     -299.64239      0.35930475     0.057027957    27.971433      3481.0245    
      2460   4.92           360.65494      136204.11     -807623.43     -297.73475      0.35926969     0.056670425    27.967439      3480.6959    
      2470   4.94           353.33986      132217.49     -807625.78     -294.37545      0.35923448     0.056036512    27.955699      3480.3731    
      2480   4.96           366.22989      133612.2      -807626.78     -295.10288      0.35919913     0.056180511    27.998065      3480.0287    
      2490   4.98           374.34405      132535.6      -807628.05     -295.01333      0.35916364     0.056169012    27.988525      3479.6889    
      2500   5              353.55757      135943.29     -807622.41     -297.7792       0.35912801     0.056701246    27.99663       3479.345     
[...]
     98740   197.48         351.21162      135100.52     -807625.68     -9642.3612      0.36236891     0.056863031    27.19223       44.064341    
     98750   197.5          341.63841      136429.9      -807623.14     -9682.917       0.36238762     0.057099249    27.219292      43.714848    
     98760   197.52         350.76147      137945.65     -807622.49     -9742.6929      0.36240618     0.0574488      27.215624      43.365352    
     98770   197.54         359.35089      136989.11     -807624.66     -9714.0216      0.36242459     0.057276826    27.202113      43.015854    
     98780   197.56         351.55171      137680.31     -807623.6      -9709.5542      0.36244287     0.057247598    27.214035      42.666351    
     98790   197.58         352.99719      135185.16     -807626.55     -9626.1712      0.362461       0.056753133    27.205995      42.316845    
     98800   197.6          356.70063      134559.93     -807626.75     -9634.7962      0.36247899     0.056801164    27.190666      41.967338    
     98810   197.62         348.15721      133027.19     -807627.31     -9582.9754      0.36249683     0.056492878    27.201617      41.617826    
     98820   197.64         341.95984      135141.16     -807625.89     -9601.5211      0.36251453     0.056599443    27.180115      41.268313    
     98830   197.66         343.18497      135072.99     -807625.22     -9629.7679      0.36253209     0.056763204    27.182505      40.918797    
     98840   197.68         348.92281      136991.25     -807623.66     -9705.1531      0.36254951     0.057204818    27.214015      40.569272    
     98850   197.7          352.8822       136677.7      -807622.87     -9749.9573      0.36256678     0.057466168    27.221124      40.219742    
     98860   197.72         357.78695      137231.95     -807623.86     -9739.7444      0.36258391     0.057403261    27.200831      39.870211    
     98870   197.74         337.94751      137177.52     -807622.61     -9693.5615      0.3626009      0.057128396    27.204361      39.520676    
     98880   197.76         354.74289      135257.6      -807626.1      -9656.8987      0.36261774     0.056909682    27.19221       39.17114     
     98890   197.78         342.3489       134514.44     -807625.25     -9628.8207      0.36263445     0.056741601    27.202868      38.821598    
     98900   197.8          343.70791      133537.12     -807627.06     -9576.9168      0.362651       0.05643316     27.207241      38.472052    
     98910   197.82         348.21299      134204.44     -807626.6      -9612.755       0.36266742     0.056641777    27.216275      38.122501    
     98920   197.84         358.1558       134658.57     -807627.05     -9643.8781      0.36268369     0.056822616    27.209428      37.772947    
     98930   197.86         358.12917      136584.47     -807624.64     -9720.6071      0.36269982     0.057272164    27.217119      37.423389    
     98940   197.88         355.35296      137163.88     -807623.85     -9734.0002      0.36271581     0.057348545    27.218417      37.073827    
     98950   197.9          346.0101       137562.67     -807622.44     -9740.4463      0.36273165     0.057384017    27.208347      36.724262    
     98960   197.92         358.85718      135990.66     -807625.21     -9710.0197      0.36274735     0.057202288    27.174183      36.374699    
     98970   197.94         343.29276      135346.31     -807623.64     -9692.9256      0.36276291     0.057099137    27.154043      36.025135    
     98980   197.96         340.76125      134803.53     -807625.44     -9625.3333      0.36277832     0.056698555    27.182907      35.675563    
     98990   197.98         347.55718      133396.34     -807628.41     -9562.3951      0.36279359     0.056325443    27.201477      35.325985    
     99000   198            347.80816      134743.33     -807625.55     -9652.8895      0.36280872     0.056856112    27.204056      34.976403    
     99010   198.02         364.39575      134260.6      -807627.82     -301.87591      0.3628237      0.056895815    27.269468      34.626808    
     99020   198.04         353.16591      137923.29     -807623.71     -304.36094      0.36283855     0.057361832    27.2363        34.277215    
     99030   198.06         345.92058      136474.54     -807623.93     -303.26581      0.36285324     0.057153122    27.259604      33.927614    
     99040   198.08         346.45769      138572.33     -807622.12     -305.11762      0.3628678      0.057499806    27.207924      33.578017    
     99050   198.1          344.95727      135455.62     -807624.95     -302.23891      0.36288221     0.056955047    27.265548      33.228409    
     99060   198.12         342.52409      135873.89     -807625.35     -301.49473      0.36289648     0.056812577    27.280749      32.878796    
     99070   198.14         337.02931      133265.97     -807626.94     -299.2024       0.36291061     0.056378424    27.269318      32.529181    
     99080   198.16         342.49637      134773.48     -807626.32     -300.61262      0.36292459     0.056641967    27.27947       32.17956     
     99090   198.18         342.9876       134068.23     -807626.35     -300.7043       0.36293843     0.056657082    27.280858      31.829937    
     99100   198.2          367.71226      135703.83     -807627.86     -302.5846       0.36295213     0.057009206    27.292178      31.480308    
     99110   198.22         352.42563      136407.53     -807624.06     -304.35098      0.36296568     0.057339864    27.237809      31.130683    
     99120   198.24         344.11974      139052.9      -807621.46     -305.8256       0.36297909     0.057615555    27.169858      30.781062    
     99130   198.26         351.49359      136840.31     -807624.2      -304.12209      0.36299236     0.057292531    27.137174      30.431441    
     99140   198.28         350.92427      135606.73     -807625.25     -302.99939      0.36300548     0.057078966    27.164946      30.081814    
     99150   198.3          335.76724      134876.57     -807625.09     -301.11087      0.36301846     0.056721178    27.196565      29.732179    
     99160   198.32         341.96996      134589.74     -807626.44     -300.61062      0.3630313      0.056624941    27.219665      29.382537    
     99170   198.34         352.51634      133243.13     -807628.47     -300.06342      0.36304399     0.05651989     27.260534      29.032888    
     99180   198.36         352.69491      134612.78     -807627.06     -301.47696      0.36305655     0.056784183    27.31342       28.683229    
     99190   198.38         334.19308      136681.39     -807621.92     -303.99732      0.36306895     0.057256943    27.28393       28.33357     
     99200   198.4          354.79258      136993.47     -807623.4      -305.40206      0.36308122     0.057519578    27.31477       27.983905    
     99210   198.42         341.171        138139.32     -807621.83     -305.03348      0.36309334     0.057448241    27.295638      27.634238    
     99220   198.44         343.56565      137116.57     -807623.69     -303.51703      0.36310532     0.057160758    27.27709       27.284569    
     99230   198.46         337.05599      136777.82     -807623.3      -302.95602      0.36311715     0.057053244    27.277547      26.934897    
     99240   198.48         340.78755      133970.3      -807626.16     -300.50786      0.36312885     0.05659038     27.282953      26.585222    
     99250   198.5          361.73572      132920.14     -807630.37     -299.11532      0.3631404      0.056326351    27.340389      26.235537    
     99260   198.52         345.73957      133189.33     -807627.72     -299.49001      0.3631518      0.056395137    27.3123        25.885851    
     99270   198.54         356.74158      136086.46     -807625.98     -302.57785      0.36316306     0.056974823    27.29439       25.536164    
     99280   198.56         341.91175      135932.17     -807623.35     -303.15817      0.36317418     0.057082348    27.289775      25.186474    
     99290   198.58         345.28121      139337.58     -807621.45     -305.32884      0.36318516     0.057489331    27.237058      24.836786    
     99300   198.6          353.58985      137705.58     -807623.55     -304.312        0.36319599     0.057296165    27.22832       24.487095    
     99310   198.62         349.91141      138166.32     -807622.16     -304.96945      0.36320668     0.05741826     27.256699      24.137398    
     99320   198.64         353.95666      134908.69     -807625.61     -301.99972      0.36321723     0.056857482    27.216525      23.787701    
     99330   198.66         358.13354      134581.13     -807627.38     -300.59049      0.36322763     0.056590544    27.256377      23.437997    
     99340   198.68         348.09195      133865.04     -807626.92     -299.56515      0.36323789     0.056395916    27.218667      23.088293    
     99350   198.7          358.73224      133943.13     -807626.9      -300.98126      0.36324801     0.056660935    27.272731      22.738581    
     99360   198.72         339.87056      135818.24     -807622.23     -302.88023      0.36325798     0.057016858    27.2809        22.388864    
     99370   198.74         348.99267      136912.76     -807622.79     -303.44865      0.36326781     0.057122316    27.223816      22.039149    
     99380   198.76         354.10154      138009.04     -807621.09     -305.75244      0.3632775      0.057554456    27.212609      21.689432    
     99390   198.78         351.42761      137407.99     -807620.3      -306.05001      0.36328704     0.057608957    27.255308      21.339707    
     99400   198.8          358.0067       136927.33     -807623.46     -303.64284      0.36329644     0.057154366    27.260887      20.989978    
     99410   198.82         356.88826      134250.47     -807626.08     -300.73115      0.3633057      0.05660486     27.244905      20.640247    
     99420   198.84         354.37624      134684.67     -807626.15     -300.18384      0.36331481     0.056500426    27.188338      20.290517    
     99430   198.86         356.46188      133753.86     -807626.25     -300.3687       0.36332378     0.056533825    27.233494      19.94078     
     99440   198.88         351.74876      135914.78     -807623.71     -302.08965      0.36333261     0.056856351    27.251817      19.591039    
     99450   198.9          356.35147      135380.59     -807625.17     -301.29072      0.36334129     0.056704629    27.251464      19.241293    
     99460   198.92         364.25392      138443.17     -807622.73     -304.64676      0.36334983     0.057334907    27.248742      18.891545    
     99470   198.94         361.52398      136810.18     -807620.85     -306.21057      0.36335823     0.057627887    27.274819      18.541791    
     99480   198.96         362.38765      138164.85     -807621.84     -305.29498      0.36336648     0.057454271    27.301582      18.192032    
     99490   198.98         364.76964      134875.73     -807626.19     -301.32798      0.3633746      0.056706444    27.327881      17.842267    
     99500   199            358.76399      135582.31     -807624.87     -301.78461      0.36338256     0.056791131    27.300791      17.492501    
     99510   199.02         350.90117      133592.04     -807624.56     -9636.4653      0.36339039     0.05666852     27.267838      17.142735    
     99520   199.04         359.68399      134951.03     -807626        -9631.7882      0.36339807     0.056639818    27.237229      16.792966    
     99530   199.06         353.62777      134948.97     -807626.13     -9606.1887      0.3634056      0.056488108    27.241598      16.443194    
     99540   199.08         346.11089      138055.59     -807621.53     -9723.3261      0.363413       0.057175758    27.196875      16.093421    
     99550   199.1          347.60347      137607.05     -807619.71     -9797.6994      0.36342025     0.057611944    27.191514      15.743645    
     99560   199.12         364.1576       137209.06     -807622.82     -9779.3754      0.36342736     0.057503071    27.225814      15.393864    
     99570   199.14         352.30708      136664.29     -807623.39     -9719.2224      0.36343432     0.057148275    27.22054       15.044079    
     99580   199.16         351.46901      136576.38     -807623.72     -9715.3316      0.36344114     0.057124325    27.215232      14.694291    
     99590   199.18         353.43567      135499.53     -807625.27     -9688.474       0.36344782     0.05696536     27.208674      14.344499    
     99600   199.2          348.18796      134843.2      -807626.33     -9641.8548      0.36345435     0.056690234    27.203933      13.994705    
     99610   199.22         354.28596      133960.5      -807629.04     -9593.5871      0.36346074     0.056405448    27.216654      13.644906    
     99620   199.24         342.74049      134595.8      -807624.59     -9694.8884      0.36346699     0.057000068    27.20644       13.295104    
     99630   199.26         352.26588      134911.87     -807625.88     -9709.1833      0.3634731      0.057083155    27.196565      12.945299    
     99640   199.28         354.2397       136056.74     -807625.86     -9723.6824      0.36347906     0.057167462    27.222227      12.595489    
     99650   199.3          344.60086      135675.39     -807624.41     -9735.041       0.36348487     0.057233326    27.211673      12.245676    
     99660   199.32         343.57639      137155.82     -807623.43     -9766.4697      0.36349055     0.057417202    27.251584      11.895858    
     99670   199.34         347.34611      135500.24     -807626.19     -9701.3902      0.36349608     0.057033731    27.20733       11.546038    
     99680   199.36         349.65322      135476.9      -807627.41     -9674.5289      0.36350147     0.056874973    27.181742      11.196216    
     99690   199.38         339.46334      133996.34     -807627.42     -9633.3916      0.36350671     0.056632316    27.20536       10.846389    
     99700   199.4          344.39526      134591.08     -807627.46     -9654.5088      0.36351181     0.056755662    27.170554      10.496561    
     99710   199.42         341.85534      134774.19     -807625.96     -9693.6322      0.36351677     0.056984879    27.175685      10.146728    
     99720   199.44         354.31651      134777.47     -807627.69     -9694.5843      0.36352158     0.056989721    27.183378      9.7968911    
     99730   199.46         340.81367      136079.98     -807624.87     -9724.3934      0.36352625     0.05716422     27.173199      9.4470512    
     99740   199.48         343.07771      136568.55     -807624.37     -9751.0639      0.36353078     0.057320287    27.158799      9.0972082    
     99750   199.5          351.25441      135973.61     -807625.5      -9751.1958      0.36353516     0.057320371    27.146976      8.7473619    
     99760   199.52         350.3379       134315.96     -807627.57     -9679.1411      0.3635394      0.056896149    27.15954       8.3975114    
     99770   199.54         336.18811      135387.79     -807626.16     -9658.4705      0.3635435      0.056774003    27.161328      8.0476572    
     99780   199.56         339.65782      134697.53     -807626.5      -9660.7361      0.36354745     0.056786703    27.192996      7.6977984    
     99790   199.58         339.80141      135104.14     -807625.84     -9679.0531      0.36355126     0.056893775    27.223475      7.3479352    
     99800   199.6          346.61086      135387.12     -807626.08     -9696.4326      0.36355493     0.056995357    27.22451       6.9980684    
     99810   199.62         350.53503      135840.92     -807626.11     -9707.4001      0.36355845     0.057059271    27.211813      6.6481985    
     99820   199.64         352.31545      137150.57     -807624.53     -9760.82        0.36356183     0.057372735    27.224173      6.2983247    
     99830   199.66         348.79303      136265.91     -807624.43     -9743.2759      0.36356507     0.057269104    27.235815      5.9484471    
     99840   199.68         345.97688      136193.67     -807624.44     -9723.5352      0.36356816     0.057152586    27.223117      5.5985664    
     99850   199.7          351.744        134458.92     -807627.06     -9661.0154      0.36357111     0.056784649    27.213504      5.2486824    
     99860   199.72         334.9411       135668.07     -807623.08     -9704.939       0.36357392     0.057042379    27.21051       4.8987949    
     99870   199.74         353.6035       133156.27     -807627.32     -9648.5242      0.36357658     0.056710376    27.225706      4.5489036    
     99880   199.76         348.45574      136096.84     -807625.09     -9686.5793      0.3635791      0.056933655    27.239457      4.1990086    
     99890   199.78         350.57531      134540.96     -807625.58     -9677.0506      0.36358148     0.056877277    27.281752      3.8491095    
     99900   199.8          354.11099      136463.71     -807623.26     -9757.5471      0.36358371     0.057350047    27.221311      3.4992079    
     99910   199.82         349.40593      136162.02     -807623.69     -9717.8663      0.3635858      0.057116494    27.22671       3.1493028    
     99920   199.84         352.90967      137377.56     -807623.43     -9734.8058      0.36358775     0.057215749    27.182093      2.7993946    
     99930   199.86         356.09935      136164.8      -807624.34     -9714.4644      0.36358955     0.057095911    27.201355      2.4494827    
     99940   199.88         356.8914       135644.06     -807624.83     -9694.7143      0.36359121     0.056979571    27.151877      2.0995676    
     99950   199.9          362.52624      134621.41     -807626.88     -9650.5903      0.36359273     0.056720001    27.202915      1.7496485    
     99960   199.92         356.08651      134901.66     -807625.92     -9649.3729      0.3635941      0.056712632    27.212232      1.3997259    
     99970   199.94         362.38612      134905.24     -807625.54     -9685.1606      0.36359533     0.056922776    27.200621      1.0497997    
     99980   199.96         356.68371      135031.8      -807624.6      -9689.0627      0.36359641     0.05694554     27.170441      0.6998701    
     99990   199.98         360.68157      137230.45     -807622.54     -9770.0483      0.36359736     0.057421368    27.149761      0.34993689   
    100000   200            354.71857      136547.73     -807623.25     -9722.0264      0.36359816     0.057139003    27.092025      0            
Loop time of 3499.39 on 32 procs for 100000 steps with 1080 atoms

Performance: 4.938 ns/day, 4.860 hours/ns, 28.576 timesteps/s, 30.863 katom-step/s
67.6% CPU use with 32 MPI tasks x 1 OpenMP threads

MPI task timing breakdown:
Section |  min time  |  avg time  |  max time  |%varavg| %total
---------------------------------------------------------------
Pair    | 2446.2     | 2797       | 3171.2     | 315.2 | 79.93
Neigh   | 0.0012293  | 0.0057153  | 0.021387   |   8.1 |  0.00
Comm    | 253.45     | 626.85     | 978.09     | 666.5 | 17.91
Output  | 2.3812     | 2.4193     | 2.4262     |   0.5 |  0.07
Modify  | 65.121     | 66.562     | 68.016     |   8.9 |  1.90
Other   |            | 6.576      |            |       |  0.19

Nlocal:          33.75 ave          45 max          28 min
Histogram: 5 4 8 3 4 4 0 3 0 1
Nghost:        1036.09 ave        1055 max        1019 min
Histogram: 2 2 7 1 7 3 4 1 3 2
Neighs:              0 ave           0 max           0 min
Histogram: 32 0 0 0 0 0 0 0 0 0
FullNghs:         5311 ave        7108 max        4354 min
Histogram: 5 4 8 3 4 4 0 3 0 1

Total # of neighbors = 169952
Ave neighs/atom = 157.36296
Neighbor list builds = 3
Dangerous builds = 0

Total wall time: 1:01:55
