
units		metal
atom_style	atomic

read_data ${STRUCTURE}.data
read_data BaTiO3-sc333.data
Reading data file ...
  orthogonal box = (0 0 0) to (11.898253 11.898253 12.912076)
  2 by 4 by 4 MPI processor grid
  reading atoms ...
  135 atoms
  read_data CPU = 0.504 seconds
replicate $L $L $L
replicate 2 $L $L
replicate 2 2 $L
replicate 2 2 2
Replication is creating a 2x2x2 = 8 times larger system...
  orthogonal box = (0 0 0) to (23.796507 23.796507 25.824152)
  2 by 4 by 4 MPI processor grid
  1080 atoms
  replicate CPU = 0.004 seconds

pair_style allegro
pair_coeff	* * ${MODEL}.pth Ba Ti O
pair_coeff	* * BaTiO3-E0.pth Ba Ti O
mass 1 137.3
mass 2 47.9
mass 3 15.9994

timestep 0.002
compute polarization all allegro polarization 3
compute allegro will evaluate the quantity polarization of length 3 (src/compute_allegro.cpp:53)
compute polarizability all allegro polarizability 9
compute allegro will evaluate the quantity polarizability of length 9 (src/compute_allegro.cpp:53)

thermo_style custom pe fmax fnorm spcpu cpuremain

variable efield equal 1e-2*36.36
fix born all addbornforce 0.0 0.0 ${efield}
fix born all addbornforce 0.0 0.0 0.3636

thermo 10
min_style fire
#minimize 0.0 1e-6 100 100
velocity all create ${TEMP} ${SEED} dist gaussian rot yes mom yes
velocity all create 330 ${SEED} dist gaussian rot yes mom yes
velocity all create 330 29908 dist gaussian rot yes mom yes
fix nvt all nvt temp ${TEMP} ${TEMP} $(100*dt)
fix nvt all nvt temp 330 ${TEMP} $(100*dt)
fix nvt all nvt temp 330 330 $(100*dt)
fix nvt all nvt temp 330 330 0.2000000000000000111
run 5000
Neighbor list info ...
  update: every = 1 steps, delay = 0 steps, check = yes
  max neighbors/atom: 2000, page size: 100000
  master list distance cutoff = 8
  ghost atom cutoff = 8
  binsize = 8, bins = 3 3 4
  1 neighbor lists, perpetual/occasional/extra = 1 0 0
  (1) pair allegro/kk, perpetual
      attributes: full, newton on, kokkos_device
      pair build: full/bin/kk/device
      stencil: full/bin/3d
      bin: kk/device
Per MPI rank memory allocation (min/avg/max) = 3.516 | 3.516 | 3.516 Mbytes
    PotEng          Fmax          Fnorm          S/CPU         CPULeft    
-807708.29      1.5958955      37.044937      0              0            
-807646.65      3.3424606      44.285429      2.260795       2207.1892    
-807634.47      2.6424755      35.447843      25.766517      1198.02      
-807606.21      3.2002668      37.533378      25.825614      861.22443    
-807601.66      4.1924346      50.495032      25.731084      692.80943    
-807568.69      4.3759404      41.185986      25.720763      591.62041    
-807600.43      3.4562249      39.803109      25.807218      523.92424    
-807645.5       4.0220755      34.703277      25.783796      475.48391    
-807683.27      2.9884781      34.263304      25.767838      439.07146    
-807668.33      2.8919451      34.851798      25.76373       410.66782    
-807650.03      3.5035526      36.52626       25.834374      387.81526    
-807659.37      2.6230126      28.932713      25.784274      369.08078    
-807625.63      3.3831944      32.547402      25.751062      353.42442    
-807587.07      3.8686893      41.809294      25.733276      340.12701    
-807564.44      3.8183142      40.958385      25.829462      328.62351    
-807632.1       4.0183735      35.550084      25.78069       318.62585    
-807651.07      3.6433073      33.916292      25.780583      309.82946    
-807663.62      2.9950619      36.12726       25.771224      302.02632    
-807643.61      4.9347748      47.365914      25.774156      295.04592    
-807678.31      3.2571787      37.49448       25.709872      288.784      
-807639.69      4.4323176      40.974365      25.682599      283.11928    
-807616.61      3.3529158      39.540824      25.777023      277.92443    
-807558.8       4.9038908      47.505139      25.787599      273.16315    
-807604.16      4.0838533      49.966453      25.773186      268.78664    
-807612.4       5.2402122      40.006608      25.735242      264.75387    
-807641.13      3.4579796      35.922885      25.791213      260.9966     
-807641.75      4.3700847      44.856894      25.778894      257.50191    
-807680.58      2.9579534      37.494866      25.757246      254.24307    
-807664.35      3.7899219      34.598084      25.72079       251.19854    
-807636.76      2.9164505      32.284895      25.781888      248.3222     
-807607.47      3.4682906      33.519884      25.812057      245.60466    
-807601.69      3.5412072      41.950654      25.760694      243.04913    
-807596.75      3.9459095      38.221048      25.727824      240.63633    
-807604.62      3.7204821      35.097333      25.809749      238.32874    
-807640.8       3.5790061      31.420903      25.802935      236.13548    
-807668.95      3.1306908      34.248149      25.781943      234.04961    
-807675.7       3.0664547      34.873676      25.712559      232.07157    
-807640.91      5.4552587      41.195656      25.795845      230.16371    
-807645.5       3.5891245      33.16149       25.762668      228.34193    
-807618.24      4.3380427      36.416552      25.76481       226.59329    
-807599.21      4.8405399      45.20636       25.743307      224.91639    
-807566.08      4.7527484      42.804889      25.797045      223.2933     
-807619.59      3.2239775      37.232561      25.793011      221.72969    
-807645.9       5.3655292      36.97171       25.730483      220.23079    
-807670.54      3.5357624      36.115363      25.707329      218.78599    
-807640.7       5.9203187      47.040259      25.772945      217.3781     
-807663.31      3.32225        36.013124      25.75872       216.01666    
-807645.12      4.2425503      36.827372      25.740007      214.69936    
-807622.17      3.48491        37.815475      25.76947       213.41657    
-807565.86      4.6076035      43.747345      25.800443      212.16602    
-807596.71      4.6569021      43.49502       25.78583       210.95196    
-807622.62      3.8664027      36.185959      25.747644      209.77537    
-807650.6       3.1196371      33.722811      25.759188      208.6276     
-807642.39      3.655957       40.246423      25.75228       207.50936    
-807667.74      2.5789622      35.148295      25.747223      206.41879    
-807666.47      2.8325392      34.152843      25.726151      205.35633    
-807640.55      2.7322789      31.899504      25.746982      204.31544    
-807601.58      2.5074388      35.352234      25.784548      203.29304    
-807594.35      3.8225338      37.806174      25.802646      202.29045    
-807605.94      3.4567926      41.067641      25.725523      201.31739    
-807614.6       3.9663835      35.167394      25.75134       200.36096    
-807634.98      3.7489134      34.719076      25.791724      199.41877    
-807658.34      3.3967343      36.58405       25.795595      198.49406    
-807672.71      3.4720484      37.945287      25.696584      197.59676    
-807644.87      4.2088132      40.112202      25.718166      196.71312    
-807631.35      3.7867399      36.258557      25.79645       195.8368     
-807611.92      4.0772429      37.807492      25.792267      194.97571    
-807603.69      4.0199582      46.214741      25.763294      194.13156    
-807578.7       3.4363199      41.64029       25.802293      193.2971     
-807611.71      3.6263429      37.482293      25.817339      192.47418    
-807641.52      4.1207361      37.444559      25.832878      191.66227    
-807670.23      4.4623675      37.389147      25.790214      190.86621    
-807649.45      4.8369761      41.089831      25.782551      190.08216    
-807649.65      4.1730175      36.554298      25.799861      189.30745    
-807642.18      3.9863796      35.101502      25.805502      188.54272    
-807623.25      3.5773638      37.998571      25.791087      187.78927    
-807579.34      3.4922773      40.550026      25.795186      187.0451     
-807585.39      3.1581425      39.835443      25.837852      186.30667    
-807623.23      3.0357939      34.382692      25.800572      185.58029    
-807653.12      3.0348964      32.897496      25.743528      184.86705    
-807651.07      5.3438702      36.15525       25.747666      184.16161    
-807652.47      3.8619847      37.527696      25.685658      183.46884    
-807662.86      3.3037008      34.143987      25.721824      182.78069    
-807640.34      4.1392475      34.106828      25.731222      182.09903    
-807605.42      3.5477923      37.066774      25.786377      181.42024    
-807581.98      3.7937888      40.389688      25.826307      180.74537    
-807603.02      4.3738091      42.967233      25.797634      180.07925    
-807620.77      3.5194376      36.378694      25.743338      179.42342    
-807637.69      3.9022045      35.449374      25.801469      178.76958    
-807647.28      3.8638584      38.604252      25.794046      178.12222    
-807669.13      3.1652909      37.050983      25.736434      177.48459    
-807649.73      3.5300107      37.21905       25.730713      176.85283    
-807630.29      2.8962098      34.585943      25.776591      176.22328    
-807604.33      4.4002543      37.620562      25.842314      175.59461    
-807604.5       4.7417894      43.046864      25.757046      174.97662    
-807594.13      4.4780586      40.465216      25.752033      174.36378    
-807614.59      3.0257509      36.709892      25.811074      173.75189    
-807637.99      4.4228964      36.977485      25.811046      173.14462    
-807663.98      2.9948979      36.356705      25.712374      172.54794    
-807657.64      4.3159631      37.753136      25.703244      171.95602    
-807643.19      4.8250451      36.425425      25.65377       171.37115    
-807633.26      4.4773822      34.489329      25.784946      170.78232    
-807621.09      4.2675319      36.622533      25.764879      170.1986     
-807594.91      4.3530536      38.596881      25.751834      169.61944    
-807587.15      4.3137898      38.44569       25.781757      169.04223    
-807622.07      4.132827       33.521463      25.856463      168.46442    
-807652.33      3.3257227      33.643418      25.819759      167.89225    
-807658.57      4.2281101      34.850158      25.768166      167.32639    
-807646.56      4.6105632      38.318931      25.813624      166.76133    
-807653.79      5.1159384      34.327289      25.767665      166.20202    
-807639.52      3.9747018      34.552357      25.789762      165.64464    
-807613.43      4.3797976      36.993586      25.800976      165.08973    
-807579.97      4.5292362      40.245978      25.824146      164.53659    
-807603.76      3.7458026      39.08895       25.763938      163.9895     
-807627.4       4.7857645      35.743413      25.733358      163.44676    
-807646.45      3.3338606      33.967352      25.770318      162.90482    
-807641.62      4.6879868      39.942955      25.734788      162.36732    
-807661.19      2.9324052      35.968799      25.758779      161.83118    
-807651.7       3.4307924      36.15082       25.693982      161.30072    
-807634.16      3.2576465      33.449279      25.755253      160.76966    
-807598.61      4.0790712      37.69246       25.789911      160.23933    
-807601.51      3.8517544      40.176594      25.746759      159.7134     
-807605.92      3.1493287      37.637843      25.741672      159.18995    
-807623.64      2.8142004      34.131923      25.717772      158.66981    
-807634.27      4.1491258      35.751071      25.768152      158.14948    
-807657.9       3.0181717      34.946809      25.755318      157.63185    
-807657.57      3.6159969      36.132707      25.642959      157.12132    
-807643.48      4.4555992      35.754333      25.669757      156.61149    
-807624.12      3.8025323      35.044583      25.764373      156.09938    
-807616.2       3.4605441      35.808445      25.792355      155.58799    
-807601.84      3.8017225      39.944391      25.710079      155.08203    
-807596.14      4.0695104      38.434604      25.771093      154.57526    
-807618.92      3.3187738      35.446663      25.785299      154.0697     
-807646.81      3.208909       34.412156      25.734788      153.568      
-807659.25      2.5360266      35.49869       25.719643      153.06862    
-807645.55      3.9726412      37.730216      25.728771      152.5705     
-807641.33      3.5181292      35.321193      25.773821      152.07218    
-807634.35      3.7137433      34.021124      25.738831      151.57687    
-807615.8       3.4680121      36.746368      25.748574      151.08271    
-807586.01      3.5289739      39.503882      25.765769      150.58941    
-807601.39      4.1622342      37.6605        25.772317      150.09735    
-807630.62      3.5300549      34.891941      25.721963      149.6087     
-807649.81      3.6662912      34.259887      25.749574      149.12041    
-807644.55      4.3575179      37.293554      25.773988      148.6326     
-807649.66      3.2548492      36.37721       25.746236      148.14721    
-807648.53      4.1581116      34.929464      25.702907      147.66476    
-807631.62      3.2435199      34.671713      25.740566      147.18221    
-807596.45      2.9248657      37.692455      25.785787      146.6993     
-807592.43      3.4189007      39.282061      25.792369      146.21745    
-807611.72      2.9869712      36.77922       25.765199      145.73782    
-807632.17      3.1976125      33.646379      25.794441      145.25838    
-807636.65      3.1876588      34.859956      25.790757      144.78028    
-807650.1       3.245286       36.073267      25.747704      144.30486    
-807655.49      2.7040382      36.009585      25.725184      143.83135    
-807645.1       3.4340558      34.906483      25.724634      143.35896    
-807616.2       3.904381       36.838331      25.777816      142.88586    
-807603.2       3.278855       38.455455      25.797336      142.41321    
-807604.21      3.6657503      40.76027       25.736038      141.94366    
-807609.95      3.0919608      37.150622      25.729445      141.47534    
-807619.43      3.4005077      35.911519      25.768485      141.00677    
-807642.89      3.4470863      35.647247      25.793994      140.53839    
-807657.95      3.0448574      36.217334      25.754348      140.07227    
-807649.24      3.6097097      36.158206      25.772836      139.60652    
-807635.05      3.5426211      35.23586       25.814088      139.14045    
-807624.51      3.7992361      34.7113        25.791912      138.67602    
-807613.27      4.1940235      39.338214      25.746124      138.21392    
-807599.2       4.0777061      38.280283      25.74849       137.75264    
-807603.11      3.2184406      37.643013      25.741426      137.29244    
-807631.44      3.445242       34.867722      25.759176      136.83257    
-807652.77      3.9653461      34.901989      25.708282      136.37505    
-807649.69      2.9686309      35.61968       25.736558      135.9175     
-807643.85      3.8283746      35.687632      25.785224      135.45936    
-807640.8       4.3813607      34.55859       25.746813      135.00313    
-807631.37      3.1901711      34.457731      25.723732      134.54835    
-807603.1       3.4666775      37.780043      25.722576      134.09436    
-807593.64      3.2085066      38.853972      25.795169      133.63908    
-807615.62      3.583862       36.475107      25.794691      133.18458    
-807639.55      2.9838469      34.3103        25.786988      132.73105    
-807644.4       3.6633283      35.37107       25.776255      132.27855    
-807646.4       4.0250688      35.962027      25.803393      131.82604    
-807651.8       3.2649981      34.3818        25.742948      131.37587    
-807642.44      3.0049591      34.144498      25.758787      130.92596    
-807619.39      2.5110919      34.112527      25.766658      130.47652    
-807597.52      3.6726166      37.815533      25.765295      130.02779    
-807605.85      3.685229       37.63317       25.732506      129.58057    
-807621.9       4.2403854      36.380057      25.737733      129.13384    
-807631.67      3.9380006      34.924335      25.721971      128.68815    
-807640.06      4.0594015      35.794731      25.746022      128.24245    
-807654.86      2.8194127      35.142543      25.731447      127.79773    
-807651.29      3.7248023      35.144146      25.733389      127.35355    
-807632.92      3.7852128      34.726112      25.774766      126.90894    
-807612.74      3.3101829      35.936079      25.818193      126.46387    
-807610.4       4.0844672      37.931407      25.800603      126.01982    
-807608.16      3.9320838      38.503945      25.79945       125.57639    
-807613.83      3.1297435      36.527983      25.83103       125.13278    
-807628.72      3.4955923      35.229626      25.798084      124.69053    
-807650.12      3.1611668      35.493297      25.771314      124.24946    
-807651.27      3.6448651      36.298384      25.736623      123.80973    
-807639.59      4.7805266      36.67829       25.782772      123.36945    
-807628.06      3.964866       36.425339      25.796596      122.92939    
-807624.25      4.6518987      35.959135      25.782535      122.49017    
-807609.58      3.5817426      37.532801      25.777856      122.05157    
-807600.06      4.2663245      37.847927      25.781969      121.61338    
-807614.49      3.0237786      35.165959      25.815019      121.17495    
-807639.53      3.7262896      35.05658       25.766927      120.73808    
-807646.6       3.5409746      35.429038      25.656729      120.30408    
-807641.65      3.1522682      36.667736      25.720137      119.86914    
-807639.62      3.7142365      35.315284      25.780962      119.43335    
-807636.37      3.6944208      35.160562      25.741527      118.99885    
-807619.77      4.4692359      36.395529      25.744925      118.56472    
-807598.13      3.4478575      38.267165      25.828188      118.12929    
-807602.61      3.9119808      38.596842      25.807914      117.69474    
-807624.78      3.887094       36.018407      25.791029      117.26098    
-807638.83      3.3876025      34.774366      25.752366      116.82844    
-807639.23      4.3317126      36.465034      25.75313       116.39629    
-807645.85      3.7360745      36.839883      25.758282      115.96445    
-807646.98      3.7474457      35.60162       25.736586      115.53344    
-807631.41      3.7880789      35.444007      25.752996      115.1025     
-807608.8       4.2879368      37.046984      25.801421      114.67101    
-807602.86      3.9122384      37.845046      25.818096      114.2396     
-807610.99      4.0783262      38.002503      25.769408      113.80952    
-807622.93      3.3061216      36.217492      25.799734      113.37925    
-807632.31      3.5808061      35.246041      25.79549       112.94944    
-807645.39      3.7000535      35.867499      25.780159      112.52029    
-807652.95      3.9409273      35.549945      25.774534      112.09162    
-807642.64      2.9029691      35.306183      25.808221      111.66269    
-807622.85      3.7054783      35.875284      25.819874      111.23391    
-807616.03      3.073917       35.530746      25.761132      110.80656    
-807610.24      3.5399496      37.772992      25.740324      110.37993    
-807611.74      3.1401581      36.627791      25.782976      109.95288    
-807618.78      4.9653417      36.212953      25.824503      109.52543    
-807640.92      4.3103672      34.427032      25.810956      109.09856    
-807652.15      3.2881567      34.707966      25.81919       108.6719     
-807646.52      3.2522376      35.94972       25.756943      108.24664    
-807634.5       3.6050786      35.799649      25.814176      107.82072    
-807629.49      4.6123186      35.430413      25.83206       107.39483    
-807618.54      2.9417582      36.434         25.828812      106.96932    
-807604.69      3.7568596      37.466748      25.788122      106.54481    
-807606.45      3.7341006      37.331324      25.792107      106.12055    
-807629.89      3.6092132      34.552177      25.783905      105.69672    
-807643.91      2.9599344      35.016701      25.780316      105.27325    
-807644.23      4.1606798      36.396307      25.760631      104.8504     
-807641.21      3.3144914      36.582717      25.756183      104.42791    
-807640.8       4.0521744      35.242369      25.758379      104.00566    
-807630.03      3.2933939      35.861481      25.744716      103.58391    
-807610.95      3.0094832      37.020613      25.7549        103.16226    
-807602.76      3.3868571      37.944069      25.774975      102.74058    
-807615.97      3.5972564      36.021832      25.811445      102.31861    
-807632.57      4.0700946      35.09786       25.816336      101.89685    
-807638.05      3.225564       35.435004      25.83138       101.47513    
-807642.09      4.1739791      36.621805      25.766213      101.05467    
-807646.61      3.4521208      35.72269       25.74069       100.63484    
-807640.85      3.6751303      35.579599      25.722539      100.21554    
-807621.18      3.4431536      36.541845      25.717961      99.796546    
-807607.01      3.4631418      37.922604      25.783998      99.376825    
-807610.77      3.2238068      37.845273      25.780753      98.9574      
-807618.34      4.5547576      37.75392       25.805672      98.537865    
-807622.3       4.3348583      36.665615      25.788507      98.118823    
-807636.62      3.7332497      36.769416      25.793301      97.699955    
-807648.47      2.9956764      36.013348      25.761888      97.281768    
-807645.28      3.6637012      36.273123      25.751338      96.86396     
-807630.4       3.3813403      36.483456      25.783761      96.445929    
-807620.25      3.7426625      35.772458      25.799078      96.02792     
-807613.5       3.7492844      37.80298       25.812622      95.609959    
-807610.31      3.4969334      38.374363      25.793408      95.192487    
-807612.2       4.0639565      37.74167       25.815964      94.77494     
-807624.99      3.3457356      36.500209      25.820843      94.357555    
-807645.22      4.4033689      36.367382      25.748499      93.941345    
-807645.83      3.6702511      36.883785      25.767303      93.525098    
-807637.65      4.1533536      36.982248      25.736711      93.109456    
-807631.04      3.9483962      36.223647      25.754807      92.693783    
-807623.86      4.4861401      36.239144      25.708527      92.278901    
-807610.86      3.4846724      36.735171      25.74861       91.863704    
-807604.51      3.4470325      37.692366      25.784973      91.448247    
-807615.38      3.1610853      36.520808      25.818384      91.032577    
-807635.53      4.7648343      36.200822      25.796289      90.617386    
-807641.96      3.2446191      36.498515      25.77079       90.202706    
-807642.66      3.489848       36.562193      25.794984      89.787924    
-807639.75      4.7282285      36.590292      25.777086      89.373553    
-807636.74      3.5193204      35.707945      25.79187       88.959195    
-807619.53      3.627004       36.749084      25.774604      88.545232    
-807607.17      3.2652203      37.275537      25.799162      88.131165    
-807610.41      3.6267904      36.646288      25.828631      87.716944    
-807624.76      3.7359925      35.934476      25.769784      87.303593    
-807633.35      3.9577204      35.958642      25.800231      86.890071    
-807639.64      3.6776414      36.023336      25.783812      86.476917    
-807645.59      3.0404363      35.811615      25.762087      86.064186    
-807644.83      2.8638207      34.878682      25.776325      85.651466    
-807632.31      3.0963892      35.119061      25.810356      85.238542    
-807614.35      3.1057478      36.830936      25.794152      84.825971    
-807612.11      3.139915       36.606302      25.831501      84.413167    
-807615.74      3.3388253      37.188843      25.76989       84.001203    
-807623.76      3.3114137      35.224974      25.816839      83.588901    
-807629.71      5.2268543      35.471725      25.80389       83.176907    
-807645.7       2.9633867      34.057446      25.754561      82.765599    
-807647.16      3.7496061      35.546397      25.740847      82.35459     
-807640.81      4.2061088      34.55075       25.793933      81.943183    
-807625.61      3.7764693      35.363635      25.845993      81.531402    
-807619.79      4.8847136      35.838697      25.872567      81.119519    
-807612.02      3.893817       37.612887      25.827522      80.708258    
-807614.13      3.0440484      36.558576      25.855711      80.296877    
-807619.69      3.7175221      36.486803      25.818934      79.886022    
-807636.25      3.0879507      35.633934      25.880157      79.474724    
-807645.5       3.2858508      36.143856      25.824657      79.06413     
-807643.39      3.5403961      35.564706      25.852765      78.653418    
-807634.03      3.028267       35.273639      25.844911      78.242938    
-807630.38      3.4187801      34.542449      25.82299       77.83282     
-807618.31      2.8317021      36.223996      25.766166      77.423388    
-807609.9       2.8161622      36.162908      25.77098       77.014049    
-807609.8       2.7227927      36.25262       25.823958      76.604357    
-807625.9       2.9975885      36.021018      25.851327      76.194557    
-807639.13      3.0982218      35.939211      25.78423       75.785517    
-807641.67      4.1366055      36.716411      25.772947      75.376716    
-807640.1       3.5234743      36.116812      25.821932      74.967608    
-807636.89      3.1641394      36.304118      25.776265      74.559045    
-807628.94      3.9123113      36.241764      25.784109      74.150543    
-807612.47      3.2673015      37.901805      25.860656      73.741504    
-807607.86      3.3475204      36.995688      25.847426      73.332721    
-807616.26      4.3171763      36.323607      25.817649      72.92433     
-807628.51      3.3379786      35.624106      25.804463      72.516184    
-807634.07      3.7140002      35.724595      25.816653      72.108063    
-807639.97      3.5041097      36.527854      25.835067      71.699919    
-807642.74      3.2157592      36.043298      25.772905      71.292421    
-807637.63      3.3771192      34.666046      25.783677      70.884955    
-807622.9       3.0279026      34.792218      25.81229       70.477376    
-807613.99      2.8910443      35.697584      25.804026      70.069989    
-807611.89      3.4466344      36.752265      25.828566      69.662526    
-807619.67      3.0612987      36.10957       25.858261      69.254953    
-807624.41      3.2819332      35.491008      25.839413      68.847655    
-807636.06      3.8951057      35.124566      25.832863      68.440531    
-807643.32      3.6980306      35.985024      25.821398      68.033617    
-807641.61      2.8953641      36.585204      25.786543      67.627089    
-807631.2       3.2301713      35.68713       25.760994      67.220868    
-807623.05      3.0573631      36.452464      25.793209      66.814512    
-807617.17      3.4541862      36.363205      25.764772      66.408481    
-807613.33      3.0258259      36.873667      25.801078      66.002288    
-807615.05      3.1310413      36.288953      25.852252      65.595831    
-807629.28      3.8038569      35.418018      25.810273      65.189795    
-807639.86      3.2017479      35.165083      25.776316      64.784114    
-807644.23      3.6892444      35.629375      25.742338      64.37878     
-807637.8       3.7361402      35.301134      25.780772      63.973273    
-807630.96      3.798216       35.663444      25.762398      63.567999    
-807624.31      3.8922244      35.296115      25.798084      63.162576    
-807615.02      3.9572719      36.209294      25.805426      62.757207    
-807608.65      3.3958311      37.300317      25.828641      62.351784    
-807618.82      3.2474215      36.228321      25.87003       61.946188    
-807636.37      3.8011205      35.285708      25.837585      61.540918    
-807640.2       2.9327331      36.175573      25.823791      61.135845    
-807640.96      3.4468397      35.829728      25.766237      60.731252    
-807639.53      3.6674364      36.325485      25.748337      60.32687     
-807633.24      2.9404821      34.99378       25.840471      59.921986    
-807620.11      3.2717895      35.485932      25.805556      59.517426    
-807608.97      3.5871165      36.51146       25.850702      59.112679    
-807612.47      5.06134        36.899175      25.910951      58.707658    
-807624.27      3.4318903      36.027604      25.8079        58.303381    
-807633.65      3.5539332      35.491637      25.775783      57.899396    
-807640.43      3.1696136      34.990068      25.898602      57.494756    
-807642.35      3.8822421      36.087486      25.883012      57.090314    
-807642.23      4.2899107      35.856141      25.814522      56.686379    
-807629.63      3.2308933      35.251909      25.811776      56.282553    
-807619.28      4.318884       35.463303      25.944065      55.878049    
-807613.8       3.561636       36.490532      25.8673        55.474091    
-807614.41      4.1323172      36.813605      25.821235      55.070493    
-807624.7       3.9921654      34.751911      25.807817      54.66706     
-807631.85      3.6374625      35.41063       25.844329      54.26351     
-807642         2.6956296      34.845854      25.834587      53.860106    
-807643.06      3.8924429      35.915974      25.812232      53.456913    
-807637.87      3.0419108      35.254354      25.763492      53.054072    
-807627.94      3.2691633      34.821179      25.785085      52.651194    
-807622.34      3.3645796      35.679787      25.81502       52.248239    
-807615.75      3.1572928      36.003519      25.770749      51.845601    
-807617.51      3.2300041      34.881524      25.756262      51.443118    
-807623.26      3.3287249      34.428264      25.760396      51.04069     
-807636.99      2.6658751      33.315916      25.816802      50.638049    
-807642.54      2.7888957      33.872702      25.796285      50.235594    
-807640.98      2.6373208      33.518845      25.808738      49.833156    
-807635.52      3.7033758      34.574663      25.897899      49.430357    
-807628.65      4.4991701      35.12449       25.843358      49.027913    
-807622.52      3.1488033      34.323862      25.858518      48.625477    
-807612.64      3.3389746      36.300787      25.860559      48.223115    
-807616.01      3.148675       35.131837      25.877871      47.820753    
-807626.93      2.6703851      34.989389      25.833329      47.418683    
-807637.53      2.8855383      33.928338      25.81232       47.016789    
-807639.03      3.539643       34.704484      25.799302      46.61503     
-807639.23      2.8965731      35.312574      25.829605      46.213208    
-807635.49      3.1496994      35.751776      25.789966      45.811639    
-807626.29      3.9784082      35.46262       25.79794       45.410107    
-807615.66      3.4705502      35.732314      25.794636      45.008661    
-807610.53      3.2987139      35.889888      25.787235      44.607318    
-807617.92      3.1545526      36.006902      25.792382      44.206023    
-807627.84      2.8740228      34.390996      25.777579      43.80486     
-807636.27      3.1605277      34.035445      25.831278      43.40354     
-807639.33      3.0103064      34.198321      25.836909      43.00227     
-807642.76      3.4537434      33.907832      25.848556      42.601024    
-807632.59      3.0369051      34.885549      25.809538      42.200008    
-807623.76      3.223549       34.836013      25.796313      41.799114    
-807613.38      3.2053423      36.151953      25.824695      41.398175    
-807613.65      3.1296018      36.03762       25.803594      40.997387    
-807619.61      3.010547       35.903462      25.793079      40.596707    
-807626.99      2.7740423      35.472637      25.793293      40.19609     
-807636.39      2.9261415      34.876075      25.80378       39.795499    
-807640.58      3.1845944      35.732909      25.822327      39.394904    
-807640.37      3.0502538      35.341393      25.792943      38.994483    
-807628.82      3.4613003      35.51744       25.807783      38.594071    
-807622.4       3.1995584      35.684641      25.813492      38.193703    
-807614.44      3.5346373      36.666692      25.80018       37.793446    
-807616.56      2.9657656      36.099504      25.826133      37.393161    
-807617.93      2.9260038      35.968446      25.87044       36.992789    
-807630.59      2.7608623      34.246821      25.799548      36.592724    
-807637.77      3.1988551      35.147462      25.773165      36.192809    
-807640.33      4.1518539      35.426515      25.79076       35.792893    
-807635.18      2.9220305      34.918855      25.841263      35.392873    
-807631.13      3.0835407      34.864278      25.751458      34.993204    
-807624.47      3.0538086      35.066007      25.782215      34.593493    
-807617.56      3.419538       36.469922      25.792089      34.193808    
-807613.76      3.527772       36.12731       25.793241      33.794177    
-807621.67      3.7721086      35.645756      25.835808      33.394474    
-807632.47      3.1466388      35.072209      25.761373      32.995055    
-807637.16      3.4447545      34.817012      25.780831      32.595632    
-807638.46      4.6505278      34.990493      25.766505      32.196306    
-807638.11      3.3839405      34.66759       25.792795      31.796958    
-807631.49      3.5134547      34.177593      25.825616      31.397572    
-807622.45      2.662838       34.762848      25.824713      30.998247    
-807616.02      3.4229832      34.939409      25.866454      30.598866    
-807617.43      2.8972343      36.172582      25.876518      30.199517    
-807625.73      3.4902507      35.708777      25.849885      29.8003      
-807631.13      3.6729941      36.012238      25.863491      29.401105    
-807640.13      3.5436939      35.031092      25.803718      29.002123    
-807640.32      2.7868152      35.263999      25.788135      28.603233    
-807637.17      2.7579419      34.68799       25.777903      28.20442     
-807630.42      3.3111671      34.977814      25.800887      27.805602    
-807620.45      3.3022782      35.570703      25.786496      27.40687     
-807616         3.1066911      35.56778       25.845587      27.00805     
-807618.58      3.4188166      35.631406      25.851476      26.609271    
-807625.55      3.3630931      34.642615      25.807453      26.210647    
-807630.92      3.2456896      35.14525       25.733796      25.812241    
-807639.53      2.9956975      34.310697      25.709431      25.413933    
-807640.25      3.4870182      35.031594      25.70273       25.015683    
-807636.02      3.0084772      34.659167      25.762842      24.617346    
-807627.13      3.3223752      35.687068      25.777494      24.219025    
-807619.65      3.5434191      36.444901      25.831529      23.820641    
-807616.42      3.3429156      37.314704      25.764409      23.422442    
-807617.07      3.1521105      36.78962       25.766292      23.024286    
-807624.83      2.9929953      35.284613      25.80111       22.626107    
-807632.19      3.361114       35.014918      25.799362      22.227979    
-807639.43      2.685688       35.007245      25.800403      21.829897    
-807637.63      3.2375561      35.635957      25.743082      21.431966    
-807632.81      2.8804318      34.870894      25.796642      21.033982    
-807624.97      3.2589965      35.953056      25.811054      20.636019    
-807620.69      2.9278061      36.395238      25.807965      20.238109    
-807614.88      3.6548291      37.066196      25.795852      19.840265    
-807618.98      3.1878539      36.140398      25.8152        19.442434    
-807624.92      4.0149389      35.572011      25.809937      19.044658    
-807635.82      2.8413743      34.530694      25.800366      18.646943    
-807636.48      2.9785036      35.81787       25.780864      18.249302    
-807636.55      2.9156422      34.991914      25.796243      17.851681    
-807631.17      3.0949086      35.199661      25.793348      17.454108    
-807627.56      2.9608979      35.293348      25.799766      17.056569    
-807618.22      3.8653757      36.061605      25.786956      16.659091    
-807615.25      3.9274548      36.928046      25.799069      16.261639    
-807618.29      3.7084427      36.76785       25.7749        15.864261    
-807629.65      3.0696072      35.573323      25.785186      15.466911    
-807632.77      3.4436851      36.206846      25.799803      15.069585    
-807636.25      3.1803197      35.80431       25.77368       14.672331    
-807635.71      3.0079961      35.737574      25.760483      14.275133    
-807633.73      3.1172883      35.029706      25.825728      13.8779      
-807623.87      3.1274243      35.193287      25.81696       13.48072     
-807618         3.6778636      35.259291      25.795081      13.083605    
-807616.87      3.1342435      35.365113      25.81865       12.686506    
-807622.75      3.0822212      34.790999      25.759259      12.289508    
-807628.19      3.1637008      34.884996      25.762128      11.892544    
-807633.59      3.4012378      35.292103      25.815517      11.495568    
-807637.73      3.286596       35.722675      25.767585      11.098676    
-807636.12      3.4643868      35.43354       25.79589       10.701797    
-807630.63      3.3458188      34.482228      25.806481      10.304948    
-807623.35      3.4756935      35.341886      25.845891      9.9081073    
-807618.36      3.1548862      35.770645      25.827899      9.5113219    
-807618.14      2.962696       36.145908      25.804495      9.1145936    
-807622.09      3.2058583      34.667761      25.792925      8.7179119    
-807629.49      3.4676679      34.245322      25.745818      8.3212988    
-807637.03      2.768483       34.576138      25.738117      7.9247246    
-807638.6       3.1449298      35.352211      25.757689      7.5281723    
-807635         3.2524292      35.183729      25.760571      7.1316528    
-807628.75      2.9406765      34.507211      25.784123      6.7351554    
-807625.55      2.8573917      34.600798      25.851616      6.3386603    
-807619.58      2.6528042      34.978989      25.782874      5.9422369    
-807617.95      2.4017597      35.017717      25.80177       5.5458407    
-807622.43      3.5849051      34.761971      25.757336      5.1494985    
-807633.14      2.5320539      33.706345      25.751032      4.7531919    
-807635.18      2.9409542      34.514426      25.797349      4.3569022    
-807638.25      3.0035852      34.139528      25.787295      3.9606509    
-807632.78      3.1513504      34.877265      25.783729      3.5644351    
-807630.61      3.1373906      34.211644      25.820797      3.1682443    
-807623.9       3.4506502      35.365345      25.839338      2.7720856    
-807618.67      2.5724185      35.122879      25.837058      2.3759644    
-807619.51      3.1530173      35.512829      25.858719      1.9798766    
-807626.32      3.1978499      35.206274      25.844842      1.5838283    
-807630.92      3.2078556      34.985652      25.886606      1.1878129    
-807635.44      3.0885643      34.201173      25.792373      0.79184226   
-807635.38      3.2862901      34.97887       25.801199      0.39590441   
-807634.68      2.9026764      34.527624      25.778391      0            
Loop time of 197.944 on 32 procs for 5000 steps with 1080 atoms

Performance: 4.365 ns/day, 5.498 hours/ns, 25.260 timesteps/s, 27.280 katom-step/s
69.4% CPU use with 32 MPI tasks x 1 OpenMP threads

MPI task timing breakdown:
Section |  min time  |  avg time  |  max time  |%varavg| %total
---------------------------------------------------------------
Pair    | 101.07     | 144.74     | 193.75     | 309.8 | 73.12
Neigh   | 0          | 0          | 0          |   0.0 |  0.00
Comm    | 1.8143     | 50.808     | 94.469     | 522.9 | 25.67
Output  | 0.030723   | 0.032033   | 0.033286   |   0.3 |  0.02
Modify  | 2.0125     | 2.0391     | 2.0672     |   1.1 |  1.03
Other   |            | 0.3257     |            |       |  0.16

Nlocal:          33.75 ave          48 max          21 min
Histogram: 8 8 0 0 0 0 0 8 0 8
Nghost:        1106.25 ave        1119 max        1092 min
Histogram: 8 0 8 0 0 0 0 0 8 8
Neighs:              0 ave           0 max           0 min
Histogram: 32 0 0 0 0 0 0 0 0 0
FullNghs:       5494.5 ave        7896 max        3378 min
Histogram: 8 8 0 0 0 0 0 8 0 8

Total # of neighbors = 175824
Ave neighs/atom = 162.8
Neighbor list builds = 0
Dangerous builds = 0

reset_timestep 0


variable interval equal 1000
thermo 10

variable nintervals equal $(v_PERIOD/v_interval)
variable nintervals equal 100
variable efield equal 1e-2*36.36*cos((step/${PERIOD})*2*3.14)
variable efield equal 1e-2*36.36*cos((step/100000)*2*3.14)
fix born all addbornforce 0.0 0.0 v_efield

variable Px equal f_born[1]+c_polarization[1]
variable Py equal f_born[2]+c_polarization[2]
variable Pz equal (f_born[3]+c_polarization[3])/vol
variable pe equal pe

fix aveP all ave/time 1 $(v_interval/2) ${interval} v_efield v_Pz v_pe f_born file Pz.${MODEL}.${STRUCTURE}.${TEMP}.$L.${ITER}
fix aveP all ave/time 1 500 ${interval} v_efield v_Pz v_pe f_born file Pz.${MODEL}.${STRUCTURE}.${TEMP}.$L.${ITER}
fix aveP all ave/time 1 500 1000 v_efield v_Pz v_pe f_born file Pz.${MODEL}.${STRUCTURE}.${TEMP}.$L.${ITER}
fix aveP all ave/time 1 500 1000 v_efield v_Pz v_pe f_born file Pz.BaTiO3-E0.${STRUCTURE}.${TEMP}.$L.${ITER}
fix aveP all ave/time 1 500 1000 v_efield v_Pz v_pe f_born file Pz.BaTiO3-E0.BaTiO3-sc333.${TEMP}.$L.${ITER}
fix aveP all ave/time 1 500 1000 v_efield v_Pz v_pe f_born file Pz.BaTiO3-E0.BaTiO3-sc333.330.$L.${ITER}
fix aveP all ave/time 1 500 1000 v_efield v_Pz v_pe f_born file Pz.BaTiO3-E0.BaTiO3-sc333.330.2.${ITER}
fix aveP all ave/time 1 500 1000 v_efield v_Pz v_pe f_born file Pz.BaTiO3-E0.BaTiO3-sc333.330.2.2

thermo_style custom step time temp press pe f_born v_efield v_Pz spcpu cpuremain

# dump 4a all custom 1000 dump.hyst.${MODEL}.${STRUCTURE}.${TEMP}.$L.${ITER}.bin id type xu yu zu fx fy fz
# dump_modify 4a sort id

fix nvt all nvt temp ${TEMP} ${TEMP} $(100*dt)
fix nvt all nvt temp 330 ${TEMP} $(100*dt)
fix nvt all nvt temp 330 330 $(100*dt)
fix nvt all nvt temp 330 330 0.2000000000000000111

run $(v_PERIOD)
run 100000
WARNING: non-constant efield is experimental, strongly distrust scalar/vector output (src/fix_addbornforce.cpp:193)
Per MPI rank memory allocation (min/avg/max) = 3.516 | 3.516 | 3.516 Mbytes
   Step          Time           Temp          Press          PotEng         f_born        v_efield         v_Pz          S/CPU         CPULeft    
         0   0              323.69061      129692.98     -807634.68     -295.82814      0.3636         0.055636926    0              0            
        10   0.02           329.96417      135223.71     -807628.44     -302.93319      0.36359993     0.056973197    28.094903      3559.0274    
        20   0.04           329.66917      139667.99     -807621.48     -309.90327      0.36359971     0.058284106    28.156317      3554.781     
        30   0.06           333.07603      142390.8      -807618.78     -313.05535      0.36359935     0.058876983    28.098222      3555.5776    
        40   0.08           336.111        140187.29     -807622.18     -310.0643       0.36359885     0.05831453     28.083392      3556.2661    
        50   0.1            331.03952      136348.96     -807625.86     -305.73401      0.36359821     0.057500224    28.076068      3556.7217    
        60   0.12           329.89397      133152.17     -807629.8      -301.57749      0.36359742     0.056718618    28.07419       3556.9469    
        70   0.14           319.57033      128529.53     -807634.75     -295.18528      0.36359649     0.055516559    28.045996      3557.5175    
        80   0.16           318.25114      128308.69     -807636.44     -293.17309      0.36359541     0.055138281    28.061563      3557.6091    
        90   0.18           328.38438      130111.33     -807633.93     -297.127        0.36359419     0.055882097    28.131461      3556.6182    
       100   0.2            332.50354      135823.63     -807626.43     -305.17178      0.36359283     0.057395333    28.058929      3556.6729    
       110   0.22           333.81893      139593.56     -807622.07     -309.62246      0.36359132     0.058232638    28.047496      3556.7839    
       120   0.24           334.28432      141835.43     -807621.19     -310.43363      0.36358968     0.058385465    27.983575      3557.4952    
       130   0.26           336.65776      140392.86     -807622.3      -309.60681      0.36358788     0.058230246    27.936134      3558.5087    
       140   0.28           327.63854      137673.4      -807623.41     -307.11208      0.36358595     0.057761349    28.027545      3558.4929    
       150   0.3            336.53578      131440.5      -807631.61     -299.96923      0.36358387     0.056418252    28.072847      3558.0486    
       160   0.32           333.94749      127432.53     -807636.83     -294.16611      0.36358165     0.055327137    28.099871      3557.4015    
       170   0.34           318.6146       129380.45     -807634.07     -294.64869      0.36357928     0.055418263    28.1214        3556.6288    
       180   0.36           330.77187      131224.96     -807630.03     -300.2413       0.36357677     0.056470525    28.130472      3555.8388    
       190   0.38           339.1518       136820.33     -807625.22     -305.95534      0.36357412     0.057545664    28.08267       3555.4124    
       200   0.4            331.58672      139932.38     -807621.66     -308.21727      0.36357132     0.057971544    28.076167      3555.0342    
       210   0.42           328.57573      143860.87     -807616.99     -312.15089      0.36356838     0.05871188     28.07691       3554.6538    
       220   0.44           330.62465      139333.46     -807618.9      -310.40233      0.3635653      0.058383491    28.073618      3554.2941    
       230   0.46           342.49026      136921.76     -807625.3      -305.2612       0.36356207     0.057417007    28.080175      3553.8989    
       240   0.48           339.37189      129807.31     -807633.79     -296.01728      0.3635587      0.055678821    28.036633      3553.7368    
       250   0.5            332.47282      129685.47     -807633.44     -295.094        0.36355519     0.055505696    28.058945      3553.4458    
       260   0.52           342.26067      127310.1      -807634.36     -295.44922      0.36355153     0.055573069    28.104504      3552.9286    
       270   0.54           341.23035      133400.85     -807629.31     -300.06717      0.36354773     0.056442282    28.116287      3552.3679    
       280   0.56           340.48172      136249.8      -807625.93     -303.22705      0.36354379     0.057037271    28.018709      3552.2631    
       290   0.58           350.83524      140624.45     -807620.63     -309.80441      0.3635397      0.058275132    28.055416      3551.9804    
       300   0.6            336.91986      143187.12     -807615.54     -312.86956      0.36353547     0.05885238     28.10441       3551.4862    
       310   0.62           350.59478      139385.23     -807621.1      -309.12845      0.3635311      0.058149358    28.111208      3550.9733    
       320   0.64           344.70949      135281.8      -807626.68     -302.61548      0.36352658     0.056924928    28.057323      3550.6832    
       330   0.66           348.70739      130697.78     -807632.52     -297.32377      0.36352192     0.055930221    28.019729      3550.5332    
       340   0.68           337.34512      130338.57     -807631.14     -297.15747      0.36351712     0.055899678    28.073023      3550.1725    
       350   0.7            336.52387      129050.31     -807632.47     -295.88192      0.36351217     0.055660485    28.079498      3549.7888    
       360   0.72           339.34539      133542.83     -807629.27     -299.5163       0.36350708     0.056344963    28.051183      3549.506     
       370   0.74           337.29287      136959.63     -807623.45     -305.36828      0.36350185     0.057446664    28.038126      3549.2642    
       380   0.76           341.19937      141824.78     -807616.94     -312.53651      0.36349647     0.05879604     28.050101      3548.9761    
       390   0.78           345.24073      140517.18     -807619.37     -310.91745      0.36349095     0.058492342    28.03228       3548.7425    
       400   0.8            345.61206      138695.77     -807623.68     -306.91548      0.36348529     0.057740358    28.037171      3548.4872    
       410   0.82           344.91282      133718.43     -807628.53     -302.2815       0.36347948     0.056869471    28.101189      3548.0297    
       420   0.84           334.6608       130883.54     -807630.7      -299.06241      0.36347353     0.056264771    28.147621      3547.4378    
       430   0.86           315.54621      129946.07     -807632.25     -295.1236       0.36346744     0.055524666    28.115563      3546.9507    
       440   0.88           329.18         129447.78     -807634.56     -294.99162      0.3634612      0.055500787    28.073601      3546.59      
       450   0.9            323.31766      133694.5      -807627.6      -301.40792      0.36345482     0.056708967    28.088229      3546.1882    
       460   0.92           338.76395      137964.75     -807623.35     -308.14677      0.3634483      0.057977903    28.071945      3545.8333    
       470   0.94           332.21457      141377.89     -807619.14     -311.59525      0.36344163     0.058627811    28.105293      3545.3887    
       480   0.96           329.46962      139639.48     -807621.97     -308.57467      0.36343482     0.058060566    28.084251      3545.0031    
       490   0.98           338.9051       138010        -807624.41     -307.52965      0.36342786     0.057865044    28.092163      3544.5983    
       500   1              331.43052      132376.72     -807628.62     -302.52162      0.36342077     0.05692384     28.094793      3544.189     
       510   1.02           317.79849      130701.02     -807631.53     -9526.8353      0.36341353     0.056020258    27.978998      3544.069     
       520   1.04           318.78333      127161.82     -807636.51     -9373.9178      0.36340614     0.055122184    27.954979      3543.9986    
       530   1.06           325.26845      131231.66     -807633.04     -9514.4696      0.36339862     0.055949841    27.959684      3543.9062    
       540   1.08           329.91465      133644.21     -807627.62     -9714.2986      0.36339095     0.057126141    27.959204      3543.8051    
       550   1.1            329.4202       139945.87     -807621.76     -9897.5132      0.36338313     0.058204809    27.98124       3543.6436    
       560   1.12           333.79122      139220.75     -807622.72     -9887.6714      0.36337518     0.058148205    27.993844      3543.4466    
       570   1.14           327.96747      141672.5      -807620.29     -9938.5771      0.36336707     0.058448878    27.989291      3543.2542    
       580   1.16           333.47787      136488.25     -807624.38     -9836.1855      0.36335883     0.057848024    27.994862      3543.0438    
       590   1.18           330.72306      134066.39     -807628.78     -9679.8319      0.36335044     0.0569298      28.044052      3542.7228    
       600   1.2            316.44287      128283.58     -807634.95     -9418.1788      0.36334191     0.055392245    27.980852      3542.5342    
       610   1.22           322.89418      130212.93     -807635.1      -9439.3416      0.36333324     0.055518038    28.007507      3542.2846    
       620   1.24           324.39512      129656.94     -807631.59     -9563.2057      0.36332442     0.056247917    27.94728       3542.1548    
       630   1.26           332.53661      135390.1      -807627.75     -9719.3134      0.36331546     0.057167505    27.848833      3542.2174    
       640   1.28           329.80025      138127.25     -807625.01     -9795.0391      0.36330636     0.057614356    27.967767      3542.0296    
       650   1.3            324.16883      140901.71     -807619.41     -9948.0047      0.36329711     0.058515588    28.006986      3541.7602    
       660   1.32           325.01682      140995.37     -807619.25     -9954.7368      0.36328772     0.058556701    28.006027      3541.4899    
       670   1.34           326.92538      137033.21     -807624.28     -9800.6816      0.36327819     0.057652015    27.969308      3541.2865    
       680   1.36           325.92299      132216.06     -807630.69     -9586.7484      0.36326851     0.056395066    27.988197      3541.0434    
       690   1.38           321.36422      129377.82     -807634.41     -9444.6961      0.36325869     0.055560931    27.964566      3540.8404    
       700   1.4            321.52716      129133.38     -807633.2      -9482.3808      0.36324873     0.055784151    27.951934      3540.6559    
       710   1.42           330.27201      130289.06     -807632.09     -9552.9434      0.36323863     0.056200829    27.968439      3540.437     
       720   1.44           336.90368      135344        -807629.01     -9679.0332      0.36322838     0.056944234    27.97057       3540.2104    
       730   1.46           328.41604      139226.87     -807622.68     -9841.407       0.36321798     0.057901177    27.990845      3539.9452    
       740   1.48           325.24527      142572.28     -807617.71     -9982.7593      0.36320745     0.058734516    28.037226      3539.5981    
       750   1.5            342.56065      138643.47     -807622.84     -9892.2887      0.36319677     0.058203935    28.02585       3539.2699    
       760   1.52           333.60665      135974.05     -807626.35     -9733.5381      0.36318595     0.05727159     27.965976      3539.0408    
       770   1.54           332.55552      130754.27     -807632.23     -9538.5725      0.36317498     0.056126118    27.903937      3538.9107    
       780   1.56           330.94714      130378.04     -807632.72     -9509.6756      0.36316387     0.055957797    27.853302      3538.8576    
       790   1.58           317.20289      129745.08     -807632.36     -9457.5835      0.36315262     0.055652995    27.976079      3538.599     
       800   1.6            334.16962      133185.02     -807631.98     -9537.2288      0.36314122     0.056123428    27.939002      3538.3967    
       810   1.62           338.20879      135031.85     -807627.12     -9707.4478      0.36312968     0.057126926    27.974696      3538.1346    
       820   1.64           333.88914      141527.19     -807618.9      -9942.0365      0.363118       0.058509328    27.964064      3537.8866    
       830   1.66           338.26268      140856.07     -807620.51     -9905.4878      0.36310618     0.058296136    27.979922      3537.6119    
       840   1.68           345.75023      139862.66     -807623.44     -9834.0641      0.36309421     0.057877698    27.962136      3537.3619    
       850   1.7            353.39259      134309.36     -807628.66     -9696.7048      0.3630821      0.057071183    27.99582       3537.0592    
       860   1.72           335.08034      133013        -807627.95     -9629.3094      0.36306984     0.056676432    27.980895      3536.7773    
       870   1.74           330.58754      128842.04     -807633.67     -9420.6313      0.36305745     0.055450083    28.03008       3536.422     
       880   1.76           328.87761      130289.8      -807632.86     -9430.8821      0.3630449      0.055512337    27.959504      3536.1683    
       890   1.78           333.68962      131747.76     -807629.24     -9564.6123      0.36303222     0.056301471    27.950613      3535.9248    
       900   1.8            343.24681      137735.51     -807622.9      -9805.9261      0.36301939     0.057723988    27.988471      3535.6256    
       910   1.82           354.98676      140006.38     -807621.8      -9886.6756      0.36300642     0.058201411    27.942415      3535.3892    
       920   1.84           342.9408       140665.52     -807619.61     -9895.581       0.36299331     0.05825594     27.961208      3535.1242    
       930   1.86           352.86172      138973.05     -807622.29     -9852.0643      0.36298005     0.058001873    27.95654       3534.8636    
       940   1.88           350.47224      136030.97     -807626.15     -9717.1437      0.36296665     0.057209669    27.920734      3534.6493    
       950   1.9            321.5517       132799.87     -807627.4      -9545.2264      0.36295311     0.056199604    27.92655       3534.4242    
       960   1.92           333.45919      128331.1      -807635.06     -9352.6373      0.36293942     0.05506777     27.933115      3534.1877    
       970   1.94           333.32255      131523.22     -807631.61     -9459.722       0.36292559     0.055700401    27.961137      3533.912     
       980   1.96           346.05977      131573.36     -807628.39     -9623.6977      0.36291162     0.056668098    27.941346      3533.6601    
       990   1.98           346.81497      137362.88     -807623.57     -9781.7478      0.3628975      0.057600999    28.016768      3533.3098    
      1000   2              347.13502      138743.73     -807622.93     -9809.1895      0.36288325     0.057764863    27.92173       3533.0798    
      1010   2.02           344.26907      142541.25     -807618.23     -310.93769      0.36286884     0.058596436    28.134148      3532.5821    
      1020   2.04           333.14026      139009.98     -807619.62     -308.44397      0.3628543      0.058128823    28.155309      3532.0612    
      1030   2.06           336.84863      135879.26     -807626.06     -302.65741      0.36283961     0.057040608    28.162519      3531.5348    
      1040   2.08           335.37993      129785.27     -807633.49     -295.3873       0.36282478     0.055672715    28.154733      3531.0211    
      1050   2.1            329.87702      129934.18     -807633.24     -295.22307      0.3628098      0.055644058    28.108769      3530.5652    
      1060   2.12           336.10102      129128.25     -807632.83     -296.95245      0.36279469     0.055972346    28.117987      3530.1002    
      1070   2.14           337.43793      134226.93     -807629.74     -300.56944      0.36277943     0.056656492    28.171573      3529.5748    
      1080   2.16           335.14665      136215.72     -807627.73     -302.71254      0.36276402     0.057062884    28.155901      3529.0705    
      1090   2.18           328.62925      140894.34     -807620.51     -309.29888      0.36274848     0.058306943    28.102501      3528.6303    
      1100   2.2            318.2512       139999.83     -807618.23     -310.47136      0.36273279     0.058530503    28.104432      3528.1894    
      1110   2.22           328.44847      138025.56     -807623.71     -306.57546      0.36271695     0.057798565    28.101603      3527.7532    
      1120   2.24           335.93706      133052.88     -807631.68     -299.80679      0.36270098     0.056524959    28.067185      3527.357     
      1130   2.26           314.84496      131041.88     -807630.69     -297.99255      0.36268486     0.056185403    27.906688      3527.1409    
      1140   2.28           313.97642      129592.97     -807632.91     -295.77558      0.3626686      0.055769901    27.9426        3526.8822    
      1150   2.3            328.85461      130578.33     -807634.65     -296.14116      0.36265219     0.055841359    28.002363      3526.5562    
      1160   2.32           322.83138      133054.55     -807630.02     -300.06931      0.36263564     0.056584647    27.996603      3526.2358    
      1170   2.34           322.33759      138282.87     -807623.35     -306.72508      0.36261895     0.057842401    28.09976       3525.8041    
      1180   2.36           322.64736      140328.19     -807620.91     -309.21994      0.36260212     0.05831559     28.103903      3525.3693    
      1190   2.38           336.44979      138983.19     -807623.94     -308.08119      0.36258514     0.058103555    28.117888      3524.9211    
      1200   2.4            326.72385      137086.7      -807626.24     -304.40518      0.36256802     0.057412975    28.066717      3524.5279    
      1210   2.42           320.0534       132694.82     -807628.53     -301.16471      0.36255076     0.056804506    28.087215      3524.1141    
      1220   2.44           327.96581      129747.41     -807634.11     -296.64719      0.36253335     0.055955114    28.045074      3523.7445    
      1230   2.46           320.02522      128126.91     -807636.1      -293.48214      0.3625158      0.055360787    28.034306      3523.3861    
      1240   2.48           321.13913      131202.08     -807633.17     -296.53285      0.36249811     0.055938985    28.047073      3523.0148    
      1250   2.5            322.97052      133764.99     -807628.48     -301.52308      0.36248028     0.056883157    28.107676      3522.583     
      1260   2.52           324.9961       139148.03     -807622.05     -308.09291      0.3624623      0.058125457    28.19354       3522.0675    
      1270   2.54           316.86705      140057.71     -807621.46     -307.46134      0.36244418     0.058009203    28.061854      3521.6839    
      1280   2.56           335.9627       140454.94     -807622.68     -308.7633       0.36242592     0.058257783    28.080384      3521.2827    
      1290   2.58           324.19523      136151.49     -807624.43     -305.29799      0.36240751     0.05760687     28.039834      3520.9215    
      1300   2.6            323.21521      134605.03     -807628.58     -300.8155       0.36238896     0.056763971    28.061772      3520.5393    
      1310   2.62           321.64026      128613.89     -807634.78     -294.29053      0.36237027     0.055535573    28.086416      3520.1338    
      1320   2.64           325.36343      130288.23     -807634.58     -294.71969      0.36235143     0.055619449    28.118385      3519.6989    
      1330   2.66           325.75021      129673.05     -807631.88     -297.43475      0.36233245     0.056134775    28.116485      3519.2669    
      1340   2.68           318.24047      136279.19     -807625.08     -302.9688       0.36231333     0.057182233    28.142487      3518.8119    
      1350   2.7            337.32914      136644.31     -807625.99     -304.59315      0.36229407     0.05749187     28.18577       3518.3185    
      1360   2.72           323.4433       142071.26     -807619.67     -308.72838      0.36227466     0.058275514    28.094671      3517.9105    
      1370   2.74           330.69944      139394.78     -807620.64     -308.62075      0.36225511     0.058258341    28.070409      3517.5255    
      1380   2.76           332.03984      137719.06     -807624.1      -305.02853      0.36223542     0.057583369    28.114338      3517.1011    
      1390   2.78           340.31739      130558.29     -807634.08     -295.98581      0.36221558     0.055879341    28.088311      3516.7011    
      1400   2.8            321.25593      130163.44     -807631.58     -295.5331       0.3621956      0.055796951    28.05336       3516.333     
      1410   2.82           326.80718      129430.5      -807631.94     -295.82086      0.36217548     0.055854383    28.036359      3515.98      
      1420   2.84           339.05787      131616.3      -807631.7      -297.50911      0.36215522     0.056176288    28.010449      3515.6501    
      1430   2.86           330.97487      135712.12     -807626.59     -301.29331      0.36213481     0.056894034    27.992306      3515.3356    
      1440   2.88           344.50985      138323.39     -807623.43     -306.23052      0.36211426     0.057829623    28.035557      3514.9828    
      1450   2.9            333.94919      141968.77     -807617.31     -310.68258      0.36209357     0.058673717    28.091111      3514.582     
      1460   2.92           338.29019      138668.41     -807622.07     -306.40086      0.36207273     0.057868427    28.067036      3514.2025    
      1470   2.94           344.2624       135777.38     -807627.38     -301.72455      0.36205176     0.056988536    28.02687       3513.8575    
      1480   2.96           326.1571       130962.65     -807629.61     -296.93634      0.36203064     0.056087432    28.044618      3513.4973    
      1490   2.98           329.27047      130637.51     -807630.46     -296.33721      0.36200937     0.055977551    28.028845      3513.1504    
      1500   3              336.63133      127404.93     -807634.73     -293.03767      0.36198796     0.055357547    28.089656      3512.7527    
      1510   3.02           326.31107      133424.47     -807628.99     -9509.7572      0.36196642     0.056143398    27.99841       3512.4312    
      1520   3.04           334.77267      133656.24     -807625.3      -9667.8474      0.36194472     0.057080146    28.071235      3512.0492    
      1530   3.06           352.2523       140988.58     -807620.54     -9892.4345      0.36192289     0.058409659    28.039873      3511.6932    
      1540   3.08           339.8343       139128.65     -807620.32     -9846.456       0.36190091     0.058141711    27.989445      3511.3782    
      1550   3.1            333.03206      141883.57     -807620.61     -9802.3346      0.36187879     0.057884719    27.96153       3511.0854    
      1560   3.12           343.49551      134234.72     -807627.4      -9635.114       0.36185653     0.056900749    27.967221      3510.7871    
      1570   3.14           340.9022       133726.21     -807628.09     -9600.6161      0.36183412     0.05670053     27.95708       3510.4963    
      1580   3.16           328.17921      128614.66     -807634.18     -9356.9353      0.36181157     0.055264813    27.998393      3510.1716    
      1590   3.18           329.8941       131492.72     -807632.63     -9414.5102      0.36178888     0.055608356    28.03003       3509.8217    
      1600   3.2            338.89981      130609.9      -807631.6      -9501.3594      0.36176605     0.056124887    27.981573      3509.5096    
      1610   3.22           324.52662      138134.35     -807622.4      -9741.2587      0.36174307     0.057545636    28.065166      3509.1319    
      1620   3.24           340.6006       137926.72     -807623.92     -9776.9059      0.36171995     0.05775991     28.006701      3508.7997    
      1630   3.26           338.66618      140938.36     -807621.89     -9843.8798      0.36169669     0.058159318    27.965664      3508.4988    
      1640   3.28           328.94679      138863.76     -807623.17     -9775.4708      0.36167329     0.057758883    27.9691        3508.1945    
      1650   3.3            339.78463      135923.17     -807627.38     -9697.807       0.36164974     0.057303734    27.997079      3507.8683    
      1660   3.32           329.18932      131722.9      -807632.49     -9497.3243      0.36162605     0.05612277     28.005562      3507.5353    
      1670   3.34           317.62136      129337.95     -807634.67     -9383.9848      0.36160222     0.055456665    27.999132      3507.2069    
      1680   3.36           332.238        129404.99     -807634.36     -9466.2312      0.36157824     0.055946427    27.95075       3506.9143    
      1690   3.38           315.61408      131925.07     -807629.01     -9572.1479      0.36155413     0.056576179    28.029372      3506.5626    
      1700   3.4            332.95032      136457.71     -807627.49     -9700.8152      0.36152987     0.057340515    28.04659       3506.1981    
      1710   3.42           326.42706      138127.93     -807624.6      -9770.9112      0.36150546     0.057758744    27.980639      3505.882     
      1720   3.44           321.2483       140778.5      -807620.4      -9883.1869      0.36148092     0.058426406    28.049178      3505.5156    
      1730   3.46           326.28315      136549.8      -807625.5      -9747.6783      0.36145623     0.057629256    27.955492      3505.2171    
      1740   3.48           325.01967      135503.41     -807628.54     -9642.3022      0.3614314      0.057010178    28.013354      3504.8762    
      1750   3.5            321.10227      129023.95     -807634.26     -9445.2709      0.36140643     0.055849088    27.973827      3504.5635    
      1760   3.52           321.61655      131007.14     -807633.7      -9463.111       0.36138131     0.055958464    28.057065      3504.191     
      1770   3.54           319.68166      128343.62     -807634.95     -9419.0286      0.36135605     0.055701683    28.068825      3503.8105    
      1780   3.56           324.7314       134105.94     -807630.68     -9573.6456      0.36133065     0.056620028    28.041416      3503.4495    
      1790   3.58           327.06446      135121.11     -807628.23     -9665.6428      0.36130511     0.057168155    27.977522      3503.1331    
      1800   3.6            321.19313      140697.11     -807621.37     -9855.187       0.36127942     0.058293372    27.974079      3502.8187    
      1810   3.62           318.14596      138036.96     -807622.61     -9802.0812      0.3612536      0.057983397    27.993598      3502.4903    
      1820   3.64           324.57677      137709.44     -807624.92     -9750.1582      0.36122763     0.057680397    27.976932      3502.1731    
      1830   3.66           331.2686       131872.72     -807631.62     -9561.6303      0.36120151     0.056569185    27.962344      3501.8655    
      1840   3.68           329.25208      131034.83     -807632.87     -9505.4089      0.36117526     0.056240653    27.97785       3501.5467    
      1850   3.7            325.41591      128624.46     -807635.49     -9401.4866      0.36114886     0.055629841    28.017015      3501.201     
      1860   3.72           308.3675       130815.37     -807631.26     -9454.6855      0.36112232     0.055948738    27.946075      3500.903     
      1870   3.74           323.19117      132796.78     -807630.85     -9530.0805      0.36109564     0.05639906     27.961721      3500.5938    
      1880   3.76           322.79709      136723.15     -807624.57     -9721.5369      0.36106881     0.057536374    28.024643      3500.2422    
      1890   3.78           341.67338      139030.79     -807623.43     -9833.6553      0.36104184     0.058204288    27.976238      3499.9226    
      1900   3.8            324.95002      138907.6      -807622.71     -9774.336       0.36101474     0.057857528    27.977971      3499.6015    
      1910   3.82           341.31378      136990.82     -807626.48     -9716.0795      0.36098748     0.057517031    28.003081      3499.2635    
      1920   3.84           338.73203      131913.05     -807630.24     -9577.749       0.36096009     0.056702448    27.953336      3498.9578    
      1930   3.86           326.55009      131845.12     -807630.57     -9502.6168      0.36093255     0.05626194     27.980666      3498.6338    
      1940   3.88           321.67802      128341.72     -807633.96     -9366.8797      0.36090487     0.055462538    28.039615      3498.2715    
      1950   3.9            323.17141      132445.96     -807630.5      -9474.6116      0.36087705     0.056104758    28.045557      3497.9054    
      1960   3.92           326.30771      132187.23     -807628.9      -9538.3799      0.36084909     0.056486744    28.011463      3497.5612    
      1970   3.94           342.24077      138618.07     -807623.62     -9768.038       0.36082098     0.057851297    28.029235      3497.2055    
      1980   3.96           337.54728      136664.51     -807624.46     -9717.5862      0.36079273     0.057557002    28.062608      3496.8288    
      1990   3.98           342.44935      140701.57     -807622.37     -9795.0985      0.36076434     0.05802067     28.016418      3496.4813    
      2000   4              335.27512      134741.3      -807625.92     -9650.5763      0.36073581     0.057169123    28.045986      3496.1152    
      2010   4.02           334.8384       136096.45     -807626.11     -301.10619      0.36070713     0.057083747    28.122571      3495.7019    
      2020   4.04           328.59868      129070.42     -807632.84     -293.53656      0.36067831     0.055653142    28.099523      3495.3033    
      2030   4.06           329.03288      131292.29     -807632.39     -293.75596      0.36064935     0.055699212    28.124471      3494.8899    
      2040   4.08           345.84472      129113.6      -807633.15     -295.39415      0.36062025     0.056014348    28.104438      3494.4893    
      2050   4.1            338.96268      134287.2      -807626.78     -300.7261       0.36059101     0.057030049    28.060755      3494.1155    
      2060   4.12           333.7723       136557.47     -807624.77     -302.06037      0.36056162     0.05728775     28.091607      3493.7233    
      2070   4.14           337.32805      139863.5      -807622.25     -305.01239      0.36053209     0.057852359    28.126339      3493.3107    
      2080   4.16           330.57621      138694.68     -807621.18     -305.16411      0.36050242     0.057885899    28.100786      3492.9138    
      2090   4.18           332.59902      137286.85     -807623.11     -303.46155      0.36047261     0.057567705    28.068847      3492.5363    
      2100   4.2            331.02779      133114.55     -807628.96     -297.44473      0.36044265     0.056430983    28.048134      3492.1712    
      2110   4.22           335.4414       130769.34     -807633        -294.01022      0.36041256     0.055784049    28.099479      3491.776     
      2120   4.24           333.82412      130362.89     -807633.03     -293.8426       0.36038232     0.055756924    28.091276      3491.386     
      2130   4.26           343.35009      130558.02     -807632.68     -295.62289      0.36035193     0.056099464    28.065738      3491.0112    
      2140   4.28           344.281        134856.94     -807629.12     -299.41049      0.36032141     0.05682304     28.080693      3490.6278    
      2150   4.3            334.52028      136332.83     -807626.05     -301.34836      0.36029075     0.057195683    28.059545      3490.257     
      2160   4.32           329.89782      140504.57     -807620.06     -306.77775      0.36025994     0.058231156    28.059078      3489.8865    
      2170   4.34           333.78814      137391.1      -807623.66     -303.94714      0.36022899     0.057698819    28.083254      3489.5024    
      2180   4.36           330.48694      137414.29     -807624.88     -302.38807      0.36019789     0.057407813    28.114095      3489.101     
      2190   4.38           325.63402      131191.41     -807630.84     -295.99896      0.36016666     0.056199725    28.053322      3488.7344    
      2200   4.4            330.3919       132040.9      -807631.99     -295.59422      0.36013528     0.056127769    28.086218      3488.3493    
      2210   4.42           328.05278      128752.96     -807633.93     -293.61673      0.36010377     0.055757162    28.069232      3487.974     
      2220   4.44           323.19345      133393.12     -807630.81     -296.22743      0.36007211     0.056257873    28.118667      3487.5714    
      2230   4.46           332.386        132138.11     -807631.39     -297.29502      0.3600403      0.05646561     28.082064      3487.1895    
      2240   4.48           334.88961      138739.05     -807625.61     -303.64227      0.36000836     0.05767627     28.051436      3486.8247    
      2250   4.5            327.6158       136370.07     -807624.65     -304.07098      0.35997627     0.05776285     28.048464      3486.4617    
      2260   4.52           327.61135      138976.41     -807624.6      -304.32361      0.35994404     0.057816018    28.088377      3486.0768    
      2270   4.54           329.32395      132934.2      -807630.52     -299.11974      0.35991167     0.056832486    28.041734      3485.7177    
      2280   4.56           317.71064      134332.3      -807629.41     -298.9348       0.35987916     0.056802479    28.065562      3485.3456    
      2290   4.58           313.22647      129333.3      -807633.33     -294.74805      0.35984651     0.056012012    28.088603      3484.9612    
      2300   4.6            301.6534       131239.54     -807631.95     -294.6786       0.35981371     0.056003916    28.057197      3484.5939    
      2310   4.62           312.51734      130978.59     -807633.26     -295.10054      0.35978077     0.056089242    28.089463      3484.2095    
      2320   4.64           323.56658      134587.47     -807628.94     -301.02866      0.35974769     0.057221251    28.069001      3483.8362    
      2330   4.66           323.81559      136037.43     -807627.04     -303.10374      0.35971447     0.057621014    28.091734      3483.451     
      2340   4.68           318.275        137653.86     -807626.02     -303.3017       0.35968111     0.057663996    28.113278      3483.0546    
      2350   4.7            321.31028      136087.48     -807627.58     -302.14767      0.3596476      0.057449942    28.055383      3482.6891    
      2360   4.72           317.02922      133839.54     -807628.29     -300.80837      0.35961396     0.05720064     28.044459      3482.3294    
      2370   4.74           307.39063      133483.17     -807628.74     -298.9411       0.35958017     0.056850909    28.092164      3481.9448    
      2380   4.76           308.62233      130435.05     -807633.78     -293.86798      0.35954624     0.055891407    28.044838      3481.5851    
      2390   4.78           314.2467       131374.85     -807633.72     -294.49263      0.35951216     0.056015518    28.06197       3481.2165    
      2400   4.8            318.75422      129669.66     -807632.87     -295.95213      0.35947795     0.056298488    28.111335      3480.8225    
      2410   4.82           326.85037      136529.59     -807627.81     -301.86481      0.35944359     0.057428736    28.140861      3480.4138    
      2420   4.84           321.98519      134349.68     -807628.34     -300.63385      0.35940909     0.05720004     28.021473      3480.0666    
      2430   4.86           319.50862      139464.16     -807624.37     -303.89849      0.35937446     0.05782676     28.076376      3479.6912    
      2440   4.88           306.25122      135009.18     -807624.88     -301.5099       0.35933967     0.057377804    28.060425      3479.3241    
      2450   4.9            329.82571      136036.88     -807627.44     -301.82799      0.35930475     0.05744392     28.119683      3478.9272    
      2460   4.92           322.49357      129574.04     -807633.92     -294.18865      0.35926969     0.055995465    28.063433      3478.5589    
      2470   4.94           318.87086      132454.71     -807633.31     -293.86178      0.35923448     0.055938732    27.964441      3478.2405    
      2480   4.96           320.4628       128910.57     -807634.15     -293.14776      0.35919913     0.055808304    28.050475      3477.8786    
      2490   4.98           331.98928      134223.43     -807629.77     -298.73631      0.35916364     0.056877849    28.059605      3477.5123    
      2500   5              326.04906      132833.32     -807629.48     -298.02859      0.35912801     0.056748732    28.090433      3477.1308    
[...]
     98740   197.48         328.37914      136224.67     -807624.94     -9702.6289      0.36236891     0.057218442    29.90048       44.314969    
     98750   197.5          341.18274      132914.8      -807629.36     -9630.3321      0.36238762     0.056789162    29.893046      43.963045    
     98760   197.52         326.29784      135005.27     -807627.36     -9633.7836      0.36240618     0.056806605    29.879951      43.611127    
     98770   197.54         330.36067      132432.45     -807629.14     -9603.6257      0.36242459     0.056625898    29.872153      43.259213    
     98780   197.56         343.93079      135303.48     -807629.37     -9661.3569      0.36244287     0.056963427    29.86259       42.907305    
     98790   197.58         329.38529      134372.33     -807627.53     -9663.6676      0.362461       0.0569742      29.858884      42.5554      
     98800   197.6          333.43556      136681.26     -807626.98     -9702.0865      0.36247899     0.057197869    29.853978      42.203499    
     98810   197.62         327.55695      134832.18     -807626.58     -9695.2584      0.36249683     0.057154801    29.867947      41.8516      
     98820   197.64         333.33098      136256.62     -807626.02     -9741.2561      0.36251453     0.057423158    29.854956      41.499706    
     98830   197.66         333.75418      134325.6      -807628.84     -9660.1189      0.36253209     0.05694211     29.817323      41.14782     
     98840   197.68         321.31944      135941.34     -807626.86     -9667.9182      0.36254951     0.056985345    29.851171      40.795933    
     98850   197.7          339.20495      132255.87     -807631.49     -9604.704       0.36256678     0.056610047    29.86036       40.444049    
     98860   197.72         329.88101      135393.31     -807628.89     -9647.6105      0.36258391     0.05686025     29.867137      40.092167    
     98870   197.74         321.86282      133542.1      -807628.69     -9624.5091      0.3626009      0.05672144     29.846803      39.740291    
     98880   197.76         327.896        135784.87     -807627.49     -9688.3944      0.36261774     0.057095292    29.848601      39.388418    
     98890   197.78         325.51982      134070.33     -807628.17     -9662.3259      0.36263445     0.056939043    29.829728      39.036552    
     98900   197.8          328.78154      136992.07     -807625.56     -9759.726       0.362651       0.057510386    29.855261      38.684685    
     98910   197.82         316.97664      134655.14     -807625.43     -9716.2817      0.36266742     0.057251793    29.875575      38.332819    
     98920   197.84         331.99813      136455.2      -807627.45     -9715.3919      0.36268369     0.057243982    29.90048       37.980954    
     98930   197.86         329.00382      133042.1      -807629.79     -9631.7137      0.36269982     0.056748419    29.887779      37.629093    
     98940   197.88         331.6538       134323.66     -807628.14     -9693.7559      0.36271581     0.057111444    29.870526      37.277238    
     98950   197.9          331.81698      133091.29     -807630.53     -9621.1607      0.36273165     0.056681268    29.897646      36.925384    
     98960   197.92         324.60398      134644.93     -807628.28     -9660.5649      0.36274735     0.056910947    29.869723      36.573536    
     98970   197.94         327.39787      134267.32     -807628.78     -9658.6112      0.36276291     0.056896998    29.884049      36.22169     
     98980   197.96         324.39428      135454.26     -807625.74     -9745.6845      0.36277832     0.05740749     29.893096      35.869847    
     98990   197.98         326.62398      135179.7      -807626.72     -9723.2154      0.36279359     0.057272724    29.877164      35.518008    
     99000   198            321.78581      135543.87     -807626.88     -9694.6796      0.36280872     0.057102258    29.857931      35.166176    
     99010   198.02         319.16121      135228.11     -807625.78     -303.68083      0.3628237      0.057235996    29.938799      34.814338    
     99020   198.04         328.72023      133644.17     -807627.87     -302.8733       0.36283855     0.057081462    30.004574      34.462496    
     99030   198.06         332.23642      134063.57     -807629.32     -301.78202      0.36285324     0.056873488    30.056947      34.110652    
     99040   198.08         326.86818      132893.92     -807630.15     -300.09298      0.3628678      0.056552906    30.015771      33.758816    
     99050   198.1          320.59719      134247.14     -807626.55     -302.63124      0.36288221     0.057028979    29.956965      33.406991    
     99060   198.12         339.15159      134421.12     -807629.02     -302.71963      0.36289648     0.057043392    29.941128      33.055171    
     99070   198.14         318.07534      137374.65     -807623.86     -304.6717       0.36291061     0.057408998    29.96864       32.703351    
     99080   198.16         331.45508      135022.95     -807626.73     -303.42569      0.36292459     0.057172011    29.954314      32.351537    
     99090   198.18         330.73729      137483.47     -807624.84     -304.9819       0.36293843     0.057463045    29.921663      31.99973     
     99100   198.2          335.23413      135237.93     -807626.4      -303.8836       0.36295213     0.057253948    29.947666      31.647923    
     99110   198.22         335.44272      136185.41     -807626.66     -303.32479      0.36296568     0.057146529    29.976112      31.296118    
     99120   198.24         329.0827       132703.86     -807629.63     -299.2439       0.36297909     0.056375605    29.938192      30.94432     
     99130   198.26         333.23409      134348.72     -807627.65     -301.42064      0.36299236     0.056783613    29.891591      30.59253     
     99140   198.28         337.75833      132730.81     -807628.02     -301.53795      0.36300548     0.056803659    29.876142      30.240744    
     99150   198.3          348.22028      135757.56     -807627.2      -303.42651      0.36301846     0.057157381    29.86239       29.888964    
     99160   198.32         332.52245      135324.1      -807626.71     -301.60275      0.3630313      0.056811825    29.94451       29.537179    
     99170   198.34         334.07483      138497.44     -807623.22     -305.06712      0.36304399     0.057462386    29.938367      29.185399    
     99180   198.36         332.6428       135876.39     -807623.5      -304.52246      0.36305655     0.057357812    29.948055      28.833621    
     99190   198.38         348.65952      135967.82     -807626.53     -303.52513      0.36306895     0.057168008    29.967536      28.481845    
     99200   198.4          328.57575      135154.7      -807626.07     -301.06086      0.36308122     0.056701954    29.974129      28.130072    
     99210   198.42         341.49883      134517.34     -807627.08     -301.73245      0.36309334     0.056826545    29.915499      27.778308    
     99220   198.44         342.82838      134677.4      -807626.63     -302.34715      0.36310532     0.056940436    29.957353      27.426544    
     99230   198.46         346.41226      134211.81     -807628.59     -300.9512       0.36311715     0.056675691    29.923057      27.074786    
     99240   198.48         342.9812       135894.77     -807625.69     -303.33596      0.36312885     0.057122955    29.935056      26.723031    
     99250   198.5          334.37578      135942.83     -807624.18     -303.82491      0.3631404      0.057213212    29.905014      26.371282    
     99260   198.52         341.81442      137489.17     -807623.35     -305.69492      0.3631518      0.057563546    29.932315      26.019534    
     99270   198.54         333.37358      135092.25     -807625.12     -302.92622      0.36316306     0.057040419    29.907413      25.667792    
     99280   198.56         341.93362      136085.06     -807626.22     -303.15012      0.36317418     0.057080831    29.976482      25.316048    
     99290   198.58         334.90229      133975.61     -807626.41     -302.18142      0.36318516     0.056896713    29.91318       24.964312    
     99300   198.6          344.61484      134823.06     -807627.6      -302.4805       0.36319599     0.056951327    29.862734      24.612584    
     99310   198.62         342.94484      132130.58     -807630.03     -300.14409      0.36320668     0.056509764    29.905884      24.260856    
     99320   198.64         326.78458      135439.77     -807625.35     -302.74639      0.36321723     0.056998056    29.91962       23.909131    
     99330   198.66         334.34617      134190.38     -807626.37     -303.21063      0.36322763     0.057083825    29.905154      23.55741     
     99340   198.68         339.20901      137613.65     -807625.14     -305.3457       0.36323789     0.05748416     29.920858      23.205691    
     99350   198.7          332.73053      135523.78     -807626.63     -303.38559      0.36324801     0.05711356     29.981688      22.853972    
     99360   198.72         340.21574      136421.25     -807626.43     -304.87442      0.36325798     0.057392262    29.948313      22.502258    
     99370   198.74         327.37213      135024.91     -807626.68     -303.1855       0.36326781     0.05707278     29.937105      22.150549    
     99380   198.76         325.16461      135469.18     -807627.77     -301.9448       0.3632775      0.05683771     29.970586      21.798841    
     99390   198.78         330.26729      132847.24     -807629.99     -300.65903      0.36328704     0.056594193    29.914569      21.447141    
     99400   198.8          319.3083       135052.7      -807627.14     -302.13524      0.36329644     0.056870593    29.924629      21.095443    
     99410   198.82         327.3588       134269.74     -807627.46     -303.04393      0.3633057      0.057040182    29.93738       20.743748    
     99420   198.84         333.3767       135403.78     -807627.92     -303.45213      0.36331481     0.057115582    29.967324      20.392055    
     99430   198.86         334.73529      135330.74     -807627.82     -303.84733      0.36332378     0.057188554    29.988696      20.040364    
     99440   198.88         333.31438      135113.38     -807626.71     -304.84511      0.36333261     0.057374956    29.998699      19.688676    
     99450   198.9          326.6136       135620.42     -807626.7      -303.98683      0.36334129     0.057212052    29.979962      19.336992    
     99460   198.92         329.77884      133883.52     -807628.38     -302.81025      0.36334983     0.056989274    29.959104      18.985314    
     99470   198.94         323.70759      134868.65     -807628.12     -302.24614      0.36335823     0.056881793    29.943948      18.63364     
     99480   198.96         331.98496      133134.89     -807629.79     -301.77639      0.36336648     0.056792098    29.947894      18.28197     
     99490   198.98         314.00775      134645.05     -807626.56     -302.4547       0.3633746      0.05691848     29.909195      17.930305    
     99500   199            334.55551      133944.48     -807630        -301.99942      0.36338256     0.056831556    29.924798      17.578643    
     99510   199.02         332.54179      136175.37     -807626.54     -9761.7576      0.36339039     0.057405318    29.868291      17.226988    
     99520   199.04         331.39965      134391.37     -807626.68     -9753.5205      0.36339807     0.057355666    29.862841      16.875336    
     99530   199.06         325.15103      136760.39     -807626.12     -9740.1689      0.3634056      0.057275964    29.880334      16.523687    
     99540   199.08         339.0989       133268.21     -807630.17     -9674.8695      0.363413       0.05689082     29.881762      16.172041    
     99550   199.1          325.27897      135579.24     -807627.2      -9704.903       0.36342025     0.057066287    29.853874      15.820399    
     99560   199.12         327.49377      133429.68     -807629.55     -9640.9213      0.36342736     0.056688956    29.826505      15.468763    
     99570   199.14         329.9618       135041.61     -807628.62     -9677.1917      0.36343432     0.056901137    29.847863      15.117129    
     99580   199.16         332.88763      133232.88     -807630.2      -9641.9153      0.36344114     0.056692651    29.894658      14.765496    
     99590   199.18         326.06343      136965.78     -807625.63     -9753.6845      0.36344782     0.057348779    29.874361      14.413867    
     99600   199.2          326.63127      134927.96     -807626.4      -9733.1974      0.36345435     0.057227292    29.812606      14.062245    
     99610   199.22         324.61573      137233.6      -807625.05     -9763.0095      0.36346074     0.057401566    29.801239      13.710626    
     99620   199.24         323.28717      134824.89     -807626.95     -9698.4765      0.36346699     0.057021164    29.808367      13.35901     
     99630   199.26         331.10847      136522.76     -807626.54     -9742.3584      0.3634731      0.057278201    29.8222        13.007397    
     99640   199.28         325.11821      133822.12     -807629.06     -9634.6239      0.36347906     0.05664387     29.842164      12.655786    
     99650   199.3          332.54841      134488.22     -807629.15     -9658.3482      0.36348487     0.056782441    29.829581      12.304179    
     99660   199.32         333.94802      132921.63     -807629.65     -9647.1793      0.36349055     0.056715892    29.847651      11.952575    
     99670   199.34         337.04576      135378.14     -807628.14     -9705.5773      0.36349608     0.057058347    29.835256      11.600974    
     99680   199.36         332.71451      134614.57     -807627.31     -9710.0594      0.36350147     0.057083851    29.840398      11.249377    
     99690   199.38         337.52728      136236.13     -807627.4      -9726.7852      0.36350671     0.057181354    29.841748      10.897783    
     99700   199.4          326.68311      136137.24     -807625.78     -9725.9887      0.36351181     0.057175869    29.80761       10.546193    
     99710   199.42         341.05079      136390.05     -807626.91     -9749.9582      0.36351677     0.057315996    29.852605      10.194605    
     99720   199.44         328.38674      134677.65     -807626.51     -9704.736       0.36352158     0.057049398    29.908983      9.8430188    
     99730   199.46         332.10399      134764.42     -807628.63     -9646.8181      0.36352625     0.056708199    29.902187      9.4914361    
     99740   199.48         334.42008      133221.2      -807629        -9642.0518      0.36353078     0.056679474    29.870373      9.1398577    
     99750   199.5          333.29382      133939.7      -807627.12     -9692.5684      0.36353516     0.056975742    29.846127      8.7882834    
     99760   199.52         337.00904      134513.37     -807627.76     -9687.0353      0.3635394      0.056942553    29.888168      8.4367113    
     99770   199.54         340.32481      135875.07     -807627.83     -9692.4472      0.3635435      0.056973723    29.87663       8.0851429    
     99780   199.56         339.7156       135575.9      -807626.24     -9736.9643      0.36354745     0.057234779    29.862697      7.7335782    
     99790   199.58         331.65934      136565.24     -807623.97     -9769.5904      0.36355126     0.057425957    29.839136      7.3820174    
     99800   199.6          346.57831      136127.86     -807626.97     -9735.2954      0.36355493     0.057223792    29.862305      7.0304594    
     99810   199.62         347.56828      134221.8      -807628.94     -9672.3417      0.36355845     0.056853201    29.85708       6.6789048    
     99820   199.64         332.67446      135341.91     -807626.59     -9676.9825      0.36356183     0.056879951    29.880664      6.3273531    
     99830   199.66         341.04473      134259.24     -807627.33     -9689.0906      0.36356507     0.056950613    29.907858      5.9758043    
     99840   199.68         324.22912      135428.55     -807624.46     -9703.0766      0.36356816     0.057032335    29.838271      5.6242601    
     99850   199.7          340.50086      135090.29     -807627.45     -9678.0945      0.36357111     0.056885034    29.833702      5.2727194    
     99860   199.72         342.488        136028.07     -807626.33     -9720.8652      0.36357392     0.057135988    29.894071      4.9211809    
     99870   199.74         323.54612      137218.14     -807622.67     -9753.3806      0.36357658     0.057326682    29.877603      4.5696461    
     99880   199.76         341.41761      135971.09     -807625.2      -9750.3329      0.3635791      0.057308372    29.895713      4.2181144    
     99890   199.78         345.86712      134184.76     -807627.74     -9687.2291      0.36358148     0.056937102    29.838899      3.8665868    
     99900   199.8          349.20827      134892.23     -807628.69     -9672.1217      0.36358371     0.056847958    29.806586      3.5150629    
     99910   199.82         325.27846      134734.22     -807625.12     -9681.9412      0.3635858      0.056905345    29.878974      3.1635415    
     99920   199.84         351.82029      134533.97     -807629.41     -9665.4316      0.36358775     0.056808007    29.920421      2.812023     
     99930   199.86         339.52253      134810.53     -807627.98     -9660.5776      0.36358955     0.056779196    29.860131      2.4605085    
     99940   199.88         338.48135      135869.97     -807625.84     -9731.0937      0.36359121     0.057193387    29.849885      2.1089974    
     99950   199.9          334.32383      136766.47     -807625.12     -9744.014       0.36359273     0.057269086    29.834485      1.7574897    
     99960   199.92         337.32655      137150.41     -807625.45     -9754.8484      0.3635941      0.057332547    29.833726      1.4059852    
     99970   199.94         336.20873      136662.04     -807625.98     -9740.4978      0.36359533     0.05724801     29.825368      1.054484     
     99980   199.96         342.64048      134213.4      -807627.67     -9725.9234      0.36359641     0.057162181    29.774349      0.70298624   
     99990   199.98         326.77205      134938.46     -807626.58     -9699.5364      0.36359736     0.057006949    29.794529      0.35149153   
    100000   200            322.89902      133730.57     -807628.08     -9645.4019      0.36359816     0.056688661    29.827574      0            
Loop time of 3514.9 on 32 procs for 100000 steps with 1080 atoms

Performance: 4.916 ns/day, 4.882 hours/ns, 28.450 timesteps/s, 30.726 katom-step/s
66.9% CPU use with 32 MPI tasks x 1 OpenMP threads

MPI task timing breakdown:
Section |  min time  |  avg time  |  max time  |%varavg| %total
---------------------------------------------------------------
Pair    | 2496.3     | 2809       | 3128.2     | 298.8 | 79.92
Neigh   | 0.0016408  | 0.0021772  | 0.0050415  |   2.3 |  0.00
Comm    | 311.75     | 631.02     | 943.67     | 630.7 | 17.95
Output  | 2.4523     | 2.4632     | 2.4762     |   0.5 |  0.07
Modify  | 65.075     | 66.2       | 66.814     |   5.5 |  1.88
Other   |            | 6.258      |            |       |  0.18

Nlocal:          33.75 ave          40 max          28 min
Histogram: 3 2 1 5 5 6 4 3 1 2
Nghost:        1044.47 ave        1063 max        1029 min
Histogram: 2 2 5 5 6 3 5 2 1 1
Neighs:              0 ave           0 max           0 min
Histogram: 32 0 0 0 0 0 0 0 0 0
FullNghs:      5354.06 ave        6382 max        4380 min
Histogram: 2 3 1 6 5 3 6 3 1 2

Total # of neighbors = 171330
Ave neighs/atom = 158.63889
Neighbor list builds = 4
Dangerous builds = 0

Total wall time: 1:02:07
