
units		metal
atom_style	atomic

read_data ${STRUCTURE}.data
read_data BaTiO3-sc333.data
Reading data file ...
  orthogonal box = (0 0 0) to (11.898253 11.898253 12.912076)
  2 by 4 by 4 MPI processor grid
  reading atoms ...
  135 atoms
  read_data CPU = 0.005 seconds
replicate $L $L $L
replicate 2 $L $L
replicate 2 2 $L
replicate 2 2 2
Replication is creating a 2x2x2 = 8 times larger system...
  orthogonal box = (0 0 0) to (23.796507 23.796507 25.824152)
  2 by 4 by 4 MPI processor grid
  1080 atoms
  replicate CPU = 0.003 seconds

pair_style allegro
pair_coeff	* * ${MODEL}.pth Ba Ti O
pair_coeff	* * BaTiO3-E0.pth Ba Ti O
mass 1 137.3
mass 2 47.9
mass 3 15.9994

timestep 0.002
compute polarization all allegro polarization 3
compute allegro will evaluate the quantity polarization of length 3 (src/compute_allegro.cpp:53)
compute polarizability all allegro polarizability 9
compute allegro will evaluate the quantity polarizability of length 9 (src/compute_allegro.cpp:53)

thermo_style custom pe fmax fnorm spcpu cpuremain

variable efield equal 1e-2*36.36
fix born all addbornforce 0.0 0.0 ${efield}
fix born all addbornforce 0.0 0.0 0.3636

thermo 10
min_style fire
#minimize 0.0 1e-6 100 100
velocity all create ${TEMP} ${SEED} dist gaussian rot yes mom yes
velocity all create 340 ${SEED} dist gaussian rot yes mom yes
velocity all create 340 11880 dist gaussian rot yes mom yes
fix nvt all nvt temp ${TEMP} ${TEMP} $(100*dt)
fix nvt all nvt temp 340 ${TEMP} $(100*dt)
fix nvt all nvt temp 340 340 $(100*dt)
fix nvt all nvt temp 340 340 0.2000000000000000111
run 5000
Neighbor list info ...
  update: every = 1 steps, delay = 0 steps, check = yes
  max neighbors/atom: 2000, page size: 100000
  master list distance cutoff = 8
  ghost atom cutoff = 8
  binsize = 8, bins = 3 3 4
  1 neighbor lists, perpetual/occasional/extra = 1 0 0
  (1) pair allegro/kk, perpetual
      attributes: full, newton on, kokkos_device
      pair build: full/bin/kk/device
      stencil: full/bin/3d
      bin: kk/device
Per MPI rank memory allocation (min/avg/max) = 3.516 | 3.516 | 3.516 Mbytes
    PotEng          Fmax          Fnorm          S/CPU         CPULeft    
-807708.29      1.5955169      37.043254      0              0            
-807643.61      3.2221208      45.529497      2.6456206      1886.1369    
-807631.47      2.5141662      36.035455      25.91671       1037.2555    
-807604.6       3.0410768      37.911438      25.924345      754.01903    
-807599.9       4.1596954      51.040126      25.81024       612.41936    
-807567         3.7966055      41.740504      25.872909      527.21168    
-807602.99      2.8654536      39.033036      25.940069      470.19533    
-807645.81      3.1059681      35.160231      25.896971      429.40441    
-807681.96      2.5971733      35.31475       25.860988      398.74772    
-807665.42      3.0158627      35.422612      25.844258      374.83137    
-807649.88      3.9656442      35.980952      25.916091      355.56833    
-807657.09      3.1984469      28.712743      25.866061      339.7707     
-807622.74      3.7254212      33.179839      25.802119      326.58053    
-807581.41      3.3683441      41.391511      25.853232      315.33128    
-807567.74      3.9584918      39.138262      25.89714       305.61105    
-807632.19      3.845019       34.230591      25.876219      297.14546    
-807652.62      4.037454       32.684944      25.839216      289.7065     
-807662.7       3.2367945      35.137166      25.861712      283.08761    
-807644.02      5.0315882      45.989123      25.920886      277.13757    
-807676.93      2.7533491      37.381242      25.869534      271.79261    
-807638.56      4.2490608      40.309907      25.843325      266.95291    
-807613.28      3.2412239      40.099406      25.888215      262.52197    
-807558.7       5.1402306      46.629979      25.898592      258.45537    
-807602.36      4.6251829      49.771517      25.883423      254.7135     
-807612.14      3.9673036      39.288012      25.821206      251.26972    
-807640.18      3.1216885      36.015         25.902345      248.04742    
-807641.21      4.9304618      45.479722      25.921796      245.03799    
-807679.35      3.5199472      38.281365      25.878974      242.23411    
-807659.91      3.33271        35.423877      25.777128      239.62864    
-807635.64      3.2442814      33.048759      25.915556      237.14243    
-807604.14      3.5835207      34.8036        25.910566      234.79742    
-807599.47      3.7635332      43.488115      25.904449      232.58018    
-807593.05      3.0488286      37.90952       25.769923      230.50686    
-807606.06      3.5985906      35.33256       25.892307      228.50972    
-807639.46      4.3782044      32.174752      25.917301      226.60224    
-807670.03      3.0930514      33.535462      25.890879      224.78694    
-807673.39      2.9511888      34.407134      25.822123      223.06428    
-807641.5       4.5989467      40.343406      25.925828      221.39443    
-807642.99      3.0170873      32.966111      25.894896      219.79776    
-807616.39      3.9759063      36.219159      25.914445      218.25973    
-807595.72      4.2316596      45.225898      25.900958      216.78162    
-807565.08      4.5021049      43.555525      25.89587       215.35762    
-807618.93      3.3148635      37.010851      25.91187       213.98044    
-807646.86      4.088626       36.995494      25.871735      212.65573    
-807670.07      2.8188643      36.399105      25.876575      211.37292    
-807638.8       5.0074623      47.487387      25.888636      210.12813    
-807662.68      3.0333594      36.360241      25.91634       208.91658    
-807641.79      3.8317276      36.982739      25.8726        207.74646    
-807619.8       3.1333239      38.695063      25.90766       206.60406    
-807561.62      4.4573272      43.455982      25.9268        205.48993    
-807595.7       3.997353       43.699981      25.926781      204.40492    
-807620.81      4.5440096      35.982578      25.852779      203.35706    
-807651.45      3.0686905      33.492789      25.873736      202.33193    
-807639.94      4.9079874      41.685194      25.909549      201.32639    
-807667.33      3.4987678      35.379794      25.873297      200.34826    
-807663.87      3.1438243      34.00571       25.833356      199.39648    
-807640.06      2.7646878      31.739284      25.884228      198.45884    
-807596.06      3.6973519      36.949583      25.905049      197.53813    
-807592.28      3.7482902      39.596315      25.933651      196.63261    
-807601.19      3.7235563      41.375084      25.804704      195.75912    
-807615.74      3.7311154      34.226516      25.896044      194.8918     
-807633.01      3.3733799      34.327072      25.93212       194.0364     
-807660.04      2.689299       34.652538      25.892546      193.20031    
-807671.92      2.9181107      37.155581      25.833939      192.38458    
-807644.89      3.9481901      38.16153       25.869772      191.57859    
-807630.78      3.0491324      34.633427      25.908222      190.78167    
-807610.92      3.8667763      36.224206      25.881804      189.99979    
-807600.68      4.3077011      45.844459      25.846073      189.23317    
-807578.4       3.8863717      41.04597       25.866585      188.47577    
-807611.5       3.1127941      37.819242      25.914839      187.72462    
-807640.85      4.009362       38.316823      25.891216      186.98607    
-807669.97      3.1530957      37.664164      25.840526      186.26203    
-807646.84      4.5800555      42.569645      25.925946      185.53976    
-807649.15      2.9913526      36.318987      25.92105       184.82714    
-807638.96      3.5987347      35.166655      25.947464      184.1211     
-807622.33      3.5192761      38.455734      25.900466      183.42757    
-807577.1       3.4938018      39.952261      25.931538      182.73955    
-807588.21      3.0293457      40.286168      25.924636      182.05994    
-807624.34      3.3169594      33.717087      25.831655      181.39538    
-807657.19      2.9215227      32.847715      25.858414      180.73572    
-807649.38      3.4458693      37.023637      25.886886      180.08064    
-807655.16      5.1487185      35.913274      25.790774      179.43965    
-807662.19      3.6179471      33.404746      25.870744      178.79872    
-807640.13      4.7168154      34.075255      25.896699      178.16198    
-807604.26      3.3557835      36.318492      25.927997      177.52889    
-807582.66      4.9506808      39.653315      25.907622      176.90311    
-807607.03      4.269612       39.944709      25.845947      176.28734    
-807624.33      3.5292982      35.304862      25.90122       175.67291    
-807640.47      2.9545222      34.319266      25.954924      175.05993    
-807647.87      4.4961695      39.058147      25.930148      174.45376    
-807669.49      2.7264989      36.433063      25.936287      173.85208    
-807649.32      4.5419419      37.098195      25.866089      173.25985    
-807628.62      2.905047       34.888569      25.930406      172.66784    
-807599.72      3.5349059      37.840488      25.954505      172.07871    
-807603.31      4.0445375      44.082879      25.922416      171.49596    
-807594.1       3.8471872      39.198649      25.865505      170.92099    
-807617.3       3.0036232      35.516835      25.874512      170.34937    
-807635.88      3.9525999      37.30678       25.877543      169.78138    
-807665.86      2.7165314      36.237655      25.838032      169.21952    
-807655.4       4.4275721      37.217617      25.877917      168.65878    
-807642.97      4.50137        36.146999      25.92841       168.09851    
-807630.47      4.022505       34.907556      25.965076      167.53955    
-807619         4.4671169      37.819631      25.914238      166.98694    
-807591.79      3.375748       38.866622      25.802068      166.44404    
-807586.72      4.3130134      40.158042      25.873028      165.90008    
-807620.61      4.0186072      34.694574      25.903454      165.35741    
-807652.16      4.4003538      34.466658      25.915597      164.81702    
-807657.83      3.6207096      35.446024      25.887737      164.28104    
-807645.14      4.1715814      38.868948      25.93699       163.74518    
-807653         3.4477809      33.863819      25.958546      163.21092    
-807637.67      3.139468       33.90188       25.951742      162.67973    
-807609.43      3.3550283      37.623522      25.921772      162.15273    
-807575.93      3.7861134      40.817876      25.925381      161.62807    
-807603.95      4.120893       38.917012      25.928597      161.1057     
-807627.82      3.4776596      34.957045      25.842312      160.59009    
-807646.31      4.0421962      35.077909      25.857703      160.07595    
-807643.06      4.2125006      39.513483      25.914021      159.56122    
-807661.04      2.9889322      36.359841      25.904204      159.04917    
-807648.5       3.8936192      37.134004      25.871599      158.54084    
-807630.96      2.9801411      34.783668      25.925306      158.03198    
-807592.29      4.1805364      39.084301      25.921847      157.52535    
-807598.32      4.2368261      41.647533      25.809285      157.02598    
-807602.65      4.9382717      38.756424      25.734725      156.53192    
-807624.92      3.0065184      35.411857      25.83212       156.03509    
-807632.31      4.3108929      38.19444       25.922438      155.53593    
-807660.11      2.7033808      35.866702      25.864766      155.04117    
-807657.18      3.2576494      36.42308       25.831365      154.54962    
-807644.23      3.2901973      34.707767      25.851751      154.05881    
-807620.1       3.5508881      35.532846      25.901524      153.56746    
-807613.71      3.4631857      36.545004      25.919777      153.07696    
-807598.33      3.8187031      39.455462      25.884119      152.58959    
-807598.37      4.6115478      37.077464      25.91867       152.10231    
-807620.2       3.2197747      33.90086       25.930987      151.61606    
-807649.21      3.5215146      33.777296      25.89994       151.13259    
-807659.26      2.869761       35.121052      25.903693      150.65043    
-807646.85      5.1205855      37.17733       25.877976      150.17072    
-807642.52      3.5820329      34.337387      25.959402      149.68915    
-807630.44      3.2505608      35.182093      25.915447      149.21071    
-807612.03      3.4303984      38.784175      25.89779       148.7343     
-807585.46      4.7190296      40.275557      25.858983      148.2607     
-807602.07      3.863356       38.517012      25.795456      147.79078    
-807629.99      4.5040551      34.7995        25.845848      147.32012    
-807651.01      2.8601598      35.232338      25.808438      146.85204    
-807645.16      4.0214488      38.927578      25.839924      146.38391    
-807652.54      3.1867181      35.208338      25.876153      145.91557    
-807646.24      3.6457474      35.272152      25.919974      145.44676    
-807631.85      3.2438554      34.577663      25.930452      144.97871    
-807598.48      3.687466       36.979091      25.922255      144.51207    
-807594.93      3.5826501      38.668248      25.909632      144.04697    
-807610.54      3.5061284      35.665786      25.878903      143.58402    
-807633.41      2.697022       33.573594      6.6759005      145.7156     
-807640.16      3.4640241      35.32933       25.837905      145.23155    
-807651.31      2.9434346      35.774741      25.897003      144.74675    
-807656         3.4063176      34.986789      8.5222107      146.04872    
-807643.16      4.3834786      35.207423      8.8122108      147.23179    
-807619.12      3.3349993      36.100714      25.979091      146.71589    
-807603.12      3.1981887      37.909755      23.681344      146.28404    
-807602.48      3.6764392      40.486788      16.698689      146.23807    
-807611.07      3.5574859      36.962822      23.232044      145.82057    
-807626.87      3.6819316      34.67546       18.593175      145.63323    
-807644.03      3.2004398      34.778572      18.573091      145.44274    
-807660.12      4.027562       34.959329      25.932997      144.92619    
-807649.24      3.0155258      35.518758      25.963611      144.41031    
-807637.38      4.0235858      34.289086      25.990805      143.89519    
-807622.37      3.6403183      33.564375      24.522776      143.42886    
-807611.56      3.8379832      37.855277      25.85761       142.9205     
-807595.51      3.4763167      38.80919       12.061364      143.30365    
-807606.46      3.1754772      36.442161      25.785292      142.79237    
-807629.83      4.1517845      35.375057      25.774162      142.2829     
-807652.46      3.0305497      35.238231      25.79015       141.77439    
-807649.89      3.9854423      37.20802       25.860781      141.26524    
-807645.05      2.9645109      36.324561      25.867513      140.75734    
-807638.32      4.4615366      35.160839      25.930212      140.24906    
-807628.47      3.3532239      34.926819      25.896483      139.74315    
-807600.33      3.9540454      37.738045      25.894905      139.23866    
-807593.7       2.9681435      38.27709       25.958619      138.73377    
-807612.22      3.4627195      36.598356      25.877642      138.23245    
-807636.8       2.4163235      33.769114      25.909063      137.73157    
-807643.43      3.2950517      35.664434      25.834425      137.23401    
-807646.44      3.3496411      36.413981      25.918001      136.73544    
-807648.28      4.545107       36.216027      25.928111      136.23785    
-807640.44      3.3393723      34.577935      25.952093      135.74087    
-807617.37      3.1557965      35.888769      25.956972      135.245      
-807596.88      4.2669477      39.077792      25.923398      134.75119    
-807600.49      3.224727       39.319877      25.862175      134.26013    
-807615.53      3.298588       36.329424      25.855772      133.77037    
-807630.22      3.1334708      35.972841      25.888516      133.28088    
-807639.96      3.6304239      36.675833      25.903143      132.79213    
-807651.19      2.8538574      36.195055      25.903419      132.30447    
-807646.15      3.8160592      36.436721      25.912795      131.81765    
-807633.23      3.7779806      34.941262      25.921192      131.33169    
-807614.35      3.3532404      35.726801      25.927534      130.84663    
-807605.93      2.6526762      37.432391      25.93454       130.36243    
-807603.21      3.7239125      37.60225       25.905711      129.87994    
-807613.4       3.6423812      36.288749      25.93184       129.39783    
-807629.45      3.4836827      35.083221      25.871634      128.91812    
-807650.07      3.5027398      34.833614      25.856323      128.43971    
-807649.04      4.0052939      36.443122      25.871648      127.96188    
-807642.35      3.2988341      35.802593      25.913325      127.48402    
-807628.7       4.6982519      36.124277      25.916702      127.00701    
-807621.67      2.9243281      36.104368      25.923684      126.53075    
-807602.17      3.9765421      38.315446      25.884617      126.05627    
-807599.53      2.9810936      38.214656      25.855488      125.58329    
-807614.85      3.2739509      35.686653      25.850054      125.11129    
-807638.54      2.9257526      34.299862      25.915994      124.63869    
-807646.07      3.0898561      35.330798      25.852607      124.1683     
-807644.52      2.7775943      35.702208      25.857715      123.69861    
-807641.36      3.1997064      35.814838      25.936753      123.22806    
-807635.88      3.6224737      35.21882       25.935616      122.75835    
-807618.71      2.8378788      35.80879       25.926886      122.28962    
-807600.84      3.3971898      37.247846      25.88677       121.82251    
-807603.63      3.1503387      37.91158       25.931755      121.35525    
-807623.44      3.6718747      35.402944      25.892219      120.88955    
-807637.13      3.2150635      34.981844      25.91499       120.42415    
-807642.3       3.2886076      35.711277      25.965369      119.95849    
-807647.29      3.4078241      35.996371      25.925379      119.49437    
-807646.06      3.7766006      35.42053       25.926764      119.03094    
-807633.27      3.0166692      34.509957      25.932342      118.56812    
-807611.32      2.9593007      35.773902      25.92184       118.10622    
-807604.13      3.5720929      37.173763      25.914014      117.64515    
-807609.08      3.1474046      37.142005      25.876805      117.18548    
-807622.68      3.2467283      34.808171      25.904098      116.72596    
-807635.71      4.0949789      34.220148      25.935842      116.2665     
-807647.22      3.3484688      34.799243      25.926919      115.80788    
-807650.89      2.5903962      34.469027      25.869984      115.35095    
-807642.71      3.7472326      34.112782      25.88618       114.89435    
-807628.55      3.5513073      33.864612      25.957287      114.43709    
-807614.52      3.5711816      36.44037       25.928285      113.98098    
-807607.23      3.1703564      37.004526      25.85793       113.52674    
-807608.01      4.1745707      37.299515      25.867011      113.07293    
-807623.06      3.6891274      34.587099      25.915375      112.61886    
-807638.63      3.5616903      34.95278       25.865151      112.16625    
-807647.89      2.8407174      35.324437      25.901207      111.71359    
-807645.24      2.8206157      36.355431      25.878881      111.26189    
-807638.47      3.7578092      35.66228       25.917082      110.81009    
-807628.62      3.6055521      35.017055      25.876697      110.35953    
-807615.82      3.29582        35.980782      25.857864      109.90983    
-807603.09      3.4552322      37.217648      25.896916      109.46002    
-807604.23      2.8047955      37.468612      25.873462      109.01112    
-807623.98      2.972634       35.189408      25.91256       108.56211    
-807640.71      3.0042049      34.621031      25.925125      108.11343    
-807642.21      3.4969241      35.702721      25.87385       107.66609    
-807642.73      2.7666358      35.288551      25.86918       107.21932    
-807641.2       3.7833364      34.556416      25.877581      106.77292    
-807628.27      3.3513821      35.621848      25.902594      106.32662    
-807608.84      4.1519728      36.758116      25.894677      105.88093    
-807600.63      3.6499984      38.0099        25.882867      105.43591    
-807608.83      4.1168255      37.822784      25.846867      104.99191    
-807626.29      4.3057511      35.480809      25.851067      104.54832    
-807635.94      4.051915       35.774222      25.910689      104.10428    
-807642.68      4.279109       35.726481      25.887828      103.66104    
-807646.19      3.6259887      35.88413       25.905566      103.218      
-807641.05      3.7700693      35.001371      25.879265      102.7758     
-807623.05      2.9649655      34.774296      25.911857      102.33356    
-807608.89      2.8585033      36.332509      25.928581      101.89152    
-807604.17      3.2477684      37.430907      25.861615      101.45089    
-807611.94      3.1119254      36.773904      25.804273      101.0115     
-807623.42      3.0742389      35.811877      25.888932      100.57131    
-807636.95      4.3029602      35.402189      25.927909      100.13099    
-807647.46      2.9393243      35.314697      25.895272      99.691553    
-807645.83      3.3010013      36.222842      25.887744      99.252626    
-807636.37      4.0776037      35.369848      25.931478      98.813506    
-807622.67      3.33346        35.237689      25.921968      98.374923    
-807612.52      2.9109304      36.519634      25.873023      97.937399    
-807604.1       3.501168       37.707119      25.857366      97.500471    
-807608.17      2.7116074      36.131836      25.853173      97.063977    
-807627.18      3.526119       34.27135       25.906214      96.62716     
-807640.35      2.9855544      34.7807        25.860738      96.191317    
-807647.26      3.1541698      34.900652      25.822261      95.756338    
-807642.78      3.0389007      34.859812      25.860887      95.321218    
-807636.62      3.2450332      34.01879       25.904939      94.885896    
-807626.22      2.9056071      34.579969      25.901358      94.450984    
-807611.58      3.1459779      35.853138      25.914499      94.016266    
-807603.26      3.8895474      37.164735      25.886102      93.582258    
-807612.53      3.3341665      34.869921      25.849752      93.149046    
-807630.82      2.5836349      33.912804      25.879645      92.715806    
-807640.84      3.036402       34.667852      25.894023      92.282731    
-807642.21      3.6780349      35.327977      25.877386      91.850195    
-807644.91      2.7763435      34.456053      25.925352      91.417419    
-807638.55      3.4050406      33.782039      25.932005      90.984902    
-807624.29      2.8607691      34.361983      25.933659      90.552701    
-807607.13      3.642451       36.570607      25.931165      90.12086     
-807607.16      3.2115619      35.933303      25.915953      89.689522    
-807615.41      3.2415823      35.872205      25.828945      89.259502    
-807631.25      3.0719174      33.536989      25.861999      88.829408    
-807636.9       4.2866596      35.235662      25.868092      88.399549    
-807644.32      3.1856099      35.027742      25.863088      87.970049    
-807645.84      3.0985501      34.587604      25.818224      87.541347    
-807635.3       3.1799763      34.373557      25.850041      87.112581    
-807619.08      3.2849924      35.0152        25.938483      86.683142    
-807609.18      3.4230746      35.947516      25.931165      86.254084    
-807607.88      3.2303898      37.016969      25.905257      85.825602    
-807615.34      4.1669992      36.589996      25.914827      85.39731     
-807626.91      3.1825677      35.058103      25.904953      84.96941     
-807639.12      4.2829964      35.994339      25.877634      84.542081    
-807644.88      3.5875492      35.775863      25.931446      84.114472    
-807640.35      3.6271515      35.865517      25.909758      83.68737     
-807631.15      3.6405031      35.121713      25.923207      83.260407    
-807619.1       2.5229882      35.247026      25.926211      82.833691    
-807608.24      3.9011653      37.741532      25.879949      82.407712    
-807606.79      3.114027       37.446087      25.853944      81.982257    
-807612.44      3.8740519      37.436237      25.852207      81.557075    
-807627.96      3.2815813      35.404765      25.860089      81.132071    
-807641.14      3.36083        36.144701      25.843421      80.707481    
-807643.9       3.166935       35.878828      25.843173      80.283141    
-807636.56      3.6731221      36.539491      25.884909      79.858648    
-807631.52      3.3281328      35.407936      25.904831      79.434216    
-807619.78      3.2713271      36.140516      25.939635      79.009708    
-807606.62      3.1939003      37.101637      25.913734      78.585694    
-807604.68      2.9359731      37.419891      25.889594      78.162149    
-807618.84      2.8626771      36.157003      25.917538      77.738589    
-807632.17      3.7236633      34.910656      25.854859      77.31584     
-807639.78      2.7391269      35.304716      25.851675      76.893351    
-807641.79      3.9965957      35.69147       25.85463       76.471063    
-807638.86      3.3495149      35.88263       25.847689      76.049063    
-807633.2       3.0394908      34.467308      25.851386      75.627253    
-807613.96      4.2019975      36.897848      25.879879      75.205417    
-807607.01      3.5666214      37.086258      25.866176      74.783922    
-807608         3.0512922      37.152966      25.915437      74.362226    
-807621.67      3.639823       36.464269      25.849575      73.941313    
-807629.41      4.1436622      35.899701      25.909495      73.520109    
-807640.28      3.4608971      35.094617      25.92653       73.098984    
-807642.66      3.4256454      35.82769       25.929296      72.678056    
-807640.13      3.7268748      35.097224      25.929723      72.257342    
-807627.89      3.2024761      34.57805       25.930779      71.836837    
-807617.33      2.6859277      35.474989      25.945477      71.416428    
-807609.53      2.8547406      36.454814      25.973072      70.996016    
-807612.82      3.7701601      36.330489      25.917581      70.576256    
-807619.43      4.2771966      35.36016       25.913912      70.156731    
-807630.87      3.0354127      35.047561      25.865223      69.737789    
-807641.64      4.0016564      35.483962      25.867494      69.319025    
-807643.05      3.7715769      35.588806      25.849509      68.900593    
-807635.01      4.1589734      36.231184      25.876194      68.482149    
-807627.79      4.7165386      35.519054      25.899288      68.063724    
-807617.76      4.7809711      36.09034       25.931545      67.645255    
-807611.15      3.2980854      36.09485       25.89696       67.227234    
-807610.55      4.095065       36.71273       25.906837      66.809332    
-807622.28      2.7642434      35.413005      25.855498      66.39199     
-807635.14      3.0716951      34.708354      25.884656      65.97462     
-807641.66      3.4649489      35.712874      25.901419      65.557314    
-807640.26      3.6286668      36.402877      25.900567      65.140199    
-807634.9       3.8172377      35.956872      25.929474      64.723064    
-807628.13      2.887825       36.043203      25.92354       64.306154    
-807614.71      3.5402282      36.460062      25.921039      63.889443    
-807607.36      3.6272643      37.606633      25.88482       63.473156    
-807610.81      4.225405       37.169141      25.905173      63.056907    
-807626.56      3.6210096      36.17895       25.915305      62.640765    
-807634.61      3.5294142      35.343283      25.861154      62.225154    
-807640.21      3.8546884      35.499287      25.855718      61.809745    
-807640.81      3.4255675      35.034937      25.816753      61.394753    
-807638.7       2.8000207      35.281354      25.856572      60.979662    
-807624.46      3.3675442      35.148364      25.911896      60.564383    
-807613.55      3.4980242      36.375582      25.894018      60.149383    
-807606.19      4.0202517      37.069255      25.852809      59.734802    
-807616.28      3.2951338      36.452322      25.859565      59.320336    
-807624.93      4.1468656      35.235659      25.910156      58.905719    
-807634.95      3.3304018      34.845942      25.906176      58.491286    
-807639.9       3.6314695      35.794952      25.920518      58.076928    
-807642.43      3.3521955      35.523162      25.923934      57.662708    
-807633.94      4.0314383      35.000215      25.953599      57.248474    
-807621.47      3.2839095      35.853417      25.933954      56.834514    
-807613.32      3.5991496      37.083793      25.888606      56.420972    
-807611.66      4.0408094      37.60976       25.881732      56.00762     
-807615.49      3.5524302      36.305851      25.898013      55.594324    
-807623.94      3.5481699      35.02003       25.856946      55.181406    
-807635.96      3.4062404      35.30477       25.811689      54.768883    
-807641.15      3.2068788      35.954144      25.843472      54.356323    
-807638.19      3.2911616      35.509751      25.8712        53.943752    
-807629.99      3.5509         36.402307      25.907165      53.53113     
-807622.02      4.0404602      36.915002      25.915216      53.11861     
-807613.48      5.6547546      38.361849      25.824054      52.706712    
-807609.82      3.2857603      37.482152      25.906134      52.294521    
-807612.37      5.0540607      37.775495      25.924483      51.882376    
-807627.11      3.0248204      36.356374      25.891565      51.47054     
-807635.41      3.7225036      36.120761      25.861565      51.058992    
-807639.49      3.4228351      36.432574      25.848133      50.647644    
-807633.3       4.3145279      36.593777      25.918308      50.23608     
-807633.11      3.0624954      35.717714      25.851577      49.824978    
-807620.84      2.9400361      36.058956      25.842558      49.414048    
-807611.1       3.0745857      37.473749      25.807893      49.00341     
-807607.91      3.8106156      37.365624      25.908393      48.592419    
-807619.48      3.7906292      37.078933      25.86998       48.181739    
-807627.87      3.4113236      35.658366      25.838305      47.771332    
-807635.47      3.159237       36.208771      25.894304      47.360791    
-807635.92      3.5583076      36.821164      25.919138      46.950265    
-807637.22      2.4661982      36.040965      25.856068      46.540148    
-807630.5       3.1820193      35.860029      25.903509      46.129944    
-807619.29      3.8586174      36.507733      25.928864      45.719754    
-807611.23      3.4015288      36.59169       25.916426      45.309743    
-807612.25      3.4958033      38.974858      25.937802      44.899767    
-807620.58      3.337757       37.154575      25.914822      44.490012    
-807625.75      3.6646161      37.595626      25.856096      44.080623    
-807634.48      3.6833588      36.528604      25.978307      43.670849    
-807639.33      3.4056858      36.747077      25.993781      43.261138    
-807636.64      3.956608       36.407742      25.995565      42.851548    
-807626.56      3.685837       36.763833      26.037292      42.44192     
-807620.93      3.6555659      35.683496      26.042492      42.0324      
-807617.65      3.3349034      35.881149      26.002146      41.623164    
-807615.6       4.6301811      36.64416       26.004994      41.214041    
-807619         3.260747       35.793823      25.983663      40.805121    
-807629.72      4.0535371      34.923374      25.999436      40.396263    
-807638.02      3.0407089      34.438148      26.060699      39.987303    
-807636.06      3.1694977      36.412955      26.08745       39.578373    
-807632.89      4.6033245      36.199535      26.040645      39.169735    
-807632.49      3.17673        34.713533      26.092352      38.761038    
-807621.05      3.2142858      36.387175      26.057104      38.352589    
-807616.35      2.9777913      36.527211      26.057037      37.944261    
-807614.54      3.5248759      37.007334      26.063502      37.536032    
-807622.37      3.4314202      36.68196       26.067498      37.127911    
-807628.27      3.2080661      36.10169       25.938831      36.720332    
-807634.56      5.1242581      36.51054       25.986662      36.312705    
-807636.91      3.2253609      35.455518      25.984394      35.905197    
-807635.23      4.1432953      35.486243      26.055017      35.497576    
-807628.31      3.2923         35.88004       26.054951      35.09007     
-807621.45      4.3420266      36.658308      25.954818      34.682987    
-807615.6       3.1691613      36.156718      25.983601      34.275921    
-807616.54      3.6392262      36.506771      25.981074      33.868969    
-807621.41      3.6038365      36.341948      26.049907      33.461921    
-807629.42      3.2057722      36.288227      26.025621      33.055054    
-807637.19      3.2077262      34.467256      26.063792      32.648186    
-807635.87      2.9948381      35.492019      26.039769      32.241497    
-807633.88      3.7954499      35.929331      26.092494      31.834769    
-807627.06      3.2817224      36.165486      26.057289      31.428248    
-807617.51      3.2867318      37.186614      26.008947      31.021964    
-807613.66      2.8256514      37.293956      26.011905      30.615776    
-807616.69      3.2258952      37.163116      26.023252      30.20966     
-807624         3.2611261      35.595842      26.023176      29.803647    
-807631.09      2.8382912      35.525995      25.953637      29.397912    
-807635.43      3.6816532      36.545871      25.988754      28.992184    
-807636.03      3.0301728      35.465096      26.036822      28.586437    
-807630.4       2.8416104      35.618246      26.054522      28.180748    
-807624.18      4.1346214      36.02859       26.062803      27.775142    
-807616.55      2.882589       36.280995      26.054703      27.369655    
-807613.91      3.7778514      37.5524        26.032646      26.964319    
-807616.51      3.1262755      36.230888      26.061456      26.559016    
-807625.16      3.8663472      35.654071      26.092535      26.153744    
-807627.94      3.9628495      37.200961      26.073743      25.748613    
-807635.13      3.432735       35.813858      26.04484       25.343643    
-807634.15      3.3305955      36.484037      26.005738      24.938851    
-807631.01      4.4259837      36.057112      25.999396      24.534163    
-807623.64      3.1785987      35.442589      26.038138      24.129489    
-807617.65      3.5318409      37.186526      25.965086      23.725053    
-807615.57      2.9421877      36.801564      25.989221      23.320658    
-807616.52      3.2945973      36.665126      26.035856      22.916262    
-807623.4       3.180453       36.406069      25.991915      22.51204     
-807630.67      2.9642885      35.870229      25.979842      22.107927    
-807634.03      3.3728778      35.612519      25.962633      21.703932    
-807634.58      3.054923       35.995385      26.045911      21.299874    
-807629.78      3.299742       35.613732      26.040496      20.895916    
-807624.01      2.8129319      35.673429      26.034937      20.492056    
-807617.23      2.9202913      35.93592       25.989316      20.088359    
-807616.15      3.3764784      36.693077      25.986354      19.68475     
-807619.27      3.1938838      36.103938      26.035856      19.281147    
-807623.9       3.8257542      37.061674      26.014555      18.877662    
-807632.42      3.0054269      36.197712      25.994912      18.474291    
-807634.83      3.4346192      36.05188       26.049209      18.070923    
-807635.23      3.0317261      35.797483      26.055419      17.667631    
-807630.75      3.1821662      35.585233      25.985255      17.264523    
-807623.92      2.9886223      35.378409      26.053375      16.861401    
-807617.69      3.1607635      36.021242      26.020247      16.458408    
-807617.1       2.6084052      35.985094      25.959178      16.055574    
-807621.33      2.9250014      35.188197      26.005138      15.65276     
-807626.14      3.416744       34.984335      25.985967      15.250047    
-807633.15      3.3533486      34.77485       25.925927      14.847483    
-807635.05      2.9743183      35.526096      25.99401       14.444914    
-807634.36      3.1037142      35.225137      26.064715      14.042342    
-807628.72      2.875898       35.281107      26.015684      13.639905    
-807622.44      3.050856       35.504734      25.963561      13.237599    
-807619.09      3.0726057      35.814032      25.990726      12.835339    
-807616.59      3.571981       37.261889      25.928547      12.433215    
-807621.68      3.3628026      36.287702      25.919465      12.03117     
-807627.13      3.4064711      35.781573      25.953899      11.629161    
-807631.98      3.0537776      35.843808      25.93275       11.227243    
-807636.42      3.7759304      35.04001       25.970366      10.825361    
-807631.16      2.8039536      35.789616      25.972377      10.423549    
-807628.64      3.9653011      35.008695      25.96389       10.021814    
-807623.11      3.2647099      35.580272      25.979564      9.6201368    
-807616.63      3.4745578      36.062342      26.011875      9.2185071    
-807618.59      3.5952629      36.153555      26.019911      8.8169438    
-807623.83      3.0556237      35.210528      25.996616      8.4154676    
-807628.03      3.0246351      35.542748      25.940079      8.0140963    
-807630.47      3.1491921      34.916943      25.931186      7.6127963    
-807635.16      3.0429729      35.076304      25.927725      7.2115631    
-807632.3       3.1034158      35.588123      25.934502      6.8103908    
-807626.65      3.1082768      35.35854       25.956388      6.4092722    
-807619.76      4.5408685      36.200238      25.941226      6.0082259    
-807618.53      3.3660601      36.212806      25.919667      5.6072529    
-807619.04      4.7053012      37.513589      25.912368      5.206345     
-807623.05      3.4984427      36.239305      25.93523       4.8054902    
-807626.84      4.5714348      36.628565      25.933008      4.4046987    
-807632.2       4.114516       36.223408      25.91626       4.0039742    
-807633.86      3.4008343      35.66631       25.926796      3.6033074    
-807630.51      2.7601753      35.453791      25.932168      3.2027002    
-807624.36      3.2197777      36.428312      25.976415      2.8021444    
-807620.19      2.9693432      36.325743      25.962666      2.4016542    
-807619.12      3.0621705      36.708803      25.962906      2.0012258    
-807619.47      3.2952674      36.621637      25.930294      1.600863     
-807625.11      3.2514444      36.715713      25.941372      1.2005583    
-807627.71      3.3049403      36.747004      25.973357      0.80031125   
-807631.3       3.4728816      36.982575      25.930003      0.40012656   
-807632.49      3.2042945      35.959393      25.919244      0            
Loop time of 200.051 on 32 procs for 5000 steps with 1080 atoms

Performance: 4.319 ns/day, 5.557 hours/ns, 24.994 timesteps/s, 26.993 katom-step/s
69.7% CPU use with 32 MPI tasks x 1 OpenMP threads

MPI task timing breakdown:
Section |  min time  |  avg time  |  max time  |%varavg| %total
---------------------------------------------------------------
Pair    | 102.08     | 144.54     | 192.55     | 308.9 | 72.25
Neigh   | 0          | 0          | 0          |   0.0 |  0.00
Comm    | 4.5691     | 52.591     | 95.049     | 511.9 | 26.29
Output  | 0.034793   | 0.086575   | 0.096509   |   6.6 |  0.04
Modify  | 2.4328     | 2.4864     | 2.5427     |   2.0 |  1.24
Other   |            | 0.3433     |            |       |  0.17

Nlocal:          33.75 ave          48 max          21 min
Histogram: 8 8 0 0 0 0 0 8 0 8
Nghost:        1106.25 ave        1119 max        1092 min
Histogram: 8 0 8 0 0 0 0 0 8 8
Neighs:              0 ave           0 max           0 min
Histogram: 32 0 0 0 0 0 0 0 0 0
FullNghs:       5494.5 ave        7896 max        3378 min
Histogram: 8 8 0 0 0 0 0 8 0 8

Total # of neighbors = 175824
Ave neighs/atom = 162.8
Neighbor list builds = 0
Dangerous builds = 0

reset_timestep 0


variable interval equal 1000
thermo 10

variable nintervals equal $(v_PERIOD/v_interval)
variable nintervals equal 100
variable efield equal 1e-2*36.36*cos((step/${PERIOD})*2*3.14)
variable efield equal 1e-2*36.36*cos((step/100000)*2*3.14)
fix born all addbornforce 0.0 0.0 v_efield

variable Px equal f_born[1]+c_polarization[1]
variable Py equal f_born[2]+c_polarization[2]
variable Pz equal (f_born[3]+c_polarization[3])/vol
variable pe equal pe

fix aveP all ave/time 1 $(v_interval/2) ${interval} v_efield v_Pz v_pe f_born file Pz.${MODEL}.${STRUCTURE}.${TEMP}.$L.${ITER}
fix aveP all ave/time 1 500 ${interval} v_efield v_Pz v_pe f_born file Pz.${MODEL}.${STRUCTURE}.${TEMP}.$L.${ITER}
fix aveP all ave/time 1 500 1000 v_efield v_Pz v_pe f_born file Pz.${MODEL}.${STRUCTURE}.${TEMP}.$L.${ITER}
fix aveP all ave/time 1 500 1000 v_efield v_Pz v_pe f_born file Pz.BaTiO3-E0.${STRUCTURE}.${TEMP}.$L.${ITER}
fix aveP all ave/time 1 500 1000 v_efield v_Pz v_pe f_born file Pz.BaTiO3-E0.BaTiO3-sc333.${TEMP}.$L.${ITER}
fix aveP all ave/time 1 500 1000 v_efield v_Pz v_pe f_born file Pz.BaTiO3-E0.BaTiO3-sc333.340.$L.${ITER}
fix aveP all ave/time 1 500 1000 v_efield v_Pz v_pe f_born file Pz.BaTiO3-E0.BaTiO3-sc333.340.2.${ITER}
fix aveP all ave/time 1 500 1000 v_efield v_Pz v_pe f_born file Pz.BaTiO3-E0.BaTiO3-sc333.340.2.6

thermo_style custom step time temp press pe f_born v_efield v_Pz spcpu cpuremain

# dump 4a all custom 1000 dump.hyst.${MODEL}.${STRUCTURE}.${TEMP}.$L.${ITER}.bin id type xu yu zu fx fy fz
# dump_modify 4a sort id

fix nvt all nvt temp ${TEMP} ${TEMP} $(100*dt)
fix nvt all nvt temp 340 ${TEMP} $(100*dt)
fix nvt all nvt temp 340 340 $(100*dt)
fix nvt all nvt temp 340 340 0.2000000000000000111

run $(v_PERIOD)
run 100000
WARNING: non-constant efield is experimental, strongly distrust scalar/vector output (src/fix_addbornforce.cpp:193)
Per MPI rank memory allocation (min/avg/max) = 3.516 | 3.516 | 3.516 Mbytes
   Step          Time           Temp          Press          PotEng         f_born        v_efield         v_Pz          S/CPU         CPULeft    
         0   0              356.40192      130741.18     -807632.49     -296.85305      0.3636         0.055829682    0              0            
        10   0.02           337.04948      132424.87     -807626.53     -300.21698      0.36359993     0.056462354    28.118516      3556.0393    
        20   0.04           352.9867       136220.05     -807624.75     -304.24577      0.36359971     0.057220089    28.092394      3557.3271    
        30   0.06           339.93629      139417.43     -807619.49     -307.74726      0.36359935     0.057878679    28.081132      3557.9947    
        40   0.08           358.94879      140092.81     -807619.97     -310.02142      0.36359885     0.058306465    28.034963      3559.616     
        50   0.1            351.14792      140044.75     -807620        -308.96839      0.36359821     0.058108522    28.067734      3559.6134    
        60   0.12           350.38558      135414.49     -807625.5      -303.48587      0.36359742     0.057077534    28.044814      3559.9782    
        70   0.14           347.47407      133697.03     -807628.88     -299.751        0.36359649     0.05637525     28.040635      3560.2126    
        80   0.16           345.53705      130465.36     -807632.25     -296.39512      0.36359541     0.055744262    28.040036      3560.3089    
        90   0.18           342.96978      132166.55     -807630.36     -298.08727      0.36359419     0.056062701    28.036154      3560.3592    
       100   0.2            336.03368      132379.4      -807628.89     -298.88257      0.36359283     0.056212487    27.987359      3560.9495    
       110   0.22           337.77991      137286.76     -807623.1      -305.13423      0.36359132     0.057388508    28.012443      3561.0769    
       120   0.24           343.53465      138083.11     -807621.85     -307.62239      0.36358968     0.057856734    28.089798      3560.3053    
       130   0.26           337.60295      141848.67     -807617.96     -310.82517      0.36358788     0.058459392    28.108586      3559.4149    
       140   0.28           344.67606      136513.32     -807623.92     -306.2252       0.36358595     0.057594545    28.14097       3558.3087    
       150   0.3            344.45438      136710.86     -807625.8      -304.52476      0.36358387     0.057275055    28.162535      3557.1216    
       160   0.32           327.29071      132338.31     -807628.57     -299.72573      0.36358165     0.056372799    28.157739      3556.0762    
       170   0.34           338.53988      132550.67     -807631.22     -298.77516      0.36357928     0.05619438     28.140445      3555.2403    
       180   0.36           334.83583      129437.82     -807633.73     -296.04043      0.36357677     0.055680409    28.111726      3554.6592    
       190   0.38           336.9662       134172.31     -807629.21     -301.01914      0.36357412     0.056617236    28.162491      3553.7646    
       200   0.4            326.35431      135722.26     -807624.05     -304.9253       0.36357132     0.057352369    28.163299      3552.919     
       210   0.42           349.48148      139994.6      -807623.58     -308.69285      0.36356838     0.058061464    28.148915      3552.2067    
       220   0.44           330.75663      139133.89     -807622.02     -307.74698      0.3635653      0.057884048    28.118522      3551.7004    
       230   0.46           338.10762      138659.48     -807623.59     -307.22405      0.36356207     0.057786202    28.083038      3551.4025    
       240   0.48           330.00277      134957.88     -807625.71     -304.0292       0.3635587      0.05718581     28.049237      3551.2781    
       250   0.5            332.74717      131876.06     -807630.66     -299.45899      0.36355519     0.056326727    28.044265      3551.1605    
       260   0.52           320.8714       130868.69     -807631.27     -297.20453      0.36355153     0.055903237    28.036094      3551.064     
       270   0.54           323.57766      131473.46     -807630.82     -297.95954      0.36354773     0.056045839    28.000998      3551.1136    
       280   0.56           336.79165      135363.58     -807627.84     -302.76564      0.36354379     0.056950478    28.027659      3551.0129    
       290   0.58           344.4021       136635.62     -807626.61     -305.08529      0.3635397      0.057387451    28.07741       3550.6775    
       300   0.6            347.60518      139586.5      -807623.78     -308.2147       0.36353547     0.057976777    28.087418      3550.2985    
       310   0.62           321.45196      137854.43     -807621.23     -307.20789      0.3635311      0.057788087    28.096953      3549.882     
       320   0.64           327.60761      138366.9      -807621.78     -307.35616      0.36352658     0.057816696    28.081215      3549.5315    
       330   0.66           339.93724      132247.78     -807629.08     -301.75062      0.36352192     0.056762966    28.085412      3549.1647    
       340   0.68           333.10974      133601.26     -807629.83     -299.81591      0.36351712     0.056399769    28.082713      3548.8083    
       350   0.7            326.02623      131708.55     -807631.5      -297.16857      0.36351217     0.055902526    28.046616      3548.5826    
       360   0.72           337.85135      133683.75     -807629.91     -300.27982      0.36350708     0.056488597    28.057372      3548.3114    
       370   0.74           335.05806      133341.18     -807627.94     -301.78763      0.36350185     0.056773063    28.081959      3547.9522    
       380   0.76           332.52756      139188.63     -807623.38     -305.81008      0.36349647     0.057530627    28.109833      3547.5002    
       390   0.78           337.0069       138147.23     -807623.26     -306.57606      0.36349095     0.057675605    28.15816       3546.8973    
       400   0.8            347.27478      139421.8      -807622.33     -308.67375      0.36348529     0.058071144    28.144782      3546.3488    
       410   0.82           337.77626      134764.86     -807625.86     -303.77228      0.36347948     0.057149937    28.116059      3545.8979    
       420   0.84           331.06428      136117.98     -807625.82     -302.6309       0.36347353     0.056936137    28.098943      3545.5029    
       430   0.86           337.99789      130646.6      -807631.21     -298.22679      0.36346744     0.056108501    28.064637      3545.2105    
       440   0.88           343.65741      133139.1      -807630.21     -299.78449      0.3634612      0.056402535    28.081755      3544.8659    
       450   0.9            333.89319      132323.78     -807629.78     -298.81567      0.36345482     0.056221244    28.083313      3544.5166    
       460   0.92           332.22915      136443.7      -807624.79     -303.41064      0.3634483      0.057086799    28.091192      3544.1451    
       470   0.94           342.50322      135595.84     -807625.33     -304.25423      0.36344163     0.057246571    28.131223      3543.6673    
       480   0.96           357.9685       138711.33     -807623.98     -307.58075      0.36343482     0.057873551    28.103124      3543.2682    
       490   0.98           339.28512      138135.54     -807621.51     -307.3331       0.36342786     0.057828061    28.068598      3542.9597    
       500   1              344.62514      137043.68     -807625.32     -304.15833      0.36342077     0.057231811    28.064367      3542.66      
       510   1.02           340.80166      135182.28     -807627        -9657.8966      0.36341353     0.056790933    27.950732      3542.6407    
       520   1.04           333.26151      132795.46     -807627.74     -9595.7281      0.36340614     0.056426512    27.933408      3542.6508    
       530   1.06           344.63773      132185.18     -807630        -9573.0879      0.36339862     0.056294545    27.964784      3542.5717    
       540   1.08           343.55011      133365.91     -807629.4      -9584.482       0.36339095     0.056362738    27.995474      3542.41      
       550   1.1            335.71157      136596.91     -807624.36     -9706.4142      0.36338313     0.057081003    28.058697      3542.0957    
       560   1.12           345.3655       137520.8      -807623.05     -9789.3443      0.36337518     0.057569955    28.020353      3541.8665    
       570   1.14           352.18687      138564.87     -807621.75     -9858.2697      0.36336707     0.057976589    28.013561      3541.648     
       580   1.16           347.97526      137789.05     -807622.99     -9796.9918      0.36335883     0.05761752     28.046951      3541.3517    
       590   1.18           340.74176      137822.46     -807623.11     -9755.9218      0.36335044     0.057377306    28.015835      3541.1201    
       600   1.2            333.52005      133809.37     -807625.63     -9643.6729      0.36334191     0.05671847     28.002302      3540.913     
       610   1.22           345.36891      133883.9      -807628.64     -9593.8858      0.36333324     0.056426999    27.962621      3540.7835    
       620   1.24           346.96144      131121.63     -807631.17     -9519.7087      0.36332442     0.05599208     27.978297      3540.6146    
       630   1.26           340.42635      134710.52     -807626.85     -9623.7533      0.36331546     0.056605436    28.022091      3540.3515    
       640   1.28           341.0574       135059.82     -807624.36     -9706.2309      0.36330636     0.057091987    28.055404      3540.0198    
       650   1.3            362.17016      137851.74     -807624.25     -9798.0142      0.36329711     0.057633322    28.083286      3539.6331    
       660   1.32           341.13311      138270.42     -807620.22     -9829.5075      0.36328772     0.057820065    28.087197      3539.2399    
       670   1.34           345.92846      138933.68     -807621.12     -9818.3772      0.36327819     0.057756109    28.0767        3538.8677    
       680   1.36           348.36283      135240.07     -807624.22     -9727.9038      0.36326851     0.057225428    28.036467      3538.5704    
       690   1.38           354.12202      134995.68     -807626.73     -9667.4308      0.36325869     0.056871226    27.988721      3538.3591    
       700   1.4            337.6183       132096.29     -807628.68     -9531.5723      0.36324873     0.056073541    28.016038      3538.0941    
       710   1.42           342.62619      133464.06     -807627.68     -9580.3608      0.36323863     0.056362128    28.035869      3537.7913    
       720   1.44           349.60198      132774.14     -807627.92     -9604.3481      0.36322838     0.056504842    28.024247      3537.5074    
       730   1.46           353.88203      136763.14     -807624.6      -9724.8945      0.36321798     0.057215684    28.015216      3537.2372    
       740   1.48           349.80559      136656.91     -807623.02     -9758.9086      0.36320745     0.057417469    28.034381      3536.9318    
       750   1.5            352.07832      139318.36     -807620.55     -9845.0845      0.36319677     0.057926196    28.031681      3536.6296    
       760   1.52           356.77271      136857.32     -807623.36     -9777.7007      0.36318595     0.05753144     28.035084      3536.3203    
       770   1.54           349.21627      136772.74     -807623.57     -9736.8408      0.36317498     0.057292753    27.990598      3536.0829    
       780   1.56           343.20011      133013.91     -807626.7      -9614.7375      0.36316387     0.056576013    28.007379      3535.8152    
       790   1.58           352.17984      133214.57     -807629.06     -9581.5428      0.36315262     0.056382432    28.041925      3535.4898    
       800   1.6            339.02202      132338.1      -807628.2      -9555.6306      0.36314122     0.056231716    27.998967      3535.2317    
       810   1.62           345.11788      134514.63     -807626.88     -9629.9512      0.36312968     0.056670869    28.027829      3534.926     
       820   1.64           354.54949      135219.26     -807625.48     -9722.2907      0.363118       0.057216115    28.0471        3534.5895    
       830   1.66           358.92067      137334.07     -807623.85     -9801.2217      0.36310618     0.057682505    28.011171      3534.307     
       840   1.68           338.32419      138374.9      -807621.73     -9786.2625      0.36309421     0.057596365    27.990992      3534.0532    
       850   1.7            343.76485      137602.95     -807623.42     -9762.1445      0.3630821      0.057456337    28.004964      3533.7762    
       860   1.72           347.60212      133811.61     -807627.02     -9672.8089      0.36306984     0.056932462    28.005676      3533.4963    
       870   1.74           329.2378       133312.57     -807626.36     -9619.7059      0.36305745     0.056621841    28.034475      3533.1728    
       880   1.76           334.21895      131447.22     -807629.28     -9556.1815      0.3630449      0.056249878    27.985362      3532.919     
       890   1.78           338.3283       132756.62     -807628.99     -9589.4882      0.36303222     0.056447901    27.995901      3532.648     
       900   1.8            348.9748       134601.43     -807628.96     -9646.5532      0.36301939     0.056785817    28.007774      3532.3584    
       910   1.82           330.88267      137559.55     -807622.97     -9763.5984      0.36300642     0.057476874    28.019147      3532.0515    
       920   1.84           341.2401       137388.84     -807624.35     -9772.1361      0.36299331     0.057529212    27.958138      3531.8273    
       930   1.86           336.98723      138155.8      -807623.21     -9793.6137      0.36298005     0.057657758    28.045204      3531.4821    
       940   1.88           328.72935      135871.89     -807623.56     -9754.1297      0.36296665     0.057427424    28.056294      3531.1217    
       950   1.9            330.76751      134479.76     -807626.14     -9683.7089      0.36295311     0.057014949    28.051633      3530.7676    
       960   1.92           338.95939      132924.56     -807630.3      -9589.8128      0.36293942     0.056464245    28.044853      3530.4223    
       970   1.94           334.93848      132483.15     -807629.81     -9590.2539      0.36292559     0.056468994    28.055019      3530.0637    
       980   1.96           342.93896      132502.23     -807630.26     -9615.1049      0.36291162     0.056617501    28.058647      3529.7003    
       990   1.98           341.50255      133589.27     -807628.56     -9664.5979      0.3628975      0.056911148    28.063734      3529.3306    
      1000   2              328.39424      135901.84     -807624.95     -9723.2487      0.36288325     0.05725877     27.959749      3529.0925    
      1010   2.02           338.36982      136891.84     -807625.08     -305.14257      0.36286884     0.057504341    28.154605      3528.6094    
      1020   2.04           334.68021      137311.55     -807623.06     -306.63263      0.3628543      0.057787462    28.165626      3528.1153    
      1030   2.06           329.48558      134892.57     -807626.22     -302.86635      0.36283961     0.057079984    28.117324      3527.6825    
      1040   2.08           333.95541      136016.14     -807626.89     -302.63534      0.36282478     0.057038778    28.098999      3527.2733    
      1050   2.1            324.77947      131534.74     -807629.26     -299.06735      0.3628098      0.056368632    28.125084      3526.8339    
      1060   2.12           333.31085      134415.88     -807628.3      -300.97801      0.36279469     0.056731122    28.070789      3526.4604    
      1070   2.14           337.97335      130859        -807631.58     -298.3724       0.36277943     0.056242357    28.072082      3526.0856    
      1080   2.16           327.72931      137035.46     -807624.82     -303.49827      0.36276402     0.057210998    28.063383      3525.7213    
      1090   2.18           340.9442       134481.31     -807626.92     -303.29017      0.36274848     0.05717422     28.06098       3525.3599    
      1100   2.2            332.27267      140043.82     -807621.2      -307.52278      0.36273279     0.057974631    28.048853      3525.0124    
      1110   2.22           336.42846      135385.2      -807625.45     -303.82504      0.36271695     0.057280029    28.071059      3524.6397    
      1120   2.24           343.19523      136998.3      -807625.44     -304.40121      0.36270098     0.057391182    28.064583      3524.2745    
      1130   2.26           334.84423      132742.01     -807627.96     -300.65033      0.36268486     0.056686517    28.058731      3523.916     
      1140   2.28           344.09229      134571.25     -807628.57     -300.95072      0.3626686      0.056745699    28.060188      3523.5559    
      1150   2.3            331.43025      132121.55     -807629.19     -298.36482      0.36265219     0.05626066     28.060919      3523.1951    
      1160   2.32           348.6185       134354.81     -807629.28     -300.22065      0.36263564     0.056613185    28.086217      3522.807     
      1170   2.34           343.03308      135466.11     -807626.54     -301.88169      0.36261895     0.056929031    28.101387      3522.4032    
      1180   2.36           338.06864      137622.91     -807622.68     -304.72827      0.36260212     0.057468509    28.111318      3521.9897    
      1190   2.38           342.49638      138028.26     -807622.01     -305.6259       0.36258514     0.057640491    28.088058      3521.6016    
      1200   2.4            354.45792      135256.6      -807625.3      -303.71345      0.36256802     0.05728251     28.11319       3521.1879    
      1210   2.42           348.4706       136354.26     -807623.84     -303.9107       0.36255076     0.057322443    28.138599      3520.7489    
      1220   2.44           343.40942      132481.86     -807626.52     -300.32876      0.36253335     0.05664955     28.07914       3520.3722    
      1230   2.46           343.15664      135424.86     -807626.13     -300.33948      0.3625158      0.056654315    28.056861      3520.0185    
      1240   2.48           350.04459      131707.78     -807629.5      -297.85249      0.36249811     0.056187927    28.109387      3519.6118    
      1250   2.5            348.87436      136933.48     -807624.42     -302.49441      0.36248028     0.057066401    28.137758      3519.1775    
      1260   2.52           346.03664      134301.1      -807624.87     -301.67233      0.3624623      0.056914137    28.115795      3518.7662    
      1270   2.54           357.75636      139921.18     -807622.75     -305.25244      0.36244418     0.057592447    28.079525      3518.3916    
      1280   2.56           355.6516       136313.24     -807624.25     -303.58213      0.36242592     0.057280194    28.129604      3517.9682    
      1290   2.58           338.87534      138662.15     -807619.94     -305.44707      0.36240751     0.057634999    28.136227      3517.5396    
      1300   2.6            362.88277      133666.75     -807628.5      -300.35194      0.36238896     0.056676498    28.098426      3517.1484    
      1310   2.62           349.52843      135111.99     -807626.21     -300.73129      0.36237027     0.056751008    28.082384      3516.7731    
      1320   2.64           349.88034      132541.59     -807628.86     -298.2617       0.36235143     0.056287897    28.113195      3516.3689    
      1330   2.66           354.46442      134563.84     -807627.63     -300.11098      0.36233245     0.056639859    28.122996      3515.9562    
      1340   2.68           338.66233      134186.3      -807625.57     -300.11555      0.36231333     0.056643711    28.086179      3515.5786    
      1350   2.7            357.53548      136670.54     -807625.81     -302.54668      0.36229407     0.057105599    28.069749      3515.2166    
      1360   2.72           347.10359      136315.81     -807622.99     -304.05043      0.36227466     0.057392505    28.133855      3514.7959    
      1370   2.74           347.47933      138306.15     -807622.35     -304.80884      0.36225511     0.057538768    28.165904      3514.347     
      1380   2.76           342.67507      136897.01     -807623.99     -302.62048      0.36223542     0.057128776    28.133203      3513.9288    
      1390   2.78           350.35251      135851.64     -807626.1      -301.67063      0.36221558     0.056952583    28.116778      3513.5264    
      1400   2.8            351.62689      134384.88     -807628.51     -299.56986      0.3621956      0.056559096    28.091998      3513.1467    
      1410   2.82           345.05352      132489.39     -807628.82     -298.44721      0.36217548     0.056350268    28.113057      3512.7487    
      1420   2.84           336.64757      134117.67     -807626.85     -299.39768      0.36215522     0.056532891    28.106413      3512.3571    
      1430   2.86           340.44464      134396.57     -807627.25     -299.72271      0.36213481     0.056597453    28.056444      3512.0098    
      1440   2.88           348.58806      137158.18     -807624.44     -303.77704      0.36211426     0.0573663      28.036946      3511.6792    
      1450   2.9            346.44424      136134.01     -807624.21     -303.88933      0.36209357     0.057390784    28.065397      3511.3237    
      1460   2.92           344.72432      137458.36     -807622.5      -305.42654      0.36207273     0.057684413    28.104515      3510.9348    
      1470   2.94           346.51315      135441.4      -807626        -302.32404      0.36205176     0.057101765    28.087165      3510.561     
      1480   2.96           336.18559      135841.78     -807625.02     -301.89495      0.36203064     0.057024049    28.079729      3510.1937    
      1490   2.98           343.04074      132118.82     -807629.29     -298.69722      0.36200937     0.056423352    28.129776      3509.7847    
      1500   3              337.21842      133066.11     -807629.44     -297.76894      0.36198796     0.056251328    28.121914      3509.3829    
      1510   3.02           333.79255      132212.12     -807628.45     -9549.3118      0.36196642     0.056376919    28.061326      3509.0319    
      1520   3.04           337.47288      135456.35     -807626.58     -9629.0234      0.36194472     0.056850924    28.058819      3508.6828    
      1530   3.06           346.22145      136128.34     -807625.75     -9696.9956      0.36192289     0.057255695    28.038049      3508.3506    
      1540   3.08           343.17232      137267.45     -807624.17     -9735.9112      0.36190091     0.057488962    28.041811      3508.0151    
      1550   3.1            339.67569      137211.45     -807624.16     -9724.2504      0.36187879     0.057423617    28.032785      3507.6865    
      1560   3.12           339.31422      136987.72     -807624.83     -9701.5071      0.36185653     0.057292838    28.014839      3507.372     
      1570   3.14           342.87653      133457.74     -807628.88     -9592.109       0.36183412     0.056650288    27.990315      3507.0766    
      1580   3.16           333.31633      132783.04     -807629.81     -9519.7861      0.36181157     0.056226659    28.043129      3506.7386    
      1590   3.18           332.10103      131880.45     -807630.2      -9504.9481      0.36178888     0.056142542    28.054701      3506.391     
      1600   3.2            338.23868      133624.74     -807628.43     -9589.1219      0.36176605     0.056643303    28.06318       3506.0369    
      1610   3.22           338.14043      134473.67     -807626.99     -9635.8268      0.36174307     0.056922806    28.017536      3505.7181    
      1620   3.24           344.81091      136324.19     -807626.22     -9692.4774      0.36171995     0.057261124    28.030497      3505.3889    
      1630   3.26           339.28699      138129.46     -807623.29     -9762.7099      0.36169669     0.057679753    28.079184      3505.022     
      1640   3.28           335.75475      137477.04     -807624.11     -9723.152       0.36167329     0.057449755    28.113234      3504.6293    
      1650   3.3            333.58082      135354.58     -807626.18     -9645.7476      0.36164974     0.056996118    28.097781      3504.2488    
      1660   3.32           333.21247      133450.56     -807628.34     -9573.635       0.36162605     0.056573715    28.082681      3503.8799    
      1670   3.34           329.93206      133166.12     -807629.61     -9520.3171      0.36160222     0.05626235     28.122543      3503.4815    
      1680   3.36           339.07243      132715.89     -807630.32     -9536.8336      0.36157824     0.056363694    28.108333      3503.094     
      1690   3.38           335.68454      133303.46     -807628.67     -9573.1642      0.36155413     0.056582186    28.090245      3502.7203    
      1700   3.4            332.53005      135419.26     -807627.07     -9610.0407      0.36152987     0.056803957    28.080351      3502.354     
      1710   3.42           348.19543      136412.57     -807625.47     -9728.8837      0.36150546     0.057510307    28.025674      3502.0278    
      1720   3.44           333.92417      137727.6      -807623.06     -9740.9374      0.36148092     0.05758547     28.008695      3501.7136    
      1730   3.46           334.05231      136912.75     -807624.63     -9688.7137      0.36145623     0.057280652    27.976888      3501.422     
      1740   3.48           337.00602      135948.63     -807626.89     -9624.2262      0.3614314      0.056903304    28.011205      3501.1048    
      1750   3.5            341.69753      134091.3      -807628.68     -9584.597       0.36140643     0.056672912    27.980228      3500.8095    
      1760   3.52           342.73086      132828.34     -807629.71     -9548.8019      0.36138131     0.056465182    27.993144      3500.5041    
      1770   3.54           330.54384      133899.51     -807628.89     -9511.8597      0.36135605     0.056250662    28.03828       3500.1663    
      1780   3.56           345.88979      133232.41     -807629.44     -9554.808       0.36133065     0.056508619    28.069501      3499.8064    
      1790   3.58           351.06586      136436.94     -807625.82     -9685.674       0.36130511     0.057286631    28.044733      3499.4638    
      1800   3.6            331.01729      137230.26     -807621.48     -9726.3211      0.36127942     0.057531131    28.073568      3499.1011    
      1810   3.62           348.81206      137603.71     -807624.59     -9693.502       0.3612536      0.057341106    28.064599      3498.7446    
      1820   3.64           346.38983      135653.42     -807626.28     -9619.0214      0.36122763     0.056904613    28.10532       3498.3602    
      1830   3.66           345.66624      135235.18     -807624.58     -9657.6388      0.36120151     0.057137198    28.10798       3497.9744    
      1840   3.68           344.49661      133820.04     -807626.61     -9578.0446      0.36117526     0.056670416    28.088482      3497.602     
      1850   3.7            346.87935      132587.76     -807629.54     -9484.2198      0.36114886     0.056119384    28.082587      3497.2339    
      1860   3.72           347.6533       133712.14     -807628.9      -9499.5606      0.36112232     0.05621429     28.03783       3496.8958    
      1870   3.74           345.32326      134600.48     -807625.21     -9601.9156      0.36109564     0.056824181    28.054437      3496.5464    
      1880   3.76           349.87031      136173.23     -807622.86     -9690.1716      0.36106881     0.057350741    28.020453      3496.2196    
      1890   3.78           359.00775      136003.53     -807625.83     -9630.7871      0.36104184     0.057003534    28.047079      3495.8748    
      1900   3.8            349.0785       137678.18     -807621.94     -9705.9237      0.36101474     0.057452573    28.035782      3495.5373    
      1910   3.82           348.98077      136161.26     -807622.83     -9677.7391      0.36098748     0.057290064    28.048985      3495.191     
      1920   3.84           350.69134      137017.38     -807624.01     -9641.1172      0.36096009     0.057077602    28.066117      3494.8335    
      1930   3.86           349.80825      133229.99     -807628.27     -9503.4414      0.36093255     0.056266822    28.107913      3494.4491    
      1940   3.88           340.30247      133716.23     -807627.24     -9491.5884      0.36090487     0.056200954    28.103335      3494.0679    
      1950   3.9            345.69101      133341        -807627.16     -9521.2635      0.36087705     0.056381011    28.07555       3493.7046    
      1960   3.92           344.61437      134994.87     -807624.7      -9596.9965      0.36084909     0.056833875    28.102         3493.3247    
      1970   3.94           345.41457      135147.29     -807624.78     -9601.3033      0.36082098     0.056863809    28.042124      3492.9829    
      1980   3.96           348.7493       136754.84     -807623.99     -9645.1858      0.36079273     0.057128176    28.074713      3492.6203    
      1990   3.98           355.63395      137296.11     -807623.69     -9692.1549      0.36076434     0.057410891    28.051727      3492.2722    
      2000   4              348.33585      136786.88     -807623.04     -9684.8243      0.36073581     0.057372005    28.049507      3491.9254    
      2010   4.02           334.65292      134904.71     -807625.55     -298.50383      0.36070713     0.056590391    28.063422      3491.5699    
      2020   4.04           340.65991      134328.4      -807627.56     -297.56445      0.36067831     0.056416812    28.05911       3491.2171    
      2030   4.06           339.43672      133024.92     -807626.8      -298.4603       0.36064935     0.056591203    28.101575      3490.8382    
      2040   4.08           340.80647      133561.21     -807627.41     -298.32984      0.36062025     0.056571031    28.086416      3490.4688    
      2050   4.1            343.2642       134181.2      -807627.89     -298.39057      0.36059101     0.056587137    28.09654       3490.0934    
      2060   4.12           343.04306      135443.26     -807626.31     -300.16985      0.36056162     0.056929201    28.110673      3489.7096    
      2070   4.14           343.78888      137313.45     -807623.05     -303.79185      0.36053209     0.057620856    28.120207      3489.3205    
      2080   4.16           338.60654      137444.34     -807623.52     -302.77683      0.36050242     0.057433061    28.126267      3488.928     
      2090   4.18           340.30965      135524.32     -807626.49     -300.21775      0.36047261     0.056952346    28.122455      3488.5381    
      2100   4.2            337.45899      134136.68     -807627.79     -298.64928      0.36044265     0.056659509    28.146946      3488.1342    
      2110   4.22           336.23847      133038.58     -807626.88     -299.54335      0.36041256     0.056833878    28.160077      3487.723     
      2120   4.24           339.9176       132839.68     -807629.75     -297.28724      0.36038232     0.056410548    28.122775      3487.3341    
      2130   4.26           333.49773      131921.81     -807629.56     -296.65899      0.36035193     0.056296083    28.114056      3486.9506    
      2140   4.28           331.23265      134195.43     -807627.36     -298.59115      0.36032141     0.056667543    28.123814      3486.5617    
      2150   4.3            342.72976      135517.63     -807626.63     -300.9698       0.36029075     0.057123831    28.129654      3486.1697    
      2160   4.32           327.09844      137716.61     -807621.95     -303.49739      0.36025994     0.057608493    28.138466      3485.773     
      2170   4.34           332.51908      135777.2      -807625.77     -300.47246      0.36022899     0.057039214    28.123499      3485.3853    
      2180   4.36           337.33721      136322.39     -807626.21     -300.5881       0.36019789     0.057066092    28.096391      3485.0132    
      2190   4.38           340.0197       133616.48     -807627.37     -299.87444      0.36016666     0.056935542    28.12562       3484.6248    
      2200   4.4            337.35908      134368.67     -807627.29     -299.51799      0.36013528     0.05687282     28.144937      3484.2258    
      2210   4.42           328.64072      132353.21     -807629.99     -295.55194      0.36010377     0.056124652    28.111269      3483.8461    
      2220   4.44           332.7185       134091.77     -807628.38     -297.65738      0.36007211     0.056529442    28.091877      3483.4773    
      2230   4.46           343.31758      133614        -807628.13     -299.46354      0.3600403      0.05687748     28.116723      3483.0949    
      2240   4.48           330.64406      137032.96     -807623.37     -302.33804      0.36000836     0.057428533    28.17852       3482.6787    
      2250   4.5            339.57144      134819.82     -807627        -299.89986      0.35997627     0.056970483    28.133158      3482.2879    
      2260   4.52           341.99139      135222.03     -807626.54     -300.55559      0.35994404     0.057100162    28.093641      3481.9191    
      2270   4.54           333.12417      134736.85     -807624.54     -301.32338      0.35991167     0.057251176    28.092952      3481.5507    
      2280   4.56           339.12119      134410.24     -807626.82     -299.7833       0.35987916     0.056963708    28.096496      3481.1805    
      2290   4.58           338.04403      133048.01     -807630.07     -296.1907       0.35984651     0.056286162    28.10419       3480.8062    
      2300   4.6            330.86953      132493.66     -807630.32     -294.87871      0.35981371     0.056041949    28.154218      3480.4053    
      2310   4.62           337.72459      134166.79     -807626.96     -299.05097      0.35978077     0.056840092    28.177345      3479.9925    
      2320   4.64           343.37716      133724.98     -807627.76     -298.92158      0.35974769     0.056820725    28.156571      3479.5911    
      2330   4.66           340.77777      135656.47     -807626.66     -299.42888      0.35971447     0.056922413    28.129936      3479.2043    
      2340   4.68           328.62614      135343.64     -807624        -300.34704      0.35968111     0.057102253    28.088113      3478.8398    
      2350   4.7            337.12142      137641.62     -807622.68     -302.6562       0.3596476      0.057546633    28.103092      3478.4675    
      2360   4.72           340.6735       135581.69     -807625.55     -300.15544      0.35961396     0.057076482    28.091116      3478.1016    
      2370   4.74           346.3654       134925.36     -807628.55     -297.63401      0.35958017     0.056602334    28.116684      3477.7225    
      2380   4.76           326.31692      133291.1      -807627.6      -295.68247      0.35954624     0.056236509    28.13799       3477.3326    
      2390   4.78           347.35235      132986.35     -807629.52     -296.44439      0.35951216     0.056386764    28.207409      3476.9071    
      2400   4.8            348.46282      132936.43     -807628.42     -297.45354      0.35947795     0.056584098    28.214224      3476.4788    
      2410   4.82           337.94965      134475.39     -807625.91     -298.24138      0.35944359     0.056739392    28.15862       3476.0795    
      2420   4.84           346.2559       135855.23     -807625.64     -299.38948      0.35940909     0.056963281    28.120721      3475.6998    
      2430   4.86           339.58903      137277.22     -807621.79     -302.00121      0.35937446     0.05746574     28.129919      3475.3157    
      2440   4.88           359.40512      135490.99     -807625.13     -301.03829      0.35933967     0.057288056    28.105453      3474.9441    
      2450   4.9            347.73472      135279.21     -807625.38     -298.74609      0.35930475     0.056857374    28.081513      3474.5848    
      2460   4.92           347.09625      133172.61     -807627.55     -296.0528       0.35926969     0.056350285    28.089639      3474.2214    
      2470   4.94           353.30521      133360.46     -807627.78     -296.26499      0.35923448     0.056396199    28.170088      3473.8179    
      2480   4.96           362.27524      132062.51     -807629.1      -295.88154      0.35919913     0.05632875     28.18617       3473.4068    
      2490   4.98           354.96401      134979.93     -807627.54     -295.9732       0.35916364     0.056351767    28.132208      3473.0229    
      2500   5              352.21019      135335.31     -807625.62     -297.24482      0.35912801     0.056599492    28.141867      3472.6344    
[...]
     98740   197.48         339.64384      134556.61     -807625.74     -9689.931       0.36236891     0.05714356     27.744881      44.911937    
     98750   197.5          347.92346      136208.24     -807625.24     -9738.7058      0.36238762     0.057428231    27.743784      44.555544    
     98760   197.52         340.01794      135616.18     -807626.45     -9666.3598      0.36240618     0.056998694    27.757107      44.199148    
     98770   197.54         348.18281      136189.71     -807627.56     -9664.94        0.36242459     0.056987426    27.73999       43.842753    
     98780   197.56         339.36706      134014.76     -807627.02     -9645.0309      0.36244287     0.056867169    27.713852      43.486362    
     98790   197.58         329.71652      134038.06     -807626.43     -9618.5593      0.362461       0.056708255    27.695743      43.129973    
     98800   197.6          333.22985      133312.38     -807628.22     -9576.5316      0.36247899     0.05645767     27.698942      42.773583    
     98810   197.62         338.65808      134157.58     -807627.19     -9633.4378      0.36249683     0.05679036     27.742548      42.417185    
     98820   197.64         338.19843      136067.68     -807625.11     -9697.2568      0.36251453     0.05716379     27.793573      42.060778    
     98830   197.66         346.53992      136549.06     -807626.26     -9694.6634      0.36253209     0.057145734    27.761864      41.704375    
     98840   197.68         350.38843      137111.62     -807625.69     -9728.2361      0.36254951     0.057340876    27.744129      41.347974    
     98850   197.7          345.88074      135709.51     -807625.75     -9707.5373      0.36256678     0.057216145    27.743849      40.991572    
     98860   197.72         355.0052       136322.95     -807626.79     -9711.9035      0.36258391     0.057239175    27.761208      40.635167    
     98870   197.74         328.37903      134356.5      -807625.37     -9640.5435      0.3626009      0.056815938    27.747279      40.278764    
     98880   197.76         343.67408      134859.82     -807627.34     -9642.9478      0.36261774     0.056827468    27.761547      39.922357    
     98890   197.78         331.21127      132683.27     -807627.53     -9583.2647      0.36263445     0.056473144    27.766737      39.565949    
     98900   197.8          342.58585      135933.3      -807626.55     -9662.1454      0.362651       0.05693538     27.742064      39.209544    
     98910   197.82         341.09827      133794.47     -807626.88     -9646.7665      0.36266742     0.056842185    27.701547      38.853143    
     98920   197.84         341.87552      138115.33     -807624.24     -9730.8072      0.36268369     0.05733481     27.731168      38.496738    
     98930   197.86         344.41887      134784.46     -807625.92     -9692.7344      0.36269982     0.057107942    27.778739      38.140325    
     98940   197.88         342.35973      137628.57     -807623.89     -9742.195       0.36271581     0.057396826    27.765304      37.783913    
     98950   197.9          344.35066      134192.67     -807627.22     -9647.5989      0.36273165     0.056837024    27.740844      37.427504    
     98960   197.92         349.65652      135820.03     -807626.77     -9681.88        0.36274735     0.057036516    27.742951      37.071093    
     98970   197.94         342.38942      133666.01     -807627.97     -9611.3016      0.36276291     0.056618306    27.734369      36.714683    
     98980   197.96         348.50868      134925.58     -807628.13     -9631.028       0.36277832     0.0567321      27.754249      36.35827     
     98990   197.98         343.70409      133594.8      -807627.66     -9625.2997      0.36279359     0.05669597     27.751291      36.001856    
     99000   198            350.2517       135184.24     -807627.05     -9671.2708      0.36280872     0.056964379    27.717924      35.645445    
     99010   198.02         346.97948      136474.72     -807625.32     -303.46599      0.3628237      0.057195505    27.774212      35.289027    
     99020   198.04         339.74275      136235.19     -807623.94     -303.7805       0.36283855     0.057252439    27.781423      34.932607    
     99030   198.06         351.43646      136563.76     -807626.97     -302.32415      0.36285324     0.056975658    27.821126      34.576181    
     99040   198.08         337.77653      135515.49     -807625.74     -301.65681      0.3628678      0.056847612    27.812431      34.219755    
     99050   198.1          345.86414      135483.64     -807625.32     -303.09695      0.36288221     0.057116739    27.792877      33.863331    
     99060   198.12         338.29059      133386.44     -807626.85     -300.4842       0.36289648     0.056622156    27.819261      33.506904    
     99070   198.14         341.8768       135678.3      -807626.59     -301.11047      0.36291061     0.05673796     27.818969      33.150476    
     99080   198.16         357.94522      133649.14     -807628.11     -301.85147      0.36292459     0.056875395    27.785596      32.794051    
     99090   198.18         352.27081      136729.18     -807625.03     -304.07606      0.36293843     0.05729237     27.804702      32.437623    
     99100   198.2          349.15962      134786.81     -807626.28     -302.47779      0.36295213     0.056989082    27.808277      32.081194    
     99110   198.22         347.37444      137777.48     -807623.92     -304.49809      0.36296568     0.057367581    27.838224      31.724761    
     99120   198.24         343.37187      134530.03     -807625.51     -302.47572      0.36297909     0.056984458    27.839155      31.368328    
     99130   198.26         336.21849      137518.86     -807623.11     -303.84755      0.36299236     0.05724081     27.831493      31.011895    
     99140   198.28         338.10831      133811.37     -807626.96     -300.38181      0.36300548     0.056585865    27.793195      30.655465    
     99150   198.3          338.23986      136446.13     -807625.45     -301.83726      0.36301846     0.05685801     27.828037      30.299031    
     99160   198.32         349.44743      133722.27     -807627.73     -301.33833      0.3630313      0.056762018    27.832315      29.942596    
     99170   198.34         348.42506      136411.96     -807625.92     -302.99398      0.36304399     0.057071891    27.769365      29.586167    
     99180   198.36         344.27235      134871.55     -807626.35     -302.1213       0.36305655     0.056905545    27.775958      29.229736    
     99190   198.38         346.78238      136649.91     -807625.42     -303.50237      0.36306895     0.057163721    27.817467      28.873301    
     99200   198.4          343.01612      135840.18     -807625.01     -303.59332      0.36308122     0.05717892     27.839031      28.516863    
     99210   198.42         336.97563      137011.31     -807624.83     -303.08556      0.36309334     0.057081381    27.823175      28.160425    
     99220   198.44         334.49192      135143.16     -807625.51     -302.18754      0.36310532     0.056910376    27.819748      27.803988    
     99230   198.46         342.0976       135183.06     -807627.24     -301.70606      0.36311715     0.056817849    27.824819      27.447549    
     99240   198.48         347.62937      134512.61     -807628.08     -301.85558      0.36312885     0.056844177    27.813603      27.091111    
     99250   198.5          343.21175      134529.9      -807627.22     -302.32442      0.3631404      0.056930655    27.766586      26.734677    
     99260   198.52         337.44416      134121.27     -807627.22     -301.73661      0.3631518      0.056818181    27.794879      26.378239    
     99270   198.54         328.95501      136209.49     -807625.05     -302.9188       0.36316306     0.057039023    27.802829      26.0218      
     99280   198.56         339.11542      135271.6      -807626.4      -303.29144      0.36317418     0.057107441    27.76293       25.665364    
     99290   198.58         327.80718      136472.73     -807624.15     -304.09116      0.36318516     0.057256292    27.799633      25.308924    
     99300   198.6          331.72574      136289.62     -807625.95     -302.99066      0.36319599     0.057047381    27.745451      24.952488    
     99310   198.62         340.43823      135421        -807627.3      -303.04315      0.36320668     0.057055584    27.770899      24.596049    
     99320   198.64         341.80411      134888.29     -807628.05     -302.66426      0.36321723     0.056982594    27.810373      24.239606    
     99330   198.66         342.83348      134312.12     -807628.23     -302.75917      0.36322763     0.05699883     27.78963       23.883164    
     99340   198.68         328.35061      135274.85     -807626.35     -302.7005       0.36323789     0.056986175    27.822272      23.526719    
     99350   198.7          334.62534      134360.48     -807627.32     -302.79607      0.36324801     0.057002579    27.806198      23.170274    
     99360   198.72         329.66169      136714.81     -807625.12     -304.37909      0.36325798     0.057299017    27.81161       22.813828    
     99370   198.74         335.53764      135353.85     -807627.01     -303.3762       0.36326781     0.057108678    27.827398      22.45738     
     99380   198.76         334.89399      135683.97     -807626.57     -303.82191      0.3632775      0.057191055    27.842604      22.100931    
     99390   198.78         334.47898      134434.95     -807626.89     -303.57656      0.36328704     0.057143369    27.868974      21.744479    
     99400   198.8          332.13769      134750.28     -807626.09     -304.07542      0.36329644     0.05723579     27.82769       21.388029    
     99410   198.82         324.05831      134331.12     -807626.98     -302.12794      0.3633057      0.056867771    27.852645      21.031577    
     99420   198.84         328.51459      135651.83     -807627.22     -302.49414      0.36331481     0.056935269    27.836146      20.675126    
     99430   198.86         326.21096      134674.38     -807626.73     -302.68588      0.36332378     0.056969952    27.822753      20.318675    
     99440   198.88         333.61047      135585.83     -807626.24     -304.08548      0.36333261     0.057231986    27.810821      19.962225    
     99450   198.9          331.06657      134119.81     -807627.52     -302.38425      0.36334129     0.056910438    27.787386      19.605775    
     99460   198.92         337.95254      136001.89     -807626.98     -303.67138      0.36334983     0.05715134     27.733633      19.249329    
     99470   198.94         333.47961      134567.39     -807626.3      -303.70805      0.36335823     0.057156919    27.705084      18.892884    
     99480   198.96         336.8696       136564.74     -807625.59     -304.54695      0.36336648     0.057313496    27.69277       18.536439    
     99490   198.98         327.30322      134243.51     -807626.77     -301.90216      0.3633746      0.056814498    27.741344      18.179989    
     99500   199            340.40124      135803.85     -807627.04     -303.07156      0.36338256     0.057033315    27.758651      17.823538    
     99510   199.02         341.6035       134139.48     -807627.21     -9688.6829      0.36339039     0.056975592    27.750339      17.467086    
     99520   199.04         347.29292      134885.62     -807626.39     -9726.2778      0.36339807     0.057195465    27.726625      17.110635    
     99530   199.06         342.07864      134488.58     -807627.6      -9652.9262      0.3634056      0.056762943    27.720264      16.754184    
     99540   199.08         335.92717      136337.04     -807624.71     -9705.493       0.363413       0.057070895    27.737609      16.397731    
     99550   199.1          348.90139      135902.05     -807625.52     -9728.346       0.36342025     0.057204136    27.778243      16.041274    
     99560   199.12         345.39842      136247.32     -807624.4      -9738.3934      0.36342736     0.057262096    27.765229      15.684818    
     99570   199.14         337.45563      136144.89     -807624.63     -9684.1873      0.36343432     0.056942271    27.76588       15.32836     
     99580   199.16         347.06016      135734.31     -807625.57     -9689.355       0.36344114     0.056971587    27.790018      14.971901    
     99590   199.18         348.65414      135496.24     -807624.44     -9728.4495      0.36344782     0.057200405    27.76748       14.615442    
     99600   199.2          342.42874      134996.28     -807624.91     -9682.9375      0.36345435     0.056931784    27.766187      14.258983    
     99610   199.22         355.56567      135173.31     -807627.23     -9661.3984      0.36346074     0.056804144    27.707513      13.902526    
     99620   199.24         353.31456      136357.32     -807625.75     -9697.6099      0.36346699     0.057016069    27.740946      13.546066    
     99630   199.26         349.57441      136990.55     -807623.72     -9746.2095      0.3634731      0.057300843    27.733644      13.189606    
     99640   199.28         357.40124      135594.39     -807625.99     -9710.6972      0.36347906     0.057091119    27.721208      12.833145    
     99650   199.3          344.2931       136635.69     -807624.23     -9706.2191      0.36348487     0.057063879    27.739334      12.476683    
     99660   199.32         346.33678      135467.7      -807625.3      -9685.1588      0.36349055     0.056939174    27.723285      12.120221    
     99670   199.34         347.72697      135896.9      -807624.91     -9705.1966      0.36349608     0.057056109    27.74765       11.763757    
     99680   199.36         346.28553      135950.09     -807626.25     -9659.0121      0.36350147     0.056783752    27.765649      11.407291    
     99690   199.38         352.73883      135255        -807626.74     -9675.1172      0.36350671     0.05687761     27.746558      11.050825    
     99700   199.4          350.94567      135085.12     -807626.1      -9690.8945      0.36351181     0.056969562    27.713664      10.69436     
     99710   199.42         350.23495      135197.26     -807625.6      -9707.7652      0.36351677     0.057067961    27.755315      10.337893    
     99720   199.44         357.31424      136071.89     -807626.28     -9721.9406      0.36352158     0.057150535    27.787521      9.9814232    
     99730   199.46         345.4581       135554.87     -807625.27     -9707.6352      0.36352625     0.057065708    27.790757      9.6249529    
     99740   199.48         341.00002      136076.34     -807624.41     -9720.775       0.36353078     0.057142238    27.781488      9.2684822    
     99750   199.5          341.13173      135604.73     -807625.56     -9691.0165      0.36353516     0.056966619    27.763764      8.9120114    
     99760   199.52         337.98512      135310.85     -807624.97     -9701.2394      0.3635394      0.057026048    27.760632      8.55554      
     99770   199.54         332.21005      135704.47     -807625.14     -9677.1338      0.3635435      0.056883708    27.762919      8.1990677    
     99780   199.56         341.82661      134902.76     -807625.81     -9703.6591      0.36354745     0.057039008    27.750522      7.842595     
     99790   199.58         343.55378      135109.62     -807626.12     -9705.8989      0.36355126     0.057051576    27.774638      7.4861209    
     99800   199.6          331.54108      135826.93     -807625.21     -9687.2344      0.36355493     0.056941291    27.757316      7.1296465    
     99810   199.62         350.63362      134618.73     -807626.93     -9722.0831      0.36355845     0.057145577    27.770964      6.7731711    
     99820   199.64         353.93723      134559.64     -807627.86     -9710.6085      0.36356183     0.057077599    27.800173      6.4166942    
     99830   199.66         338.7462       135197.78     -807625.88     -9712.9152      0.36356507     0.05709065     27.773539      6.0602173    
     99840   199.68         340.23368      135374.56     -807626.38     -9707.2361      0.36356816     0.057056784    27.798014      5.7037391    
     99850   199.7          336.43082      135763.36     -807626.57     -9689.7489      0.36357111     0.056953536    27.777041      5.3472607    
     99860   199.72         336.13506      135568.92     -807625.7      -9720.3007      0.36357392     0.05713267     27.75779       4.990782     
     99870   199.74         334.37697      135312.4      -807625.92     -9708.7105      0.36357658     0.057064128    27.762882      4.6343024    
     99880   199.76         330.88192      135531.79     -807625.69     -9702.8449      0.3635791      0.057029257    27.788815      4.2778216    
     99890   199.78         336.5771       135081.91     -807626.55     -9703.5457      0.36358148     0.057033003    27.851827      3.9213393    
     99900   199.8          342.4912       135414.01     -807626.97     -9717.5119      0.36358371     0.05711474     27.775867      3.5648575    
     99910   199.82         340.37183      135030.31     -807627        -9708.7787      0.3635858      0.057063082    27.750151      3.2083752    
     99920   199.84         332.44455      135464.52     -807626.24     -9697.7765      0.36358775     0.056998112    27.765708      2.851892     
     99930   199.86         327.23144      134427.79     -807626.08     -9681.9449      0.36358955     0.056904781    27.747704      2.4954082    
     99940   199.88         336.39059      135391.44     -807626.07     -9722.3532      0.36359121     0.057142016    27.729245      2.1389238    
     99950   199.9          325.08644      135074.99     -807625.77     -9683.8963      0.36359273     0.056915753    27.745935      1.7824385    
     99960   199.92         338.21994      136206.63     -807627.07     -9697.247       0.3635941      0.056994004    27.767873      1.4259523    
     99970   199.94         336.19637      134772.54     -807628.13     -9654.3314      0.36359533     0.056741583    27.757994      1.0694653    
     99980   199.96         341.25605      135675.63     -807626.95     -9713.4837      0.36359641     0.05708907     27.771503      0.7129776    
     99990   199.98         328.53139      135344.09     -807624.69     -9728.9687      0.36359736     0.057179931    27.767873      0.35648916   
    100000   200            338.40638      135540.89     -807627.35     -9686.3937      0.36359816     0.056929581    27.76412       0            
Loop time of 3564.9 on 32 procs for 100000 steps with 1080 atoms

Performance: 4.847 ns/day, 4.951 hours/ns, 28.051 timesteps/s, 30.295 katom-step/s
68.1% CPU use with 32 MPI tasks x 1 OpenMP threads

MPI task timing breakdown:
Section |  min time  |  avg time  |  max time  |%varavg| %total
---------------------------------------------------------------
Pair    | 2483.6     | 2793.2     | 3147.5     | 246.1 | 78.35
Neigh   | 0.0016428  | 0.0017924  | 0.0019954  |   0.2 |  0.00
Comm    | 345.59     | 699.91     | 1009.5     | 491.5 | 19.63
Output  | 2.3191     | 2.3299     | 2.3372     |   0.2 |  0.07
Modify  | 62.787     | 63.406     | 63.871     |   2.8 |  1.78
Other   |            | 6.029      |            |       |  0.17

Nlocal:          33.75 ave          44 max          26 min
Histogram: 4 0 6 8 2 4 1 3 3 1
Nghost:        1037.31 ave        1051 max        1021 min
Histogram: 1 1 2 7 1 5 3 7 2 3
Neighs:              0 ave           0 max           0 min
Histogram: 32 0 0 0 0 0 0 0 0 0
FullNghs:      5322.88 ave        6983 max        4077 min
Histogram: 4 0 6 8 3 4 0 3 3 1

Total # of neighbors = 170332
Ave neighs/atom = 157.71481
Neighbor list builds = 4
Dangerous builds = 0

Total wall time: 1:02:47
