
units		metal
atom_style	atomic

read_data ${STRUCTURE}.data
read_data BaTiO3-sc333.data
Reading data file ...
  orthogonal box = (0 0 0) to (11.898253 11.898253 12.912076)
  2 by 4 by 4 MPI processor grid
  reading atoms ...
  135 atoms
  read_data CPU = 0.005 seconds
replicate $L $L $L
replicate 2 $L $L
replicate 2 2 $L
replicate 2 2 2
Replication is creating a 2x2x2 = 8 times larger system...
  orthogonal box = (0 0 0) to (23.796507 23.796507 25.824152)
  2 by 4 by 4 MPI processor grid
  1080 atoms
  replicate CPU = 0.003 seconds

pair_style allegro
pair_coeff	* * ${MODEL}.pth Ba Ti O
pair_coeff	* * BaTiO3-E0.pth Ba Ti O
mass 1 137.3
mass 2 47.9
mass 3 15.9994

timestep 0.002
compute polarization all allegro polarization 3
compute allegro will evaluate the quantity polarization of length 3 (src/compute_allegro.cpp:53)
compute polarizability all allegro polarizability 9
compute allegro will evaluate the quantity polarizability of length 9 (src/compute_allegro.cpp:53)

thermo_style custom pe fmax fnorm spcpu cpuremain

variable efield equal 1e-2*36.36
fix born all addbornforce 0.0 0.0 ${efield}
fix born all addbornforce 0.0 0.0 0.3636

thermo 10
min_style fire
#minimize 0.0 1e-6 100 100
velocity all create ${TEMP} ${SEED} dist gaussian rot yes mom yes
velocity all create 280 ${SEED} dist gaussian rot yes mom yes
velocity all create 280 16905 dist gaussian rot yes mom yes
fix nvt all nvt temp ${TEMP} ${TEMP} $(100*dt)
fix nvt all nvt temp 280 ${TEMP} $(100*dt)
fix nvt all nvt temp 280 280 $(100*dt)
fix nvt all nvt temp 280 280 0.2000000000000000111
run 5000
Neighbor list info ...
  update: every = 1 steps, delay = 0 steps, check = yes
  max neighbors/atom: 2000, page size: 100000
  master list distance cutoff = 8
  ghost atom cutoff = 8
  binsize = 8, bins = 3 3 4
  1 neighbor lists, perpetual/occasional/extra = 1 0 0
  (1) pair allegro/kk, perpetual
      attributes: full, newton on, kokkos_device
      pair build: full/bin/kk/device
      stencil: full/bin/3d
      bin: kk/device
Per MPI rank memory allocation (min/avg/max) = 3.516 | 3.516 | 3.516 Mbytes
    PotEng          Fmax          Fnorm          S/CPU         CPULeft    
-807708.29      1.5959684      37.044571      0              0            
-807649.14      3.7658405      44.271867      2.371434       2104.213     
-807638.15      2.3566199      34.502359      25.892145      1146.1661    
-807608.86      3.3054165      36.681452      25.890268      826.56444    
-807605.78      4.1834549      49.226347      25.865017      666.61721    
-807571.42      3.5761731      38.943235      25.795074      570.598      
-807606.05      2.9244266      37.376579      25.915207      506.30805    
-807648.88      3.6070092      32.652225      25.902394      460.28978    
-807686.83      2.4028723      32.982396      25.881727      425.69855    
-807671.41      3.0855223      33.212614      25.839942      398.74249    
-807654.79      3.8265073      34.125539      25.918706      377.04261    
-807662.8       2.3372848      26.407059      25.917477      359.21883    
-807629.74      3.0692494      30.14577       25.922263      344.29848    
-807588.92      3.5667925      39.604793      25.892239      331.63095    
-807571.31      2.9453069      37.525055      25.910306      320.70859    
-807636.11      3.2853447      32.458301      25.889346      311.20116    
-807656.25      3.7096908      30.482886      25.886935      302.83497    
-807669.09      2.8027027      33.13248       25.915723      295.3954     
-807648.21      4.7535332      45.108611      25.925783      288.73557    
-807683.16      3.0684083      35.722278      25.878111      282.75415    
-807643.15      4.4281185      39.191949      25.831611      277.34894    
-807619.59      3.4993528      38.876583      25.901799      272.3977     
-807563.84      4.454475       45.602662      25.925347      267.85386    
-807608.84      4.073922       48.971021      25.875132      263.68713    
-807617.82      3.9273277      37.740645      25.820212      259.85171    
-807646.05      2.7604908      34.720908      25.909973      256.26666    
-807647.59      3.7429678      43.430524      25.902891      252.92961    
-807685.47      2.7240618      36.089406      25.87199       249.81923    
-807666.23      2.6174307      32.487625      25.811741      246.91863    
-807640.87      2.330669       30.003298      25.890062      244.17231    
-807610.59      3.0089064      31.660176      25.90912       241.57887    
-807608.16      3.3695246      40.833883      25.880852      239.13424    
-807601.49      3.4304384      34.422635      25.829691      236.82943    
-807614.8       2.8380543      31.607641      25.911113      234.62364    
-807647.95      3.3413381      28.708964      25.914344      232.52422    
-807678.26      2.3127788      30.102866      25.907104      230.52417    
-807679.67      2.6320865      31.629896      25.810796      228.63234    
-807647.67      3.8566467      36.422255      25.90297       226.80459    
-807652.57      2.6489929      28.690834      25.911614      225.05114    
-807623.82      3.7230529      31.53761       25.923127      223.3658     
-807604.62      3.4661741      41.867821      25.873991      221.75386    
-807575.65      3.185627       39.524373      25.9098        220.19572    
-807632.53      3.1091418      33.085117      25.90867       218.69358    
-807654.4       3.5705171      34.036132      25.905506      217.24386    
-807676.98      2.6726878      33.733668      25.890933      215.84474    
-807645.23      4.6571401      45.858293      25.916572      214.48677    
-807672.06      2.9823141      33.773002      25.895133      213.17422    
-807645.89      4.9920137      35.887165      25.893971      211.90126    
-807625.19      3.3786781      37.146643      25.895414      210.66505    
-807567.99      4.4087816      42.226095      25.90717       209.46191    
-807609.54      4.4874367      41.900043      25.889177      208.29388    
-807630.05      4.1800722      32.975468      25.818145      207.16586    
-807660.26      2.9637431      31.038428      25.88665       206.0575     
-807648.23      3.9048409      39.979499      25.947602      204.96873    
-807678.29      2.6531299      32.692477      25.875712      203.91486    
-807668.7       2.7779002      31.154151      25.822461      202.89171    
-807644.27      3.4254797      28.818657      25.898838      201.88221    
-807602.92      3.049071       33.543418      25.912707      200.89298    
-807601.95      3.7214498      36.849157      25.906204      199.92529    
-807612.76      3.6204954      36.530361      25.840273      198.98468    
-807626.25      3.2725921      30.183861      25.895465      198.05647    
-807646.01      3.5661947      30.496607      25.907296      197.14477    
-807669.91      3.9180856      32.135436      25.909673      196.24977    
-807680.45      2.7749214      33.759659      25.828135      195.37939    
-807648.58      3.9027367      36.530358      25.870606      194.51978    
-807637.83      3.0653415      31.085681      25.906129      193.67118    
-807614.11      3.869817       34.307851      25.911061      192.83611    
-807607.54      4.121502       44.218281      25.852441      192.0201     
-807585.02      3.7153029      40.113285      25.858618      191.21613    
-807626.43      2.5362939      34.539871      25.910672      190.41941    
-807652.14      3.5897003      36.61021       25.906959      189.63475    
-807678.76      2.9754207      35.655221      25.848348      188.86662    
-807649.41      4.8783135      42.687343      25.905735      188.10398    
-807658.75      3.7697945      34.004946      25.891148      187.35294    
-807641.85      3.5716575      33.906009      25.872313      186.61337    
-807625.07      3.5569065      37.313874      25.887253      185.88195    
-807576.71      3.5739658      38.836681      25.899737      185.15858    
-807600.96      3.6555003      38.162271      25.898243      184.44409    
-807636.01      3.2252523      30.392982      25.864279      183.74076    
-807665.69      3.2813903      30.636893      25.900955      183.04253    
-807654.67      3.404244       36.102816      25.908618      182.3515     
-807664.46      3.2495808      33.636468      25.820333      181.67484    
-807668.02      3.1726303      31.023292      25.870209      181.00143    
-807643.52      3.0587544      29.960279      25.897756      180.33285    
-807601.58      2.7121882      35.011803      25.95542       179.66677    
-807590.74      3.5944507      37.090067      25.946935      179.0079     
-807615.31      3.7129168      37.55928       25.912238      178.35787    
-807636.93      3.3278733      30.838049      25.870878      177.71685    
-807646.5       3.4361404      32.982142      25.891579      177.08016    
-807659.78      4.4120896      35.175824      25.93324       176.44624    
-807677.09      2.8253722      34.417315      25.838048      175.8243     
-807653.37      3.8306058      34.663459      25.833736      175.20782    
-807629.23      2.779065       32.581836      25.90357       174.5917     
-807604.89      3.699108       35.349463      25.90739       173.98028    
-807609.58      4.2019416      42.944886      25.844209      173.37773    
-807601.09      3.8482822      36.535432      25.818983      172.78133    
-807626.66      4.4498521      33.967648      25.922897      172.18275    
-807649.78      3.6550033      35.81082       25.911596      171.58926    
-807675.61      3.0470253      35.158678      25.87048       171.00252    
-807658.5       4.0392394      36.756656      25.855326      170.42074    
-807648.8       3.9405372      33.240985      25.927633      169.83855    
-807634.49      3.3719887      32.952646      25.906242      169.26151    
-807623.61      4.1016715      36.966239      25.878789      168.68981    
-807591.52      3.6288409      36.761878      25.922         168.11922    
-807601.02      3.7289939      36.060863      25.914076      167.55264    
-807637.58      3.3296187      30.507321      25.929352      166.98865    
-807667.56      2.9055009      30.55092       25.896341      166.42985    
-807663.09      2.8075436      32.857161      25.868228      165.87582    
-807656.16      4.1687318      34.222991      25.933151      165.32137    
-807660.81      3.090339       30.192272      25.872434      164.77327    
-807641.92      3.305386       30.244567      25.886275      164.22737    
-807607.09      3.2459289      34.881532      25.8697        163.68522    
-807584.87      3.1460834      37.880338      25.912749      163.14362    
-807618.99      3.2446646      35.323094      25.877732      162.60657    
-807644.45      3.5333427      30.763013      25.840809      162.07402    
-807654.86      4.096223       32.957988      25.860131      161.54305    
-807653.56      3.9312142      37.213843      25.919645      161.01161    
-807672.19      3.11143        33.448496      25.8738        160.48491    
-807653.7       3.7525229      33.655012      25.853953      159.96154    
-807630.13      2.8946969      32.644349      25.916727      159.43747    
-807594.68      3.9831349      36.563949      25.964452      158.91346    
-807608.64      3.4691263      39.596057      25.886959      158.39535    
-807614.49      3.067799       33.572179      25.899007      157.87885    
-807636.4       3.1918532      30.791928      25.920771      157.36347    
-807647.54      3.9576978      34.56347       25.974461      156.84777    
-807673.17      2.6481865      32.90409       25.865947      156.339      
-807662.85      3.0841423      32.839869      25.851825      155.8328     
-807646.99      3.6638515      31.043467      25.875782      155.32743    
-807624.02      3.5175877      32.314853      25.932869      154.82144    
-807617.22      3.1663415      36.338373      25.914395      154.31811    
-807600.75      3.2822212      36.977034      25.882045      153.81796    
-807608.48      3.0845291      34.704618      25.89777       153.31888    
-807634.69      3.136906       31.56255       25.937088      152.81989    
-807664.32      3.0623886      32.523501      25.904845      152.32392    
-807666.77      3.2200151      33.409883      25.905173      151.82959    
-807652.64      3.8788044      34.863968      25.88526       151.33766    
-807648.69      4.290989       31.411048      25.828601      150.84955    
-807636.33      2.7878358      30.876143      25.868349      150.36134    
-807610.51      2.8984011      36.10811       25.872336      149.87444    
-807589.15      2.9748828      36.900446      25.930272      149.38675    
-807618.05      3.1596661      33.41242       25.92523       148.9007     
-807646.83      3.0621706      31.02785       25.920996      148.41624    
-807662.72      3.642015       32.038872      25.873224      147.93497    
-807653.08      4.8762749      35.845488      25.891621      147.45434    
-807662.24      3.0874315      32.62669       25.874875      146.97563    
-807650.2       3.1774337      32.535621      25.907203      146.49702    
-807630.91      2.6345469      32.277512      25.910967      146.01954    
-807592.78      3.4887516      36.897339      25.882957      145.54431    
-807603.22      3.4177463      38.640995      25.942313      145.06817    
-807622.71      3.8771723      34.438083      25.884712      144.59528    
-807646.13      2.9812842      32.26837       25.850975      144.12471    
-807646.24      4.1997037      36.940166      25.866653      143.65471    
-807665.17      2.8664471      33.914644      25.868031      143.18577    
-807661.29      3.7306584      33.730458      25.78174       142.72083    
-807645.86      3.1915296      32.283344      25.872556      142.25384    
-807615.24      3.9347724      33.709427      25.884544      141.78748    
-807608.23      3.376535       36.084665      25.899311      141.32167    
-807607.24      3.3052801      36.648305      25.844741      140.85865    
-807620.41      3.4359158      32.464755      25.864634      140.39595    
-807636.45      3.0253702      31.768314      25.910616      139.93274    
-807660.02      2.9934066      32.311145      25.908876      139.47054    
-807667.58      2.4068955      33.03253       25.878471      139.01025    
-807654.5       3.654324       33.705605      25.858095      138.55151    
-807639.29      2.9288504      32.552541      25.930004      138.09143    
-807625.57      4.2298215      33.670723      25.928389      137.63231    
-807610.66      3.2257663      38.082113      25.898716      137.17498    
-807598.14      3.8033756      37.568452      25.909092      136.71819    
-807618.12      2.9506581      33.901317      25.926436      136.26174    
-807645.06      3.4776966      32.355381      25.942267      135.80566    
-807664.89      2.8072109      32.553115      25.91312       135.35127    
-807655.59      4.1258748      35.423487      25.905117      134.89792    
-807654.15      2.9127794      32.661789      25.916389      134.44503    
-807644.8       3.2652891      31.888933      25.897119      133.99347    
-807628.68      3.1828524      33.803442      25.886074      133.54297    
-807596.42      3.8336811      36.198104      25.871696      133.09362    
-807603.57      3.2827357      37.013745      25.878588      132.64479    
-807627.15      3.3151198      32.978205      25.846682      132.19755    
-807652.91      4.0611952      32.051905      25.91251       131.7492     
-807651.72      3.5275725      35.090926      25.863106      131.30288    
-807660.16      3.099646       33.818094      25.866106      130.85715    
-807658.67      4.3253136      33.696862      25.899372      130.41119    
-807644.35      3.2206236      32.039021      25.877382      129.96648    
-807612.5       3.4597512      34.36483       25.914541      129.52143    
-807604.21      3.468362       35.979135      25.936609      129.07646    
-807612.15      2.9680308      35.189204      25.91131       128.63279    
-807632.53      2.8151047      31.028473      25.886711      128.19036    
-807642.61      3.3053677      30.898407      25.917665      127.74776    
-807657.04      3.4195318      32.141199      25.925619      127.30557    
-807666         2.385131       31.952456      25.915169      126.86423    
-807653.5       3.3198688      32.286472      25.913378      126.42353    
-807635.21      3.2443149      31.90878       25.89888       125.98376    
-807616.15      3.5771282      33.801961      25.947438      125.54338    
-807612.43      3.1793643      36.088947      25.862406      125.1056     
-807610.2       3.269719       34.926296      25.844634      124.66878    
-807625.24      2.7343031      32.106966      25.899335      124.23118    
-807645.67      3.5632874      32.426753      25.884511      123.79446    
-807663.44      3.0636075      32.527867      25.842656      123.35922    
-807657.57      3.2476881      33.55952       25.823584      122.92491    
-807647.05      3.4327541      32.924161      25.847652      122.49053    
-807636.39      2.7530121      31.618495      25.91653       122.05507    
-807623.38      3.6011951      34.753753      25.866059      121.62123    
-807603.25      3.5326372      36.220367      25.897039      121.18718    
-807607.62      3.4773114      35.443246      25.925591      120.75297    
-807629.77      3.0330722      32.43967       25.924465      120.31927    
-807655.71      3.167783       31.101393      25.924235      119.88604    
-807653.7       3.7450514      33.702362      25.891209      119.45398    
-807653.44      3.6096545      33.545517      25.909992      119.02197    
-807649.92      2.9572237      32.537806      25.872785      118.59118    
-807640.29      4.3451325      31.829098      25.878495      118.16071    
-807613.33      3.3519221      34.411477      25.88503       117.73052    
-807600.59      5.0738649      36.846353      25.931906      117.29978    
-807613.88      3.7661073      35.640318      25.921498      116.86968    
-807638.18      4.5342487      33.155208      25.900328      116.44043    
-807646.47      4.7970591      33.279902      25.896945      116.01165    
-807650.64      3.5795431      34.909073      25.879678      115.58362    
-807659.58      2.9329696      33.56866       25.791088      115.15773    
-807651.31      4.3877677      33.239435      25.845194      114.73113    
-807632.01      3.126034       31.516543      25.904104      114.30374    
-807608.71      4.0455198      34.32264       25.902324      113.87677    
-807609.5       3.4159447      36.089592      25.919241      113.44985    
-807617.26      3.4820783      34.105749      25.90709       113.02354    
-807633.07      2.9683836      31.940692      25.91577       112.59742    
-807643.49      3.472368       33.447801      25.868779      112.17255    
-807662.07      2.6361507      32.484326      25.839181      111.74857    
-807657.02      3.7666391      33.57334       25.81216       111.32542    
-807646.3       3.7867425      32.017941      25.900379      110.90097    
-807625.47      4.0714978      33.224325      25.912693      110.47664    
-807619.09      3.605577       34.711426      25.957547      110.05185    
-807608.1       3.6770524      35.945784      25.919969      109.62807    
-807612.93      3.4644386      34.532397      25.934161      109.20437    
-807632.47      3.5694414      32.130943      25.93394       108.78101    
-807655.46      3.5409502      32.152836      25.915718      108.35829    
-807659.33      3.1177759      33.201095      25.840175      107.93719    
-807650.72      4.3356265      34.241087      25.82507       107.51664    
-807645.16      3.4347346      32.344985      25.907801      107.09498    
-807634.86      3.5872781      32.039843      25.87718       106.67413    
-807613.65      3.5288889      34.490344      25.89835       106.25322    
-807602.26      3.090014       35.858447      25.81315       105.83401    
-807618.78      2.6082983      32.726129      25.844945      105.41455    
-807640.88      3.2164313      30.969621      25.883766      104.99473    
-807655.22      2.5534861      30.719613      25.903785      104.57486    
-807652.52      3.1634398      33.589807      25.868437      104.15585    
-807656.37      3.2634812      31.655955      25.857771      103.73727    
-807648.52      3.0494083      31.281031      25.892004      103.31841    
-807629.42      2.8526967      31.928643      25.896312      102.89975    
-807605.91      3.013574       34.507504      25.924407      102.48092    
-807609.25      3.7432644      35.261516      25.927088      102.06232    
-807623.45      3.0774373      32.959924      25.918138      101.64412    
-807642.4       2.9489276      31.181676      25.917162      101.2262     
-807647.53      3.0154796      32.886038      25.890295      100.80893    
-807658.63      2.8476991      32.020335      25.868278      100.39225    
-807656.69      2.8230924      32.667014      25.862461      99.975891    
-807643.16      3.2095279      31.402657      25.891128      99.559347    
-807621.26      2.670072       31.972427      25.932676      99.142438    
-807612.65      3.0576469      34.483591      25.895024      98.726319    
-807613.76      2.9712502      34.393933      25.80565       98.31172     
-807622.46      4.2454619      33.186366      25.794539      97.897491    
-807638.24      2.8163814      31.663698      25.831703      97.482942    
-807653.92      3.4953928      32.686302      25.844866      97.06842     
-807657.59      3.5691653      33.895591      25.783721      96.654966    
-807650.66      4.1718005      32.846808      25.812768      96.241305    
-807638.58      3.2344059      32.008645      25.898345      95.826674    
-807625.93      3.0809633      32.029717      25.913499      95.412055    
-807612.74      3.1746012      35.009111      25.91735       94.997602    
-807608.17      3.1267564      34.587164      25.901765      94.583574    
-807622.66      3.89257        33.389898      25.930924      94.169372    
-807643.82      2.922643       31.820561      25.918532      93.755547    
-807655.82      3.0087058      32.78294       25.90236       93.342142    
-807653.14      2.7015039      33.824576      25.876768      92.929272    
-807648.57      3.3134937      32.64993       25.893648      92.516381    
-807641.3       2.8077634      31.639791      25.91674       92.103395    
-807622.65      3.1354559      33.773863      25.870774      91.691189    
-807606.59      3.3967974      35.14992       25.908721      91.278697    
-807607.6       3.3864649      36.14676       25.912012      90.866358    
-807630.19      3.3944793      32.699227      25.918724      90.45413     
-807646.04      3.0923733      32.937975      25.912917      90.042165    
-807649.46      3.0029937      34.131787      25.879359      89.630794    
-807654.12      5.1091528      33.712954      25.909424      89.219243    
-807652         3.1030105      32.265866      25.864652      88.80841     
-807639.17      3.4723787      31.684182      25.877605      88.397596    
-807615.87      2.9394006      33.63007       25.907305      87.986609    
-807608.31      3.1578782      34.767135      25.923168      87.575615    
-807615.59      3.5057621      34.092954      25.891531      87.165166    
-807632.14      2.6347352      31.939778      25.904216      86.754742    
-807642.28      3.6816801      32.820702      25.916721      86.344348    
-807653.22      3.2962349      33.231758      25.956285      85.933683    
-807657.34      2.6296171      33.1163        25.913808      85.523668    
-807649.4       3.1471699      32.471597      25.969825      85.113203    
-807632.37      3.1450569      33.030867      25.956332      84.703062    
-807618.42      2.7664476      33.420148      25.968892      84.292957    
-807612.79      3.4447777      36.164109      25.919766      83.883553    
-807614.8       3.063962       35.238897      25.929609      83.474206    
-807629.68      3.3845436      33.080415      25.923004      83.065092    
-807646.2       2.8156098      32.700374      25.917303      82.656197    
-807658.09      3.5646058      32.641634      25.881483      82.247833    
-807654.46      3.4905862      32.482253      25.895713      81.83947     
-807645.04      2.8666862      32.25871       25.929234      81.430913    
-807633.38      3.6876136      31.953106      25.940297      81.022398    
-807620.64      3.359037       33.618016      25.908303      80.61436     
-807610.02      3.4413485      34.737597      25.895825      80.206595    
-807614.68      3.1132837      33.947918      25.920024      79.798734    
-807634.49      3.0982827      32.412215      25.890323      79.391311    
-807651.55      3.3823044      32.012006      25.874322      78.984186    
-807655.43      2.9101472      32.747405      25.847637      78.577456    
-807650.79      3.2265543      33.264717      25.871756      78.170624    
-807646.31      2.5472147      32.088202      25.907835      77.763581    
-807634.16      2.9432584      32.543971      25.953749      77.356243    
-807615.79      2.877494       34.048164      25.926759      76.949301    
-807606.46      3.1258153      35.961282      25.925989      76.542504    
-807620.57      3.051048       33.985278      25.900393      76.136078    
-807638.31      3.3197706      32.686483      25.926661      75.729545    
-807648.31      3.0047002      32.836626      25.918682      75.323217    
-807652.33      3.2908026      33.55603       25.935142      74.916873    
-807653.5       3.7276633      33.070208      25.955471      74.510482    
-807644.94      3.1471997      33.03668       25.992218      74.103902    
-807629.23      2.9687903      32.863131      25.979617      73.697571    
-807612.24      3.0232233      34.471503      25.986996      73.291311    
-807611.92      2.9229379      35.506456      25.990482      72.885157    
-807623.68      3.0991973      33.987038      25.99952       72.479062    
-807635.91      3.2927545      33.236985      25.933517      72.073656    
-807646.31      3.2047345      33.408571      25.902388      71.668634    
-807655.41      2.8245224      33.936243      25.839619      71.264254    
-807653.22      2.704084       32.855716      25.811051      70.860219    
-807640.35      3.0839927      32.888824      25.875108      70.45576     
-807624.31      2.7205033      33.005643      25.912209      70.051112    
-807616.36      2.9566367      34.818494      25.902299      69.646659    
-807612.88      2.9716775      35.63978       25.882498      69.242476    
-807623.13      2.7281786      32.552276      25.907708      68.838204    
-807635.9       2.9321283      32.472261      25.958525      68.433647    
-807652.86      3.1744969      31.627543      25.978937      68.029049    
-807655.36      2.9896202      33.085515      25.92636       67.624974    
-807649         3.1641312      32.801694      25.93859       67.220916    
-807638.15      3.0833475      32.240433      25.963269      66.816784    
-807627.53      2.9457433      32.193109      25.951382      66.412855    
-807615.51      2.8930292      33.975185      25.9272        66.009216    
-807610.26      3.0143997      35.222794      25.926271      65.605691    
-807623.97      3.3280738      32.983685      25.922361      65.2023      
-807641.83      3.7916709      32.78455       25.948993      64.798823    
-807652.13      2.9098866      33.032717      25.934799      64.395553    
-807651.2       3.3358558      33.916357      25.876263      63.992803    
-807648.16      2.8845013      32.988194      25.90177       63.589969    
-807639.51      3.1271532      32.72548       25.93122       63.187028    
-807625.95      3.0795913      33.32503       25.943657      62.784104    
-807609.76      2.955974       34.056169      25.928458      62.381385    
-807613.59      2.7826365      34.751072      25.950371      61.978617    
-807629.11      3.0270185      32.271315      26.01689       61.575508    
-807644.82      3.0477406      31.927741      26.006976      61.172572    
-807647.62      3.6857492      32.756614      25.922103      60.770298    
-807653.72      3.8867986      32.495045      25.918912      60.368139    
-807648.17      2.9712335      32.529537      25.950028      59.965873    
-807638.8       3.3899565      31.787643      25.955588      59.563669    
-807618.47      3.2516956      32.997722      25.99453       59.161316    
-807611.82      4.4977753      34.959099      25.936363      58.759426    
-807618.29      3.18085        33.954365      25.944052      58.357582    
-807632.06      5.521902       33.634514      25.941222      57.955847    
-807640.45      3.4436571      33.237231      25.981756      57.553958    
-807651.8       3.5954898      33.434571      25.96286       57.152278    
-807653.68      3.06707        33.496531      25.948655      56.750775    
-807646.55      3.1192009      32.234716      25.92024       56.34953     
-807631.09      2.9043477      32.657166      25.966358      55.948101    
-807619.23      3.2928868      33.385841      25.936142      55.546938    
-807618.47      3.1168385      33.764672      25.917007      55.145971    
-807618.78      2.4652923      32.601821      25.96053       54.74484     
-807631.24      2.2933924      31.493876      25.986311      54.343654    
-807644.79      3.2209734      32.254467      25.926534      53.942888    
-807655.55      2.7550691      32.392969      25.891053      53.542401    
-807651.12      3.1703137      33.083529      25.851539      53.142208    
-807641.92      3.5285485      32.85347       25.938576      52.741617    
-807633.53      3.2350985      32.597112      25.927909      52.341165    
-807622.56      3.3883251      34.584412      25.908913      51.940893    
-807613.2       3.4835588      34.522798      25.937378      51.54055     
-807619.7       3.0558839      33.315829      25.957452      51.140183    
-807633.56      3.9944193      32.801424      25.960092      50.739884    
-807649.17      2.6475097      31.754078      25.953386      50.339699    
-807651.1       3.3334476      33.539331      25.969853      49.939512    
-807650         2.9802642      32.427106      26.018488      49.539166    
-807643.18      3.2631528      31.986193      26.026561      49.138865    
-807635.05      2.7613795      30.930828      25.99368       48.738808    
-807618.79      4.1884619      33.481623      25.961848      48.338985    
-807612.44      2.8825203      34.197186      25.96551       47.939222    
-807624.69      2.9303763      33.268963      25.917814      47.539759    
-807639.11      2.4713618      32.265833      25.921737      47.14035     
-807645.55      4.052171       32.836772      25.932568      46.740962    
-807649.24      2.679794       32.989585      25.942637      46.341601    
-807650.82      3.1162901      32.643534      25.962714      45.942222    
-807641.46      2.827726       33.53686       25.934902      45.54304     
-807627.06      2.554825       33.18731       25.946807      45.143876    
-807613.36      3.1634098      35.805758      25.893867      44.745014    
-807617.54      3.1691386      35.008662      25.888825      44.346238    
-807625.98      3.2842542      34.047124      25.920272      43.947393    
-807635.82      2.7393974      33.190184      25.910005      43.548659    
-807646.41      3.3728424      32.827534      25.923224      43.149934    
-807652.89      3.2171144      32.288422      25.917969      42.751298    
-807648.98      3.1305662      32.675162      25.939074      42.352641    
-807637.16      2.8424705      31.935118      25.922206      41.954118    
-807622.86      3.12146        33.90834       25.970262      41.55547     
-807618.57      2.8724083      34.650674      25.974941      41.156873    
-807615.54      3.5059011      35.654232      25.960864      40.758398    
-807624.9       3.4808908      34.388141      25.943436      40.360056    
-807636.94      4.16243        33.775303      25.939187      39.961795    
-807649.96      2.6590759      33.200684      25.915142      39.563687    
-807650.55      3.455247       34.152034      25.907671      39.165668    
-807645.37      3.0894602      33.52573       25.856917      38.767893    
-807633.68      3.6926126      33.285564      25.885044      38.370071    
-807625.88      3.5246333      33.611712      25.923999      37.972169    
-807616.14      4.0460251      34.753209      25.906068      37.574389    
-807616.79      3.0240265      34.478444      25.908032      37.176661    
-807624.98      2.9450157      33.490227      25.947494      36.778856    
-807642.77      3.1334939      32.192076      25.920015      36.381204    
-807649.75      3.5837417      32.858211      25.921329      35.983606    
-807647.78      3.3727685      33.411275      25.905941      35.586115    
-807643.72      4.6006788      32.830637      25.883556      35.188753    
-807638.55      2.886955       32.258901      25.908974      34.791363    
-807624.35      2.9532502      32.962109      25.92284       34.393986    
-807613.41      2.5476531      34.157768      25.927041      33.996651    
-807620.11      2.4560083      33.321295      25.926849      33.599373    
-807630.15      2.8739556      33.458689      25.936716      33.202121    
-807643.83      2.7799428      31.460554      25.944081      32.804903    
-807645.16      3.5226027      33.431057      25.919569      32.407813    
-807651.33      3.2562659      32.528794      25.960733      32.010659    
-807644.38      3.0502479      33.199646      25.952103      31.613586    
-807635.92      2.8340142      32.272243      25.975158      31.216505    
-807619.93      3.6269354      32.888222      25.950584      30.819548    
-807617.02      3.2516239      33.770259      25.92452       30.422717    
-807622.45      3.0603997      33.596696      25.926088      30.025934    
-807634.22      2.8580078      32.018722      25.91107       29.629242    
-807641.47      3.3158385      31.770195      25.938478      29.23253     
-807650.52      3.3413231      32.15126       25.949079      28.835844    
-807651.6       3.1698199      32.231797      25.924577      28.439272    
-807645.23      2.5739732      31.480076      25.874126      28.042875    
-807630.22      3.7249329      32.261904      25.864199      27.646548    
-807623.22      2.8961944      33.038336      25.901602      27.250176    
-807619.6       3.3001362      33.45089       25.893615      26.853871    
-807622.87      2.8342039      32.743937      25.93713       26.457513    
-807632.44      2.7668716      31.235236      25.936608      26.061205    
-807646.53      3.0058936      30.969315      25.94803       25.664922    
-807652.98      2.6018052      31.186686      25.878461      25.26884     
-807649.36      2.96563        31.055954      25.923577      24.872706    
-807641.23      2.6510655      31.188541      25.963426      24.476536    
-807633.02      2.7922927      31.291342      25.931018      24.080482    
-807624.14      2.5548639      32.143631      25.92108       23.684496    
-807618.69      2.6927101      32.660796      25.868189      23.288662    
-807623.51      2.9116926      32.381561      25.940551      22.892729    
-807637.91      3.7551542      31.316019      25.900365      22.496919    
-807647.46      3.3876573      32.135031      25.918285      22.101119    
-807649.09      3.0415581      32.468513      25.859796      21.705472    
-807645.99      4.2634324      32.420518      25.877944      21.309833    
-807639.58      2.9928638      32.06353       25.901374      20.914193    
-807631.33      3.7024731      32.819047      25.877724      20.518636    
-807617.69      2.8848611      33.91943       25.859465      20.123152    
-807618.79      3.3976858      33.621225      25.873086      19.727684    
-807626.06      3.4142096      32.821769      25.89099       19.332226    
-807640.21      2.7099139      31.154448      25.924565      18.936756    
-807642.91      2.8144553      32.564014      25.888463      18.541385    
-807648.32      2.7600532      31.926437      25.924475      18.146       
-807645.67      2.6786684      31.95493       25.931373      17.750647    
-807639.98      2.9771883      31.716679      25.957906      17.355298    
-807624.63      3.8161268      33.213656      25.890195      16.960089    
-807619.01      3.5785737      34.089592      25.930809      16.564863    
-807618.92      3.5096927      34.346685      25.91208       16.169704    
-807625.67      3.5199013      34.064501      25.906304      15.774593    
-807637.86      3.2425002      32.057951      25.85507       15.379586    
-807644.24      4.054388       33.406157      25.930598      14.984521    
-807649.78      2.718464       32.747755      25.938006      14.589489    
-807645.85      2.9785003      32.805626      25.905821      14.194535    
-807636.67      2.9532727      32.314692      25.921589      13.799601    
-807624.54      3.835669       33.739604      25.909248      13.404721    
-807618.63      3.1902582      34.16066       25.93118       13.009855    
-807617.87      4.6613148      34.086543      25.923664      12.615036    
-807626.41      3.1741476      33.111846      25.82522       12.220354    
-807637.39      3.7627372      32.603632      25.855346      11.825674    
-807646.9       3.0320997      32.615772      25.906979      11.43098     
-807649.01      3.7626505      32.448992      25.955718      11.036281    
-807642.07      2.9883796      33.225239      25.976419      10.641603    
-807634.19      3.5542409      32.972974      25.972837      10.24697     
-807625.8       2.7698858      34.221735      25.933312      9.8524077    
-807617.6       3.2725979      34.951143      25.927499      9.4578876    
-807620.06      3.1496144      34.112557      25.944487      9.0633924    
-807629.49      3.4769407      33.638262      25.910331      8.6689584    
-807641.68      3.0577029      33.266041      25.95664       8.2745296    
-807646.74      3.7919339      33.070034      25.964736      7.8801341    
-807645.86      2.8423345      33.410488      25.968668      7.4857748    
-807640.37      3.1951969      32.936186      25.885051      7.0915004    
-807635.56      2.9602853      31.922772      25.933153      6.6972337    
-807624.28      2.5948446      32.442437      25.935154      6.3030018    
-807619.06      3.0222733      33.308241      25.985428      5.9087826    
-807622.01      3.0800124      33.616626      25.93724       5.5146225    
-807633.41      2.8462586      33.223137      25.91337       5.1205074    
-807641.38      2.9926466      32.788748      25.877219      4.7264391    
-807645.21      2.8785359      34.194913      25.895879      4.3323958    
-807645.8       3.1737717      34.184594      25.909998      3.9383803    
-807642.15      3.1746668      34.034736      25.950101      3.5443868    
-807633.49      2.9088015      33.253547      25.977055      3.1504219    
-807621.46      3.065498       33.135895      25.923509      2.7565048    
-807620.36      2.9397105      33.002307      25.94736       2.3626165    
-807626.19      3.3145268      33.084229      25.923086      1.9687662    
-807634.4       2.9640694      32.049744      25.929372      1.5749477    
-807640.94      3.047653       32.36278       25.966978      1.1811587    
-807648.98      2.7256306      31.633488      25.990012      0.78740313   
-807647.66      2.2907207      31.893685      25.927226      0.39368552   
-807641.28      2.644697       31.661309      25.918473      0            
Loop time of 196.835 on 32 procs for 5000 steps with 1080 atoms

Performance: 4.389 ns/day, 5.468 hours/ns, 25.402 timesteps/s, 27.434 katom-step/s
71.0% CPU use with 32 MPI tasks x 1 OpenMP threads

MPI task timing breakdown:
Section |  min time  |  avg time  |  max time  |%varavg| %total
---------------------------------------------------------------
Pair    | 103.96     | 144.62     | 192.68     | 310.4 | 73.47
Neigh   | 0          | 0          | 0          |   0.0 |  0.00
Comm    | 1.9192     | 49.975     | 90.627     | 528.0 | 25.39
Output  | 0.025414   | 0.026572   | 0.027754   |   0.3 |  0.01
Modify  | 1.8856     | 1.9038     | 1.9163     |   0.5 |  0.97
Other   |            | 0.3099     |            |       |  0.16

Nlocal:          33.75 ave          48 max          21 min
Histogram: 8 8 0 0 0 0 0 8 0 8
Nghost:        1106.25 ave        1119 max        1092 min
Histogram: 8 0 8 0 0 0 0 0 8 8
Neighs:              0 ave           0 max           0 min
Histogram: 32 0 0 0 0 0 0 0 0 0
FullNghs:       5494.5 ave        7896 max        3378 min
Histogram: 8 8 0 0 0 0 0 8 0 8

Total # of neighbors = 175824
Ave neighs/atom = 162.8
Neighbor list builds = 0
Dangerous builds = 0

reset_timestep 0


variable interval equal 1000
thermo 10

variable nintervals equal $(v_PERIOD/v_interval)
variable nintervals equal 100
variable efield equal 1e-2*36.36*cos((step/${PERIOD})*2*3.14)
variable efield equal 1e-2*36.36*cos((step/100000)*2*3.14)
fix born all addbornforce 0.0 0.0 v_efield

variable Px equal f_born[1]+c_polarization[1]
variable Py equal f_born[2]+c_polarization[2]
variable Pz equal (f_born[3]+c_polarization[3])/vol
variable pe equal pe

fix aveP all ave/time 1 $(v_interval/2) ${interval} v_efield v_Pz v_pe f_born file Pz.${MODEL}.${STRUCTURE}.${TEMP}.$L.${ITER}
fix aveP all ave/time 1 500 ${interval} v_efield v_Pz v_pe f_born file Pz.${MODEL}.${STRUCTURE}.${TEMP}.$L.${ITER}
fix aveP all ave/time 1 500 1000 v_efield v_Pz v_pe f_born file Pz.${MODEL}.${STRUCTURE}.${TEMP}.$L.${ITER}
fix aveP all ave/time 1 500 1000 v_efield v_Pz v_pe f_born file Pz.BaTiO3-E0.${STRUCTURE}.${TEMP}.$L.${ITER}
fix aveP all ave/time 1 500 1000 v_efield v_Pz v_pe f_born file Pz.BaTiO3-E0.BaTiO3-sc333.${TEMP}.$L.${ITER}
fix aveP all ave/time 1 500 1000 v_efield v_Pz v_pe f_born file Pz.BaTiO3-E0.BaTiO3-sc333.280.$L.${ITER}
fix aveP all ave/time 1 500 1000 v_efield v_Pz v_pe f_born file Pz.BaTiO3-E0.BaTiO3-sc333.280.2.${ITER}
fix aveP all ave/time 1 500 1000 v_efield v_Pz v_pe f_born file Pz.BaTiO3-E0.BaTiO3-sc333.280.2.1

thermo_style custom step time temp press pe f_born v_efield v_Pz spcpu cpuremain

# dump 4a all custom 1000 dump.hyst.${MODEL}.${STRUCTURE}.${TEMP}.$L.${ITER}.bin id type xu yu zu fx fy fz
# dump_modify 4a sort id

fix nvt all nvt temp ${TEMP} ${TEMP} $(100*dt)
fix nvt all nvt temp 280 ${TEMP} $(100*dt)
fix nvt all nvt temp 280 280 $(100*dt)
fix nvt all nvt temp 280 280 0.2000000000000000111

run $(v_PERIOD)
run 100000
WARNING: non-constant efield is experimental, strongly distrust scalar/vector output (src/fix_addbornforce.cpp:193)
Per MPI rank memory allocation (min/avg/max) = 3.516 | 3.516 | 3.516 Mbytes
   Step          Time           Temp          Press          PotEng         f_born        v_efield         v_Pz          S/CPU         CPULeft    
         0   0              281.34177      127236.11     -807641.28     -298.37523      0.3636         0.056115962    0              0            
        10   0.02           284.11331      136062.91     -807629.38     -310.72211      0.36359993     0.058438074    29.729841      3363.3111    
        20   0.04           273.20789      142015.89     -807623.36     -315.21024      0.36359971     0.059282199    29.74108       3362.325     
        30   0.06           276.7049       143346.99     -807623.44     -315.55396      0.36359935     0.059346901    29.757151      3361.1701    
        40   0.08           268.57085      139915.15     -807623.93     -313.97098      0.36359885     0.059049269    29.693594      3362.22      
        50   0.1            279.03341      133191.61     -807632.82     -306.4707       0.36359821     0.057638776    29.714232      3362.2485    
        60   0.12           275.16041      124543.99     -807644.39     -294.15479      0.36359742     0.055322608    29.74666       3361.5444    
        70   0.14           265.67899      121276.64     -807649.18     -287.88051      0.36359649     0.054142724    29.789846      3360.2488    
        80   0.16           269.58746      123086.96     -807644.94     -292.64013      0.36359541     0.055038046    29.814367      3358.8496    
        90   0.18           276.14659      129982.51     -807636.47     -301.97685      0.36359419     0.056794231    29.801776      3357.8437    
       100   0.2            286.49192      136652.7      -807631.42     -308.31374      0.36359283     0.057986258    29.777821      3357.2413    
       110   0.22           280.58625      141705.03     -807624.56     -314.13145      0.36359132     0.059080672    29.774013      3356.727     
       120   0.24           277.25683      143309.47     -807620.42     -317.62513      0.36358968     0.05973802     29.705342      3356.8878    
       130   0.26           282.63677      138363.62     -807625.35     -313.23197      0.36358788     0.058912058    29.696692      3357.0475    
       140   0.28           284.24787      131263.02     -807636.8      -301.68552      0.36358595     0.056740727    29.699076      3357.1176    
       150   0.3            285.72127      124206.18     -807647.09     -291.32892      0.36358387     0.054793182    29.776533      3356.5501    
       160   0.32           274.50087      122482.02     -807644.93     -291.58405      0.36358165     0.0548415      29.765589      3356.0886    
       170   0.34           275.18632      123754.05     -807642.16     -294.31463      0.36357928     0.055355433    29.73178       3355.8662    
       180   0.36           285.20027      131019.3      -807636.76     -300.819        0.36357677     0.05657918     29.762935      3355.436     
       190   0.38           294.69356      136875.11     -807630.28     -308.41621      0.36357412     0.058008517    29.749231      3355.0969    
       200   0.4            286.94014      144287.58     -807619.54     -317.90356      0.36357132     0.059793406    29.73827       3354.82      
       210   0.42           284.58877      142572.7      -807619.29     -317.68967      0.36356838     0.059753659    29.762322      3354.4083    
       220   0.44           296.13864      137420.9      -807629.49     -308.86065      0.3635653      0.058093517    29.780918      3353.9083    
       230   0.46           290.02081      129408        -807638.58     -298.82591      0.36356207     0.056206585    29.796554      3353.3461    
       240   0.48           271.28517      125726        -807640.16     -294.53784      0.3635587      0.055400549    29.781345      3352.8741    
       250   0.5            283.49158      122077.86     -807645.23     -291.1415       0.36355519     0.05476225     29.798898      3352.3341    
       260   0.52           273.7655       125937.89     -807641.79     -293.11759      0.36355153     0.055134497    29.788248      3351.8558    
       270   0.54           288.71279      131760.76     -807635.91     -301.1336       0.36354773     0.056642876    29.706821      3351.7281    
       280   0.56           296.93582      139749.75     -807624.56     -313.72975      0.36354379     0.059012837    29.682982      3351.6814    
       290   0.58           292.56742      143650.88     -807619.85     -317.84259      0.3635397      0.059787138    29.720128      3351.4702    
       300   0.6            289.88776      141944.47     -807623.72     -313.60828      0.36353547     0.058991337    29.683376      3351.389     
       310   0.62           286.99495      136623.34     -807629.65     -307.32464      0.3635311      0.057810048    29.717217      3351.1679    
       320   0.64           292.33961      129491.91     -807636.93     -300.92887      0.36352658     0.056607659    29.752884      3350.814     
       330   0.66           280.07572      124256.38     -807642.34     -293.81882      0.36352192     0.055270899    29.792859      3350.325     
       340   0.68           270.06857      122913.08     -807645.7      -289.08103      0.36351712     0.05438038     29.765446      3349.9355    
       350   0.7            278.71158      126357.94     -807641.67     -294.38126      0.36351217     0.055378185    29.745164      3349.6144    
       360   0.72           290.22352      133127.64     -807632.2      -305.65236      0.36350708     0.057499278    29.717285      3349.3797    
       370   0.74           291.42685      140136.67     -807624.63     -313.49857      0.36350185     0.058976156    29.702951      3349.1834    
       380   0.76           286.50427      142292.64     -807623.78     -313.65539      0.36349647     0.05900653     29.745986      3348.8518    
       390   0.78           278.57861      141075.02     -807623.67     -312.77492      0.36349095     0.058841785    29.761642      3348.4748    
       400   0.8            287.95786      135101.24     -807629.18     -308.71582      0.36348529     0.058079058    29.798272      3347.9971    
       410   0.82           285.34923      129159.66     -807638.19     -299.39417      0.36347948     0.056326266    29.796337      3347.5316    
       420   0.84           271.52459      123787.01     -807645.4      -290.34878      0.36347353     0.054625414    29.778595      3347.1197    
       430   0.86           266.2192       124094.9      -807643.43     -291.68597      0.36346744     0.054877908    29.720258      3346.8639    
       440   0.88           280.71081      127099.13     -807638.68     -298.63794      0.3634612      0.056186818    29.717322      3346.612     
       450   0.9            281.05611      134892.11     -807631.17     -306.35031      0.36345482     0.057638863    29.621298      3346.5977    
       460   0.92           281.42979      139365.21     -807626.5      -311.12568      0.3634483      0.058538385    29.695374      3346.3872    
       470   0.94           273.61157      143307.53     -807621.32     -315.31957      0.36344163     0.059328555    29.688238      3346.1883    
       480   0.96           282.31816      140155.53     -807624.45     -313.53254      0.36343482     0.058993425    29.738393      3345.8659    
       490   0.98           280.44338      135102.71     -807631.64     -306.11333      0.36342786     0.057598548    29.766579      3345.4784    
       500   1              274.79963      127189.52     -807640.98     -296.02066      0.36342077     0.05570059     29.739783      3345.153     
       510   1.02           278.60569      124234.99     -807645.82     -9334.5402      0.36341353     0.054889513    29.636399      3345.0561    
       520   1.04           268.76318      124031.02     -807643.34     -9374.2204      0.36340614     0.055123963    29.603978      3345.0206    
       530   1.06           284.08408      128520.42     -807639.38     -9572.5775      0.36339862     0.056291544    29.56048       3345.067     
       540   1.08           279.7449       134601.65     -807633.06     -9759.233       0.36339095     0.057390383    29.563904      3345.092     
       550   1.1            267.00289      140720.59     -807623.53     -10010.165      0.36338313     0.058867283    29.639006      3344.9487    
       560   1.12           274.60452      142780.65     -807621.24     -10119.753      0.36337518     0.059513047    29.633062      3344.8105    
       570   1.14           275.46789      139082.86     -807625.13     -10000.434      0.36336707     0.05881266     29.642884      3344.6459    
       580   1.16           284.77526      132963.83     -807634.93     -9727.5071      0.36335883     0.057208871    29.670846      3344.4208    
       590   1.18           281.14311      126816.75     -807642.05     -9484.8794      0.36335044     0.05578323     29.674911      3344.1842    
       600   1.2            276.03894      124491.92     -807644.26     -9390           0.36334191     0.055226514    29.657301      3343.9773    
       610   1.22           277.79953      123536.7      -807645.43     -9362.9674      0.36333324     0.055068838    29.598458      3343.8754    
       620   1.24           278.27183      129218.7      -807639.5      -9555.9633      0.36332442     0.056205319    29.577407      3343.8044    
       630   1.26           278.08212      134763.08     -807631.16     -9825.78        0.36331546     0.057793726    29.598354      3343.6872    
       640   1.28           276.88476      140804.05     -807623.5      -10065.892      0.36330636     0.059207514    29.653812      3343.465     
       650   1.3            280.57388      140528.54     -807624.19     -10059.927      0.36329711     0.05917393     29.665221      3343.2194    
       660   1.32           277.41143      138805.37     -807627.49     -9939.2158      0.36328772     0.058465401    29.728693      3342.8628    
       670   1.34           282.49823      132209.24     -807635.23     -9713.5975      0.36327819     0.057139747    29.754208      3342.464     
       680   1.36           272.61053      127019.1      -807640.28     -9505.4886      0.36326851     0.055917047    29.742304      3342.0866    
       690   1.38           271.24988      123715.17     -807645.46     -9331.9293      0.36325869     0.05489755     29.70737       3341.7674    
       700   1.4            260.90248      125408.03     -807642.89     -9366.1089      0.36324873     0.055100131    29.672654      3341.5035    
       710   1.42           274.02978      130077.34     -807637.2      -9606.3433      0.36323863     0.056514985    29.607388      3341.3415    
       720   1.44           277.59193      136279.88     -807628.85     -9887.7826      0.36322838     0.058172359    29.638571      3341.1256    
       730   1.46           277.40756      141516.85     -807623.84     -10042.148      0.36321798     0.059082222    29.675919      3340.8486    
       740   1.48           281.68517      140964.7      -807624.73     -10027.953      0.36320745     0.059000418    29.667471      3340.5829    
       750   1.5            282.4254       138718.62     -807627.75     -9927.5031      0.36319677     0.058411128    29.687862      3340.2846    
       760   1.52           285.86082      131053.55     -807635.61     -9686.903       0.36318595     0.056997192    29.721325      3339.9358    
       770   1.54           278.23432      126502.82     -807641.82     -9443.3759      0.36317498     0.055565969    29.687315      3339.637     
       780   1.56           278.08402      122786.14     -807646.88     -9275.4506      0.36316387     0.054579546    29.630229      3339.4198    
       790   1.58           276.70947      126454.83     -807641.57     -9432.429       0.36315262     0.055504974    29.59738       3339.2465    
       800   1.6            291.15147      130861.13     -807636.34     -9660.8395      0.36314122     0.056850836    29.640509      3339.0082    
       810   1.62           291.98167      137990.13     -807628.91     -9894.0393      0.36312968     0.058224989    29.641068      3338.7667    
       820   1.64           277.77662      140501.15     -807623.62     -9994.7086      0.363118       0.058819306    29.695121      3338.4484    
       830   1.66           283.76663      142428.55     -807621.98     -10066.98       0.36310618     0.059246555    29.712326      3338.1066    
       840   1.68           283.9355       136151.34     -807627.17     -9899.8338      0.36309421     0.058264782    29.745084      3337.7211    
       850   1.7            294.54799      131189.05     -807636.86     -9627.6111      0.3630821      0.056664524    29.708461      3337.385     
       860   1.72           278.65941      125094.42     -807643.17     -9350.7919      0.36306984     0.055037127    29.660956      3337.1111    
       870   1.74           282.35064      124671.89     -807643.32     -9357.1848      0.36305745     0.055076635    29.636411      3336.8676    
       880   1.76           276.09866      125735.01     -807640.14     -9431.1254      0.3630449      0.055513769    29.69793       3336.5433    
       890   1.78           289.26661      132547.83     -807634.55     -9665.2173      0.36303222     0.056893675    29.633957      3336.2995    
       900   1.8            289.36547      137535.77     -807627.68     -9885.6846      0.36301939     0.058193498    29.667723      3336.0114    
       910   1.82           283.65779      143103.59     -807620.79     -10078.423      0.36300642     0.0593302      29.677801      3335.7098    
       920   1.84           286.98758      141246.69     -807622.38     -10041.399      0.36299331     0.059114379    29.713972      3335.3632    
       930   1.86           299.96111      136305.87     -807631.62     -9803.2055      0.36298005     0.057714228    29.707832      3335.0242    
       940   1.88           294.49724      129574.26     -807637.79     -9581.7052      0.36296665     0.056412276    29.649931      3334.7546    
       950   1.9            284.38681      125192.5      -807641.86     -9407.0863      0.36295311     0.055386274    29.665233      3334.4654    
       960   1.92           269.24283      124427.68     -807641.78     -9343.9837      0.36293942     0.055016818    29.673699      3334.1653    
       970   1.94           287.25328      126937.18     -807641.76     -9429.0129      0.36292559     0.05551958     29.600722      3333.9492    
       980   1.96           283.27028      133238.85     -807633.01     -9695.9241      0.36291162     0.057093396    29.540659      3333.8001    
       990   1.98           283.58727      139818.49     -807624.54     -9973.7687      0.3628975      0.058731738    29.680237      3333.4879    
      1000   2              283.2404       142092.6      -807622.63     -10036.928      0.36288325     0.059105978    29.669628      3333.1871    
      1010   2.02           277.07043      140887.74     -807625        -310.55616      0.36286884     0.058524536    29.787739      3332.7548    
      1020   2.04           296.89857      134709.82     -807632.57     -305.95798      0.3628543      0.057660317    29.780707      3332.3319    
      1030   2.06           281.30602      129056.7      -807636.79     -299.81143      0.36283961     0.056504237    29.773976      3331.9181    
      1040   2.08           270.13744      126036.47     -807642.52     -292.6661       0.36282478     0.055159839    29.761085      3331.5195    
      1050   2.1            268.24596      124560.97     -807644.58     -290.53595      0.3628098      0.054760622    29.763974      3331.1191    
      1060   2.12           284.79589      127690.65     -807640.58     -297.09747      0.36279469     0.05599968     29.719388      3330.767     
      1070   2.14           283.29231      133705.14     -807631.74     -306.01759      0.36277943     0.057683455    29.759866      3330.3735    
      1080   2.16           280.19723      139222.03     -807626.68     -310.81161      0.36276402     0.058589602    29.802421      3329.9358    
      1090   2.18           272.76674      140322.87     -807624.98     -311.57503      0.36274848     0.058736027    29.814497      3329.4883    
      1100   2.2            285.96887      139323.89     -807626.88     -311.7032       0.36273279     0.058762731    29.804307      3329.0531    
      1110   2.22           280.26252      133872.37     -807630.93     -306.99849      0.36271695     0.057878317    29.786964      3328.6371    
      1120   2.24           276.32411      129037.38     -807639.9      -297.50244      0.36270098     0.056090502    29.810816      3328.1989    
      1130   2.26           263.13149      123565.01     -807645.36     -290.26946      0.36268486     0.054729242    29.784405      3327.7885    
      1140   2.28           264.28678      126148.23     -807642.19     -293.63429      0.3626686      0.055366151    29.76851       3327.395     
      1150   2.3            266.51666      128269.95     -807637.36     -298.88405      0.36265219     0.056358568    29.777685      3326.9935    
      1160   2.32           291.42992      134423.43     -807634        -305.65357      0.36263564     0.057637681    29.774706      3326.5961    
      1170   2.34           275.80536      138476.86     -807628.37     -309.16607      0.36261895     0.058302724    29.785056      3326.1899    
      1180   2.36           260.74947      142311.26     -807620.57     -314.87024      0.36260212     0.059381175    29.736022      3325.8312    
      1190   2.38           279.70074      138099.32     -807626.41     -311.74999      0.36258514     0.058795483    29.740271      3325.4689    
      1200   2.4            277.62117      133494.13     -807634.3      -303.44189      0.36256802     0.057231292    29.751611      3325.0965    
      1210   2.42           273.82967      127232.09     -807641.47     -295.69721      0.36255076     0.055773246    29.781023      3324.6975    
      1220   2.44           261.86344      124939        -807642.01     -293.42521      0.36253335     0.055347367    29.75187       3324.3263    
      1230   2.46           270.75244      125569.66     -807643.38     -293.22663      0.3625158      0.055312588    29.738195      3323.968     
      1240   2.48           276.47321      129389.96     -807639.44     -297.86479      0.36249811     0.056190246    29.75409       3323.5959    
      1250   2.5            282.70298      134137.24     -807632.45     -305.68062      0.36248028     0.05766749     29.790416      3323.1918    
      1260   2.52           277.37014      139996.73     -807625.65     -311.68589      0.3624623      0.058803316    29.793999      3322.7857    
      1270   2.54           270.13863      141104.87     -807622.97     -313.31321      0.36244418     0.059113285    29.779091      3322.3938    
      1280   2.56           285.33848      137496.58     -807629.31     -308.94316      0.36242592     0.058291719    29.798817      3321.9856    
      1290   2.58           276.85876      132489.03     -807634.63     -302.31574      0.36240751     0.057044147    29.752037      3321.6189    
      1300   2.6            279.26221      126760.55     -807640.24     -296.96713      0.36238896     0.056037782    29.761344      3321.2447    
      1310   2.62           268.38842      124843.16     -807642.67     -292.84474      0.36237027     0.055262737    29.804208      3320.8347    
      1320   2.64           273.44633      125296.41     -807643.04     -293.09763      0.36235143     0.055313334    29.803773      3320.4262    
      1330   2.66           279.43251      130415.39     -807637.72     -299.19169      0.36233245     0.056466363    29.776818      3320.0413    
      1340   2.68           281.48948      136100.18     -807629.95     -307.15891      0.36231333     0.057973073    29.775734      3319.658     
      1350   2.7            281.33152      140088.14     -807624.49     -312.44458      0.36229407     0.058973824    29.77639       3319.275     
      1360   2.72           288.39321      139345.17     -807626.84     -311.05618      0.36227466     0.058714909    29.811052      3318.8642    
      1370   2.74           281.47907      136902.4      -807628.07     -308.68561      0.36225511     0.058270586    29.799028      3318.4643    
      1380   2.76           287.16378      131243.74     -807635.88     -301.59151      0.36223542     0.056934527    29.7566        3318.0996    
      1390   2.78           284.05306      127123.27     -807641.84     -295.05873      0.36221558     0.055704317    29.76132       3317.7315    
      1400   2.8            272.84691      123693.02     -807644.74     -290.50083      0.3621956      0.054846855    29.780026      3317.3489    
      1410   2.82           276.04216      126147.59     -807641.21     -294.38415      0.36217548     0.055583116    29.7727        3316.9729    
      1420   2.84           283.64583      129991.46     -807636.21     -300.4852       0.36215522     0.056738239    29.706088      3316.6496    
      1430   2.86           282.40828      137317.48     -807628.92     -307.51675      0.36213481     0.058069223    29.64227       3316.3762    
      1440   2.88           291.54451      139537.54     -807626.71     -310.95538      0.36211426     0.058721881    29.675021      3316.0763    
      1450   2.9            278.28849      140321.74     -807623.92     -311.83459      0.36209357     0.05889128     29.640006      3315.803     
      1460   2.92           285.50575      136289.5      -807628.58     -308.16478      0.36207273     0.058201569    29.686927      3315.4929    
      1470   2.94           283.89159      131169.26     -807635.17     -301.25803      0.36205176     0.056900422    29.724274      3315.154     
      1480   2.96           282.33118      125456.26     -807642.65     -293.53071      0.36203064     0.055444151    29.754962      3314.792     
      1490   2.98           266.87706      125079.39     -807641.66     -292.29483      0.36200937     0.055213954    29.731594      3314.4479    
      1500   3              279.62209      126249.25     -807641.35     -294.39606      0.36198796     0.055614159    29.708794      3314.1208    
      1510   3.02           291.71895      131010.4      -807636.7      -9621.0403      0.36196642     0.056800387    29.687518      3313.8093    
      1520   3.04           294.98759      135042.77     -807631.25     -9811.4038      0.36194472     0.05792772     29.660618      3313.5173    
      1530   3.06           287.59923      139179.7      -807625.93     -9948.7674      0.36192289     0.058742276    29.664907      3313.2215    
      1540   3.08           280.82519      140473.94     -807624.27     -9971.7772      0.36190091     0.058881712    29.688478      3312.9081    
      1550   3.1            287.79888      134843.85     -807630.65     -9800.4681      0.36187879     0.057873697    29.739141      3312.558     
      1560   3.12           294.69055      130567.02     -807637.59     -9606.0566      0.36185653     0.056729149    29.720486      3312.2213    
      1570   3.14           269.26347      125695.16     -807640.31     -9408.2014      0.36183412     0.055564144    29.73772       3311.8725    
      1580   3.16           268.39557      126075.94     -807640.77     -9385.9319      0.36181157     0.055436076    29.715366      3311.5395    
      1590   3.18           284.39868      125114.7      -807641.97     -9421.0051      0.36178888     0.055646718    29.719517      3311.2036    
      1600   3.2            298.21672      131953.55     -807636.38     -9659.1014      0.36176605     0.057056675    29.709133      3310.8749    
      1610   3.22           279.79437      135545.56     -807629.25     -9808.7811      0.36174307     0.057944519    29.679062      3310.567     
      1620   3.24           287.0181       141123.5      -807624.39     -9993.6687      0.36171995     0.059040499    29.685942      3310.2539    
      1630   3.26           277.09185      137411.47     -807626.29     -9892.7965      0.36169669     0.058448326    29.626961      3309.9811    
      1640   3.28           290.06778      136352.28     -807630.62     -9807.2972      0.36167329     0.057946931    29.669216      3309.6786    
      1650   3.3            287.13097      127860.12     -807638.16     -9555.7662      0.36164974     0.056464423    29.72786       3309.336     
      1660   3.32           271.73943      128297.61     -807639.09     -9452.285       0.36162605     0.055856618    29.69123       3309.0182    
      1670   3.34           273.13189      123905.1      -807643.52     -9322.4744      0.36160222     0.055093156    29.633399      3308.7388    
      1680   3.36           277.27844      129419.04     -807638.38     -9502.1272      0.36157824     0.056158576    29.623296      3308.4654    
      1690   3.38           281.06531      130842.67     -807635.25     -9624.8788      0.36155413     0.056887846    29.622272      3308.192     
      1700   3.4            283.13755      138531.5      -807627.11     -9890.9236      0.36152987     0.058464226    29.682342      3307.8783    
      1710   3.42           277.5866       137265.26     -807626.17     -9899.2987      0.36150546     0.05851768     29.685037      3307.5626    
      1720   3.44           277.91963      140058.94     -807625.71     -9913.3042      0.36148092     0.05860445     29.662547      3307.2612    
      1730   3.46           284.19755      132587.22     -807632.7      -9720.8811      0.36145623     0.057470828    29.681468      3306.9472    
      1740   3.48           285.75329      130373.51     -807637.74     -9563.8957      0.3614314      0.056546599    29.691778      3306.6263    
      1750   3.5            267.63437      125814.6      -807641.19     -9373.302       0.36140643     0.055423542    29.647015      3306.3338    
      1760   3.52           278.53643      125922.32     -807642.68     -9375.0812      0.36138131     0.055437915    29.581415      3306.0826    
      1770   3.54           287.46697      127140.03     -807641.24     -9462.857       0.36135605     0.055960873    29.612647      3305.8106    
      1780   3.56           282.78257      133946.5      -807633.51     -9691.1407      0.36133065     0.057314912    29.646953      3305.5162    
      1790   3.58           273.20332      137377.06     -807627.44     -9843.5965      0.36130511     0.058220675    29.61021       3305.2444    
      1800   3.6            280.82638      139111.5      -807626.64     -9903.2274      0.36127942     0.058577531    29.682022      3304.9272    
      1810   3.62           276.62529      138486.19     -807626.93     -9878.0787      0.3612536      0.058432954    29.706821      3304.5946    
      1820   3.64           279.49101      133018.81     -807632.1      -9725.6956      0.36122763     0.057535681    29.674947      3304.2814    
      1830   3.66           281.31947      129130.02     -807638.62     -9523.8215      0.36120151     0.056345499    29.712141      3303.9454    
      1840   3.68           267.47317      124856.09     -807641.96     -9356.9344      0.36117526     0.055362173    29.709644      3303.6108    
      1850   3.7            275.50515      127138.13     -807641.89     -9395.9995      0.36114886     0.055597374    29.698232      3303.2831    
      1860   3.72           272.2815       127382.26     -807639.25     -9471.9047      0.36112232     0.056050633    29.659359      3302.9786    
      1870   3.74           282.52365      134764.66     -807633.14     -9712.6759      0.36109564     0.057479661    29.712209      3302.6423    
      1880   3.76           270.23327      136239.98     -807629.04     -9795.3376      0.36106881     0.057973159    29.720171      3302.3012    
      1890   3.78           276.32203      141120.8      -807624.97     -9950.7851      0.36104184     0.058897566    29.723108      3301.9585    
      1900   3.8            274.93238      135697.96     -807628.45     -9839.544       0.36101474     0.058243516    29.675015      3301.644     
      1910   3.82           286.9681       134551.51     -807634.36     -9701.0802      0.36098748     0.057428238    29.671928      3301.331     
      1920   3.84           262.03069      127124.05     -807638.55     -9462.2337      0.36096009     0.056018571    29.612641      3301.0523    
      1930   3.86           276.77085      126983.63     -807642.07     -9413.2944      0.36093255     0.055733091    29.584178      3300.7895    
      1940   3.88           264.09007      123756.29     -807643.27     -9323.9395      0.36090487     0.055208283    29.533426      3300.5553    
      1950   3.9            275.64302      129786.1      -807638.5      -9527.2923      0.36087705     0.056416711    29.60721       3300.2775    
      1960   3.92           278.74457      131856.5      -807635.16     -9654.4053      0.36084909     0.057173852    29.668725      3299.9641    
      1970   3.94           272.56922      139249.12     -807627.38     -9872.8242      0.36082098     0.058471894    29.72262       3299.6201    
      1980   3.96           275.3168       137308.68     -807627.8      -9875.0843      0.36079273     0.058489859    29.731069      3299.2714    
      1990   3.98           275.08917      137709.31     -807629.08     -9831.0741      0.36076434     0.05823377     29.700924      3298.9397    
      2000   4              274.74812      131052.78     -807635.56     -9622.5932      0.36073581     0.057003354    29.670778      3298.6246    
      2010   4.02           267.63697      129269.03     -807637.98     -297.16775      0.36070713     0.056337096    29.68532       3298.3013    
      2020   4.04           271.11356      124989.19     -807642.99     -292.64613      0.36067831     0.05548432     29.688392      3297.9762    
      2030   4.06           268.18733      127335.3      -807641.46     -293.58205      0.36064935     0.055666236    29.707832      3297.6403    
      2040   4.08           273.57536      128832.04     -807639.01     -296.80436      0.36062025     0.056281761    29.793863      3297.2577    
      2050   4.1            278.01937      134873.91     -807632.37     -303.93011      0.36059101     0.057637662    29.821129      3296.861     
      2060   4.12           274.06854      136970.15     -807628.01     -307.6409       0.36056162     0.058346135    29.790788      3296.481     
      2070   4.14           277.02547      138470.16     -807627.48     -308.36896      0.36053209     0.058489007    29.786041      3296.104     
      2080   4.16           274.70741      135139.89     -807630.38     -304.96662      0.36050242     0.057848438    29.799748      3295.7202    
      2090   4.18           282.84516      131739.66     -807634.94     -301.30575      0.36047261     0.057158742    29.743774      3295.3663    
      2100   4.2            279.56361      128222.26     -807639.43     -296.09105      0.36044265     0.056174164    29.75952       3295.0044    
      2110   4.22           276.97921      125848.71     -807642.95     -291.95387      0.36041256     0.055393888    29.702538      3294.6726    
      2120   4.24           276.61107      127635.06     -807640.31     -294.26641      0.36038232     0.055837343    29.752043      3294.3149    
      2130   4.26           275.64186      130239.3      -807635.86     -298.39824      0.36035193     0.056626135    29.745417      3293.9609    
      2140   4.28           291.69254      135380.24     -807631.73     -304.46773      0.36032141     0.057782819    29.707863      3293.6265    
      2150   4.3            271.78367      137187.51     -807627.49     -305.76138      0.36029075     0.05803327     29.723922      3293.2837    
      2160   4.32           291.20873      138913.82     -807627.73     -307.92698      0.36025994     0.058449298    29.767742      3292.9186    
      2170   4.34           278.4091       134627.43     -807629.54     -304.15814      0.36022899     0.057738873    29.737034      3292.5694    
      2180   4.36           294.03916      133388.16     -807635.45     -300.14822      0.36019789     0.056982582    29.76518       3292.206     
      2190   4.38           280.07683      126843.01     -807640.68     -292.8684       0.36016666     0.055605342    29.757503      3291.8468    
      2200   4.4            277.0176       128588.2      -807638.66     -294.16545      0.36013528     0.055856472    29.71755       3291.5078    
      2210   4.42           283.35716      125334.93     -807641.15     -292.60639      0.36010377     0.055565299    29.747451      3291.1539    
      2220   4.44           291.35505      133208.87     -807634.76     -299.89925      0.36007211     0.056955204    29.789245      3290.7794    
      2230   4.46           286.22989      132795.25     -807631.66     -302.30471      0.3600403      0.057417107    29.723466      3290.4378    
      2240   4.48           281.93631      139779.93     -807624.39     -308.80566      0.36000836     0.058657046    29.653167      3290.1311    
      2250   4.5            291.82336      136091.22     -807629.06     -305.57571      0.35997627     0.058048697    29.69498       3289.8035    
      2260   4.52           283.21353      136836.86     -807628.91     -304.35834      0.35994404     0.057822615    29.718561      3289.4642    
      2270   4.54           279.75837      129678.24     -807635.12     -297.70474      0.35991167     0.056563638    29.710883      3289.1288    
      2280   4.56           281.27057      129050.43     -807637.9      -295.00339      0.35987916     0.056055447    29.742353      3288.778     
      2290   4.58           286.41454      125550.83     -807642.02     -291.66908      0.35984651     0.055426903    29.744355      3288.4264    
      2300   4.6            287.12292      128710.76     -807639.43     -294.37584      0.35981371     0.055946377    29.720134      3288.0865    
      2310   4.62           281.8774       131948.23     -807634.02     -299.11783      0.35978077     0.056852802    29.732341      3287.7409    
      2320   4.64           285.14075      135267.68     -807629.88     -303.75594      0.35974769     0.057739667    29.724755      3287.3989    
      2330   4.66           286.31257      138521.41     -807627.19     -306.68067      0.35971447     0.058301001    29.761047      3287.0398    
      2340   4.68           277.43769      137276.97     -807626.97     -305.73436      0.35968111     0.058126496    29.813442      3286.6562    
      2350   4.7            296.45174      135961.88     -807632.33     -303.05104      0.3596476      0.057621709    29.827087      3286.2667    
      2360   4.72           285.34124      129283.86     -807636.76     -297.17784      0.35961396     0.056510272    29.769271      3285.9046    
      2370   4.74           286.52516      129286.22     -807639.55     -294.56515      0.35958017     0.056018716    29.75699       3285.5484    
      2380   4.76           283.75175      125046.77     -807643.69     -290.27289      0.35954624     0.055207648    29.726162      3285.2067    
      2390   4.78           282.58291      130338.36     -807638.46     -295.35254      0.35951216     0.056179083    29.68724       3284.883     
      2400   4.8            276.13887      130000.66     -807635.5      -297.81416      0.35947795     0.0566527      29.682176      3284.5616    
      2410   4.82           278.85332      138104.8      -807628.69     -305.00553      0.35944359     0.058026247    29.724262      3284.2207    
      2420   4.84           281.02785      135159.43     -807629.91     -304.35563      0.35940909     0.057908164    29.781042      3283.854     
      2430   4.86           275.35386      138504.18     -807627.1      -306.40938      0.35937446     0.058304539    29.730563      3283.5104    
      2440   4.88           275.61613      132432.63     -807632.98     -300.86042      0.35933967     0.057254207    29.674092      3283.1925    
      2450   4.9            282.16377      132290.14     -807636.33     -298.41091      0.35930475     0.056793581    29.707998      3282.8592    
      2460   4.92           277.17519      125098.42     -807642.2      -292.12089      0.35926969     0.055601892    29.799692      3282.4847    
      2470   4.94           275.51377      128392.4      -807640.55     -293.60477      0.35923448     0.055889807    29.781574      3282.1186    
      2480   4.96           267.87589      127756.07     -807638.89     -294.57745      0.35919913     0.056080482    29.760237      3281.7622    
      2490   4.98           266.49769      133840.98     -807633.16     -300.16782      0.35916364     0.057150402    29.74535       3281.4125    
      2500   5              277.83891      133692.73     -807632.59     -302.51513      0.35912801     0.057603031    29.714879      3281.0765    
[...]
     98740   197.48         283.46358      132724.13     -807634.76     -9696.6977      0.36236891     0.057183464    30.608108      44.476547    
     98750   197.5          278.42077      132683.55     -807634.03     -9699.4329      0.36238762     0.057196642    30.589413      44.123229    
     98760   197.52         282.38825      133465.08     -807633.44     -9735.9032      0.36240618     0.057408764    30.608521      43.769913    
     98770   197.54         265.85026      132750.75     -807631.52     -9723.2714      0.36242459     0.057331366    30.562773      43.416609    
     98780   197.56         285.23691      131573.28     -807636.08     -9663.8427      0.36244287     0.056978083    30.564574      43.06331     
     98790   197.58         271.06841      131143.89     -807634.47     -9651.1218      0.362461       0.056900234    30.53672       42.710019    
     98800   197.6          278.62959      131495.94     -807635.32     -9659.04        0.36247899     0.056944092    30.480048      42.356742    
     98810   197.62         277.63411      132446.64     -807633.9      -9698.3839      0.36249683     0.057173225    30.483773      42.003468    
     98820   197.64         275.91256      132166.04     -807634.93     -9655.9475      0.36251453     0.056920278    30.545462      41.650193    
     98830   197.66         284.63983      133042.19     -807635.16     -9685.6181      0.36253209     0.057092416    30.565957      41.296919    
     98840   197.68         276.33811      133231.33     -807632.25     -9742.1737      0.36254951     0.057423028    30.583206      40.943649    
     98850   197.7          275.84058      133920.39     -807631.74     -9754.1817      0.36256678     0.057491067    30.574266      40.590385    
     98860   197.72         275.41624      132113.05     -807634.5      -9660.7929      0.36258391     0.056937944    30.570799      40.237128    
     98870   197.74         276.71095      132919.62     -807633.44     -9697.2024      0.3626009      0.057149853    30.509989      39.883882    
     98880   197.76         279.98787      130667.34     -807634.21     -9686.1633      0.36261774     0.057082143    30.460297      39.530648    
     98890   197.78         273.50698      132697.84     -807632.55     -9704.3096      0.36263445     0.057186449    30.517286      39.177412    
     98900   197.8          278.52279      131166.89     -807635.72     -9623.9565      0.362651       0.056710348    30.578281      38.824174    
     98910   197.82         281.08623      134194.32     -807633.3      -9705.7444      0.36266742     0.057189704    30.583572      38.470941    
     98920   197.84         280.14439      132067.48     -807632.99     -9710.598       0.36268369     0.057215736    30.589093      38.117713    
     98930   197.86         282.81274      134748.41     -807631.67     -9756.5779      0.36269982     0.057484097    30.604         37.764488    
     98940   197.88         284.12563      132430.73     -807633.71     -9694.5026      0.36271581     0.057115843    30.60818       37.411267    
     98950   197.9          277.34901      134524.02     -807630.93     -9744.5804      0.36273165     0.057408372    30.5717        37.058057    
     98960   197.92         288.61842      132160.17     -807633.72     -9703.4102      0.36274735     0.057163351    30.548173      36.704854    
     98970   197.94         285.53562      132343.58     -807633.78     -9680.6435      0.36276291     0.057026785    30.548988      36.351656    
     98980   197.96         290.68913      130830.98     -807635.89     -9630.2131      0.36277832     0.0567273      30.560809      35.998463    
     98990   197.98         280.63778      132169.93     -807633.52     -9657.6263      0.36279359     0.056886384    30.579692      35.645272    
     99000   198            291.13144      132684.26     -807634.02     -9684.4171      0.36280872     0.057041812    30.579613      35.292087    
     99010   198.02         289.36904      133354.2      -807633.04     -303.25778      0.3628237      0.057156261    30.659237      34.938899    
     99020   198.04         286.89133      133171.87     -807632.31     -303.52872      0.36283855     0.057204986    30.626984      34.585719    
     99030   198.06         290.28357      132971.69     -807632.3      -303.87013      0.36285324     0.057267012    30.650875      34.232543    
     99040   198.08         292.29956      133615.62     -807631.84     -304.54461      0.3628678      0.057391821    30.658429      33.879371    
     99050   198.1          284.59123      132704.28     -807632.23     -303.0423       0.36288221     0.057106441    30.63351       33.526207    
     99060   198.12         290.51214      133080.13     -807633.52     -302.47355      0.36289648     0.056997023    30.621423      33.173049    
     99070   198.14         282.45223      132062.01     -807633.36     -301.54821      0.36291061     0.056820443    30.656998      32.819894    
     99080   198.16         279.56179      133564.74     -807630.75     -303.73487      0.36292459     0.057230268    30.620362      32.466747    
     99090   198.18         289.34182      131443.95     -807633.87     -302.03383      0.36293843     0.056907585    30.609463      32.113607    
     99100   198.2          290.01397      133032.29     -807632.95     -303.01946      0.36295213     0.057091137    30.623185      31.760471    
     99110   198.22         295.13228      132719.17     -807633.22     -303.63345      0.36296568     0.057204682    30.610549      31.407342    
     99120   198.24         291.82773      134244.71     -807631.56     -304.99034      0.36297909     0.057458197    30.605459      31.054218    
     99130   198.26         285.73705      133638.6      -807631.91     -303.96545      0.36299236     0.057263021    30.582977      30.701102    
     99140   198.28         284.1674       133362.57     -807633.43     -302.44192      0.36300548     0.056973949    30.584166      30.347991    
     99150   198.3          290.78657      131730.8      -807634.22     -302.90849      0.36301846     0.057059801    30.656329      29.994878    
     99160   198.32         270.77702      132595.16     -807631.59     -303.09788      0.3630313      0.057093458    30.662992      29.641771    
     99170   198.34         281.36081      131738.71     -807634.54     -302.02034      0.36304399     0.056888497    30.658961      29.288669    
     99180   198.36         281.16731      132466.56     -807634.62     -302.27786      0.36305655     0.056935034    30.634271      28.935575    
     99190   198.38         284.51025      132826.84     -807634.56     -303.18175      0.36306895     0.057103333    30.591524      28.58249     
     99200   198.4          274.50051      133464.01     -807631.49     -305.14242      0.36308122     0.057470677    30.641475      28.229406    
     99210   198.42         286.60046      132723.16     -807634.29     -304.31311      0.36309334     0.057312572    30.682823      27.876323    
     99220   198.44         278.3431       133185.87     -807633.92     -303.72283      0.36310532     0.057199514    30.679082      27.523247    
     99230   198.46         279.13056      132341.28     -807633.91     -304.02445      0.36311715     0.057254451    30.675848      27.170176    
     99240   198.48         280.93876      133169.98     -807634.11     -304.26039      0.36312885     0.057297041    30.668824      26.817112    
     99250   198.5          272.8873       131917.21     -807634.48     -302.93279      0.3631404      0.057045218    30.661246      26.464053    
     99260   198.52         282.64414      131857.57     -807637.31     -301.51906      0.3631518      0.056777215    30.650252      26.111001    
     99270   198.54         267.40798      131670.7      -807633.95     -302.92633      0.36316306     0.05704044     30.635037      25.757955    
     99280   198.56         278.96583      132874.97     -807633.7      -304.81865      0.36317418     0.057395004    30.658291      25.404913    
     99290   198.58         269.73871      132468.18     -807634.13     -303.16515      0.36318516     0.057081936    30.673082      25.051875    
     99300   198.6          279.32378      133113.84     -807634.84     -303.79391      0.36319599     0.057198618    30.659841      24.698844    
     99310   198.62         279.44791      133492.74     -807633.72     -305.00233      0.36320668     0.057424451    30.67004       24.345817    
     99320   198.64         273.79998      133444.57     -807632.46     -305.43094      0.36321723     0.057503477    30.675848      23.992795    
     99330   198.66         269.39307      131858.35     -807634.61     -302.65363      0.36322763     0.056978961    30.674849      23.639779    
     99340   198.68         264.73412      132012.81     -807634.68     -301.9359       0.36323789     0.056842233    30.656276      23.286769    
     99350   198.7          277.33832      131104.05     -807634.99     -303.30938      0.36324801     0.057099212    30.694676      22.933763    
     99360   198.72         272.64199      132301.31     -807634.12     -303.48092      0.36325798     0.057129937    30.63178       22.580766    
     99370   198.74         275.99877      131496.85     -807635.56     -302.45764      0.36326781     0.056935764    30.658678      22.227772    
     99380   198.76         286.57352      132590.04     -807635.55     -303.81216      0.3632775      0.057189221    30.658514      21.874784    
     99390   198.78         276.36344      133298.54     -807632.79     -305.13312      0.36328704     0.057436368    30.694524      21.521799    
     99400   198.8          283.60077      133562.42     -807632.84     -305.97692      0.36329644     0.057593708    30.69413       21.16882     
     99410   198.82         275.91884      132113.26     -807634.35     -303.30445      0.3633057      0.057089218    30.62141       20.81585     
     99420   198.84         272.70393      133496.39     -807634.07     -302.99096      0.36331481     0.05702878     30.65304       20.462884    
     99430   198.86         273.88119      131746.13     -807633.75     -303.36869      0.36332378     0.057098467    30.624246      20.109925    
     99440   198.88         285.42532      131630.48     -807634.81     -303.73666      0.36333261     0.057166335    30.665606      19.756969    
     99450   198.9          275.08783      131588.02     -807635.22     -301.72436      0.36334129     0.056786242    30.670651      19.404018    
     99460   198.92         289.22694      132628.44     -807635.43     -303.35656      0.36334983     0.05709209     30.67341       19.051072    
     99470   198.94         283.36386      132978.58     -807632.74     -305.09358      0.36335823     0.057417673    30.672287      18.698132    
     99480   198.96         279.03446      135296.89     -807631.09     -305.97265      0.36336648     0.057581804    30.622589      18.3452      
     99490   198.98         284.52749      133007.67     -807634.16     -303.53148      0.3633746      0.057121118    30.583167      17.992275    
     99500   199            278.4753       134188.98     -807632.29     -304.35209      0.36338256     0.05727429     30.636112      17.639353    
     99510   199.02         291.51409      132189.03     -807634.67     -9718.5299      0.36339039     0.057151112    30.527514      17.286442    
     99520   199.04         281.38683      132629.54     -807632.57     -9734.6019      0.36339807     0.057244415    30.541286      16.933535    
     99530   199.06         280.68431      132250.3      -807634.9      -9651.8284      0.3634056      0.056756488    30.57853       16.580632    
     99540   199.08         279.29774      132750.42     -807633.93     -9673.49        0.363413       0.056882709    30.564026      16.227734    
     99550   199.1          294.3248       132187.09     -807633.49     -9750.3286      0.36342025     0.057333396    30.566244      15.874841    
     99560   199.12         286.63677      133633.9      -807632.12     -9755.099       0.36342736     0.057360325    30.606473      15.521952    
     99570   199.14         285.99263      133531.59     -807632.94     -9722.1207      0.36343432     0.057165316    30.588283      15.169069    
     99580   199.16         284.43425      133261.89     -807632.79     -9716.8181      0.36344114     0.057133065    30.572183      14.816191    
     99590   199.18         296.03639      133975.09     -807632.59     -9771.8389      0.36344782     0.057455522    30.613167      14.463317    
     99600   199.2          292.41271      131905.49     -807633.09     -9739.4909      0.36345435     0.057264295    30.584179      14.11045     
     99610   199.22         281.1064       133077.04     -807632.9      -9692.923       0.36346074     0.056989493    30.573619      13.757588    
     99620   199.24         284.81821      131701.18     -807634.45     -9661.1944      0.36346699     0.056801968    30.570682      13.404732    
     99630   199.26         289.00689      134075.64     -807632.14     -9752.9594      0.3634731      0.057340528    30.571361      13.05188     
     99640   199.28         284.93858      132444.54     -807632.47     -9727.3678      0.36347906     0.057189129    30.584728      12.699034    
     99650   199.3          288.10457      133707.75     -807632.54     -9737.9191      0.36348487     0.057250246    30.595897      12.346192    
     99660   199.32         286.68002      131911.38     -807633.99     -9688.5195      0.36349055     0.056958932    30.581566      11.993355    
     99670   199.34         284.36413      134260.62     -807630        -9808.1703      0.36349608     0.057661483    30.524553      11.640526    
     99680   199.36         278.34846      131910.23     -807631.94     -9726.1425      0.36350147     0.0571784      30.560346      11.287701    
     99690   199.38         303.91646      132964.43     -807636.33     -9701.2002      0.36350671     0.057030946    30.518827      10.934883    
     99700   199.4          272.96686      132055.46     -807633.02     -9680.8631      0.36351181     0.05691059     30.547639      10.582068    
     99710   199.42         278.02048      134087.07     -807630.99     -9778.0184      0.36351677     0.057480951    30.500208      10.22926     
     99720   199.44         284.95246      132264.41     -807634.5      -9712.3254      0.36352158     0.057094013    30.541586      9.876456     
     99730   199.46         279.18357      133796.7      -807633.88     -9717.0389      0.36352625     0.057120987    30.495771      9.5236582    
     99740   199.48         277.61972      132495.36     -807633.49     -9735.9994      0.36353078     0.057231732    30.518105      9.1708648    
     99750   199.5          278.2994       133107.05     -807632.19     -9789.7791      0.36353516     0.057547175    30.542739      8.8180758    
     99760   199.52         286.26704      132569.76     -807635.01     -9745.0323      0.3635394      0.057283472    30.545956      8.4652918    
     99770   199.54         278.49395      132109.48     -807635.67     -9696.6743      0.3635435      0.05699857     30.543548      8.1125129    
     99780   199.56         277.11132      132564.84     -807634.53     -9733.3636      0.36354745     0.057213614    30.511811      7.7597399    
     99790   199.58         274.55988      131116.44     -807634.38     -9733.5522      0.36355126     0.057214123    30.574952      7.4069705    
     99800   199.6          271.30023      132069.89     -807634.66     -9712.3485      0.36355493     0.057088911    30.572922      7.0542063    
     99810   199.62         277.22253      130895.44     -807637.04     -9668.11        0.36355845     0.056828328    30.60828       6.7014464    
     99820   199.64         270.40192      133095.62     -807633.12     -9764.9829      0.36356183     0.057397205    30.590205      6.3486922    
     99830   199.66         270.34064      133178.99     -807633.75     -9748.0597      0.36356507     0.057297222    30.598128      5.995943     
     99840   199.68         275.32413      134302.8      -807634.23     -9753.897       0.36356816     0.057331045    30.593813      5.6431991    
     99850   199.7          276.80263      132061.36     -807635.71     -9715.1441      0.36357111     0.057102802    30.571062      5.2904607    
     99860   199.72         272.19015      133689.39     -807633.82     -9753.3271      0.36357392     0.057326787    30.584795      4.9377272    
     99870   199.74         264.80879      131111.94     -807633.59     -9728.5741      0.36357658     0.057180879    30.574189      4.5849991    
     99880   199.76         270.44955      132934.15     -807635.02     -9704.444       0.3635791      0.057038656    30.588251      4.2322759    
     99890   199.78         270.17174      131379.99     -807635.73     -9679.4511      0.36358148     0.056891387    30.593016      3.8795578    
     99900   199.8          284.5268       132824.01     -807634.36     -9782.69        0.36358371     0.057497824    30.572361      3.5268451    
     99910   199.82         270.6564       132318.12     -807633.71     -9740.7929      0.3635858      0.057251245    30.555828      3.1741377    
     99920   199.84         274.03668      133770.34     -807633.58     -9753.5737      0.36358775     0.057326057    30.570272      2.8214352    
     99930   199.86         278.02464      132246.38     -807634.86     -9728.7888      0.36358955     0.057180101    27.126272      2.468767     
     99940   199.88         274.02733      134001.66     -807631.93     -9798.418       0.36359121     0.057589078    30.539261      2.1160709    
     99950   199.9          279.69614      131276.21     -807635.22     -9715.0214      0.36359273     0.057098686    30.547581      1.7633797    
     99960   199.92         277.0838       132696.13     -807635.44     -9687.6844      0.3635941      0.056937801    30.538936      1.4106937    
     99970   199.94         280.88971      131088.51     -807636.16     -9678.1867      0.36359533     0.056881788    30.536578      1.0580127    
     99980   199.96         281.17841      132896.96     -807633.24     -9766.4832      0.36359641     0.057400563    30.543033      0.70533675   
     99990   199.98         273.75805      132109.57     -807634.13     -9700.6725      0.36359736     0.057013627    30.523701      0.35266587   
    100000   200            284.07807      133487.1      -807634.44     -9727.439       0.36359816     0.057170815    30.548663      0            
Loop time of 3526.63 on 32 procs for 100000 steps with 1080 atoms

Performance: 4.900 ns/day, 4.898 hours/ns, 28.356 timesteps/s, 30.624 katom-step/s
72.4% CPU use with 32 MPI tasks x 1 OpenMP threads

MPI task timing breakdown:
Section |  min time  |  avg time  |  max time  |%varavg| %total
---------------------------------------------------------------
Pair    | 2439.2     | 2804       | 3095.6     | 274.5 | 79.51
Neigh   | 0.00081833 | 0.00089774 | 0.0010362  |   0.0 |  0.00
Comm    | 357.18     | 648.61     | 1013.1     | 570.6 | 18.39
Output  | 2.3192     | 2.3321     | 2.3394     |   0.3 |  0.07
Modify  | 64.259     | 64.981     | 66.723     |   5.5 |  1.84
Other   |            | 6.728      |            |       |  0.19

Nlocal:          33.75 ave          40 max          23 min
Histogram: 1 1 2 0 3 7 2 8 6 2
Nghost:        1038.31 ave        1049 max        1027 min
Histogram: 2 3 2 2 4 6 5 5 1 2
Neighs:              0 ave           0 max           0 min
Histogram: 32 0 0 0 0 0 0 0 0 0
FullNghs:      5354.94 ave        6371 max        3608 min
Histogram: 1 1 2 1 2 6 4 7 6 2

Total # of neighbors = 171358
Ave neighs/atom = 158.66481
Neighbor list builds = 2
Dangerous builds = 0

Total wall time: 1:02:14
