
units		metal
atom_style	atomic

read_data ${STRUCTURE}.data
read_data BaTiO3-sc333.data
Reading data file ...
  orthogonal box = (0 0 0) to (11.898253 11.898253 12.912076)
  2 by 4 by 4 MPI processor grid
  reading atoms ...
  135 atoms
  read_data CPU = 0.005 seconds
replicate $L $L $L
replicate 2 $L $L
replicate 2 2 $L
replicate 2 2 2
Replication is creating a 2x2x2 = 8 times larger system...
  orthogonal box = (0 0 0) to (23.796507 23.796507 25.824152)
  2 by 4 by 4 MPI processor grid
  1080 atoms
  replicate CPU = 0.003 seconds

pair_style allegro
pair_coeff	* * ${MODEL}.pth Ba Ti O
pair_coeff	* * BaTiO3-E0.pth Ba Ti O
mass 1 137.3
mass 2 47.9
mass 3 15.9994

timestep 0.002
compute polarization all allegro polarization 3
compute allegro will evaluate the quantity polarization of length 3 (src/compute_allegro.cpp:53)
compute polarizability all allegro polarizability 9
compute allegro will evaluate the quantity polarizability of length 9 (src/compute_allegro.cpp:53)

thermo_style custom pe fmax fnorm spcpu cpuremain

variable efield equal 1e-2*36.36
fix born all addbornforce 0.0 0.0 ${efield}
fix born all addbornforce 0.0 0.0 0.3636

thermo 10
min_style fire
#minimize 0.0 1e-6 100 100
velocity all create ${TEMP} ${SEED} dist gaussian rot yes mom yes
velocity all create 350 ${SEED} dist gaussian rot yes mom yes
velocity all create 350 23728 dist gaussian rot yes mom yes
fix nvt all nvt temp ${TEMP} ${TEMP} $(100*dt)
fix nvt all nvt temp 350 ${TEMP} $(100*dt)
fix nvt all nvt temp 350 350 $(100*dt)
fix nvt all nvt temp 350 350 0.2000000000000000111
run 5000
Neighbor list info ...
  update: every = 1 steps, delay = 0 steps, check = yes
  max neighbors/atom: 2000, page size: 100000
  master list distance cutoff = 8
  ghost atom cutoff = 8
  binsize = 8, bins = 3 3 4
  1 neighbor lists, perpetual/occasional/extra = 1 0 0
  (1) pair allegro/kk, perpetual
      attributes: full, newton on, kokkos_device
      pair build: full/bin/kk/device
      stencil: full/bin/3d
      bin: kk/device
Per MPI rank memory allocation (min/avg/max) = 3.516 | 3.516 | 3.516 Mbytes
    PotEng          Fmax          Fnorm          S/CPU         CPULeft    
-807708.29      1.595341       37.044088      0              0            
-807641.31      3.8124053      46.392362      2.1216657      2351.9266    
-807632.18      2.385838       36.012975      25.861797      1269.8877    
-807605.5       3.2231289      37.447013      25.854535      908.96826    
-807600.47      4.3161996      50.601775      25.808711      728.40036    
-807564.24      3.4580516      41.544215      25.807399      619.90649    
-807600.13      2.859142       39.308029      25.874584      547.36529    
-807645.21      3.4971171      34.672477      25.895343      495.4179     
-807681.5       2.7068738      35.009112      25.829494      456.42136    
-807663.81      3.696306       35.812841      25.844068      425.99278    
-807648.79      3.7596585      36.062684      25.882488      401.54435    
-807658.25      2.4572687      28.835763      25.819154      381.51302    
-807623.48      3.2447778      32.830269      25.860302      364.73061    
-807580.26      3.2750104      41.915643      25.85899       350.47136    
-807566.12      3.9735088      39.761758      25.918804      338.16292    
-807630.04      3.4448333      35.360006      25.88582       327.46005    
-807650.6       3.7276818      32.715047      25.893053      318.04349    
-807659.79      2.9481439      35.747602      25.867516      309.70016    
-807643.6       4.1638131      45.522768      25.875692      302.23764    
-807677.57      2.8318408      37.599463      25.833851      295.53581    
-807637.75      4.3259994      41.282608      25.78712       289.48228    
-807611.28      3.6118855      40.274965      25.817101      283.9581     
-807558.71      4.037367       47.184172      25.899418      278.87413    
-807601.85      4.2905049      50.495879      25.828278      274.22075    
-807609.21      4.2905582      40.761985      25.796077      269.93246    
-807636.55      3.0416909      36.98616       25.848258      265.94135    
-807640.74      4.6280598      45.704258      25.792671      262.2427     
-807678.45      3.1368192      38.706821      25.833134      258.77865    
-807659.52      3.8570796      36.553069      25.775853      255.54889    
-807633.81      3.3273043      33.897623      25.885418      252.48844    
-807606.03      3.7403835      35.159266      25.907431      249.60114    
-807600.95      4.4152162      43.0173        25.820853      246.89478    
-807594.93      3.5992189      38.23693       25.780011      244.34234    
-807604.68      2.7171975      35.201635      25.919043      241.89164    
-807639         3.3602143      32.173765      25.895577      239.5672     
-807668.86      2.3648078      33.413302      25.880121      237.35658    
-807672.69      2.5271627      34.702231      25.797304      235.26329    
-807639.42      4.5573576      40.746467      25.858098      233.25079    
-807644.93      2.8358708      32.968313      25.882264      231.31948    
-807618.98      3.9284539      36.287723      25.875304      229.46861    
-807599.2       4.555662       45.031093      25.86382       227.69295    
-807565.78      3.9433128      44.814951      25.89125       225.98045    
-807620.55      3.3771977      38.184766      25.898256      224.32996    
-807643.83      3.4881875      39.145756      25.879513      222.74127    
-807667.99      2.6810853      37.356839      25.830417      221.21483    
-807637.8       5.0097935      48.023171      25.884023      219.73092    
-807661.83      3.2779135      36.958806      25.879616      218.29537    
-807642.77      3.6534605      37.545575      25.920976      216.8986     
-807620.56      3.1675292      38.202332      25.89073       215.54806    
-807564.3       4.0397095      43.299158      25.911993      214.23404    
-807598.11      3.8617846      43.759149      25.91144       212.95721    
-807620.96      3.5772244      36.255538      25.880664      211.71935    
-807649.28      3.0667119      34.28255       25.855068      210.51754    
-807639.66      4.3866602      41.215369      25.873102      209.34422    
-807665.86      4.0020516      36.307705      25.856702      208.20206    
-807662.89      3.3020257      35.15294       25.776967      207.09704    
-807636.76      3.4181247      33.696108      25.847213      206.00928    
-807598.3       3.3687719      37.054847      25.914047      204.93836    
-807591.95      3.9790981      39.683085      25.898804      203.89279    
-807601.25      3.5911129      42.239762      25.858168      202.87411    
-807612.94      4.3548379      35.33876       25.902154      201.87167    
-807633.27      5.134592       34.958528      25.906067      200.88903    
-807655.59      4.8400219      37.352532      25.914638      199.92473    
-807670.68      3.127653       37.572696      25.818795      198.98873    
-807640.4       4.1922832      40.94645       25.799489      198.07185    
-807630.03      3.1003839      35.050576      25.8959        197.1616     
-807610.33      3.7808387      36.802691      25.826577      196.27404    
-807600.88      4.0823919      45.751804      25.788207      195.40515    
-807573.89      4.0407363      42.337457      25.803273      194.54897    
-807611.78      3.2893176      37.234891      25.895582      193.69774    
-807640.87      4.1337241      37.652894      25.846802      192.86427    
-807667.2       3.078461       37.313004      25.794771      192.0481     
-807647.66      3.9744796      40.969516      25.781413      191.24503    
-807646.75      2.8515343      36.788275      25.839054      190.44827    
-807640.12      4.306245       34.727894      25.83429       189.663      
-807621.11      3.6010912      37.384942      25.836667      188.88814    
-807575.74      3.863447       40.467322      25.883462      188.11959    
-807582.8       3.3429215      40.609585      25.897221      187.35984    
-807622.58      3.2884728      34.033684      25.889275      186.6103     
-807650.7       2.9925448      33.888553      25.878793      185.8708     
-807649.34      3.9704371      36.804282      25.913658      185.13739    
-807651.66      3.7735066      37.441095      25.84342       184.41799    
-807660.93      3.0755908      34.688516      25.867937      183.70483    
-807638.31      4.5047622      35.275942      25.822563      183.00295    
-807604.32      3.1393884      36.779592      25.878573      182.30441    
-807579.07      4.2774481      40.553839      25.924928      181.60984    
-807600.44      4.6066682      42.430812      25.83946       180.9286     
-807619.51      3.195787       35.443479      25.818935      180.25558    
-807636.73      3.2590754      35.161837      25.863694      179.58592    
-807645.28      3.5704461      39.332882      25.929811      178.91806    
-807666.47      3.1044464      37.903425      25.88699       178.25938    
-807648.15      4.0197647      38.086175      25.825637      177.61081    
-807629.33      2.8262773      35.458786      25.903349      176.96277    
-807602.08      3.4816784      38.135006      25.948928      176.3174     
-807601.39      4.0207953      43.393469      25.900884      175.68065    
-807591.57      3.3297781      39.304792      25.822344      175.05418    
-807611.81      3.2582265      36.780204      25.911792      174.42707    
-807633.47      3.5675322      37.391715      25.902163      173.80553    
-807663.82      3.2332667      36.35143       25.840094      173.19259    
-807655.73      3.8832872      37.581244      25.827733      172.58497    
-807643.1       3.7342515      36.594664      25.828516      171.98172    
-807632.39      3.6065775      34.487097      25.837763      171.38219    
-807621.81      3.4490314      36.660118      25.848771      170.78619    
-807591.12      4.1365578      39.348342      25.861148      170.19354    
-807585.22      3.248179       40.19964       25.88919       169.60325    
-807617.44      3.721765       35.417497      25.901821      169.01614    
-807650.5       2.9484081      33.357155      25.889813      168.43349    
-807655.08      3.3628986      35.766587      25.886462      167.85469    
-807646.37      4.4192468      38.359459      25.894856      167.279      
-807651.65      2.9029502      34.396719      25.91317       166.70582    
-807640.32      4.6884496      34.153157      25.866035      166.13852    
-807612.41      3.2105307      35.980059      25.849877      165.57534    
-807581.09      4.1057719      38.850163      25.866913      165.01442    
-807600.38      3.8142715      38.863758      25.854452      164.45722    
-807625.06      3.6391101      34.465747      25.881717      163.90163    
-807644.96      3.3835802      34.047771      25.898111      163.34817    
-807641.68      4.4107079      38.911431      25.881436      162.79841    
-807659.22      3.0003552      36.36045       25.842202      162.25337    
-807650.1       3.3915252      36.540774      25.779028      161.71408    
-807632.84      2.7174682      34.344867      25.827505      161.175      
-807596.29      4.1821238      39.165895      25.892215      160.63538    
-807598.87      3.6365361      40.295446      25.885895      160.0986     
-807602.51      4.7284312      38.442152      25.883607      159.56439    
-807621.43      3.369392       35.045092      25.828031      159.03514    
-807632.08      4.1920022      36.566661      25.916702      158.50415    
-807656.04      3.3819086      36.010944      25.887239      157.97681    
-807656.3       3.019682       36.48501       25.830445      157.45423    
-807643.64      3.4232815      35.279047      25.815249      156.93445    
-807622.57      3.5421061      35.941871      25.858491      156.41486    
-807611.78      3.3932901      37.001082      25.830081      155.89855    
-807599.19      4.1330396      40.051846      25.794311      155.38575    
-807594.02      4.6679316      39.323946      25.820924      154.87374    
-807615.45      4.4477694      35.591626      25.827556      154.36334    
-807643.17      4.8487062      34.938264      25.79439       153.85617    
-807656.64      3.5644428      35.983909      25.730381      153.35342    
-807645.08      5.4484502      38.227538      25.728235      152.85244    
-807640.32      3.4528471      36.150698      25.721275      152.3534     
-807631.67      4.7163024      35.532173      25.784779      151.85343    
-807613.43      3.8952686      37.291196      25.776642      151.35541    
-807583.43      5.6274968      40.614538      25.806204      150.85781    
-807597.48      3.9375304      39.206323      25.803999      150.36188    
-807624.09      4.3618918      35.497855      25.867203      149.86507    
-807647.09      2.8059263      35.047806      25.853177      149.37034    
-807643.55      4.5170876      38.245172      25.837003      148.87772    
-807649         3.815896       36.759185      25.811893      148.38751    
-807646.33      3.4668355      35.761473      25.822851      147.8983     
-807631.1       3.3263733      34.953152      25.82111       147.41056    
-807598.41      3.6233327      36.935041      25.894378      146.92155    
-807589.38      4.1190234      40.409668      25.884866      146.43427    
-807606.68      3.9570635      38.401357      25.786632      145.95182    
-807626.78      3.4670103      35.712747      25.855003      145.46823    
-807636.22      3.3172036      36.734664      25.857715      144.98583    
-807649.09      3.5454528      37.215944      25.875342      144.50408    
-807653.4       4.4886294      37.367243      25.785063      144.02666    
-807643.94      3.2768135      35.864782      25.805873      143.54969    
-807618.6       3.4482944      36.424759      25.84037       143.07272    
-807603.76      3.4268581      36.636293      25.839516      142.59694    
-807600.09      3.7547612      39.758772      25.80945       142.12327    
-807605.02      4.2169272      37.832976      25.844801      141.64954    
-807621.02      4.6599427      35.495028      25.924365      141.17436    
-807639.9       4.2388524      35.335393      25.88239       140.70163    
-807654.92      3.9007469      36.585485      25.83628       140.23143    
-807648.06      3.422641       36.913657      25.793089      139.7636     
-807636.56      4.0613421      36.659987      25.849719      139.295      
-807623.54      3.6974155      35.636898      25.91629       138.82536    
-807611.53      3.6839307      38.149755      25.86382       138.35832    
-807595.91      4.3150229      39.449394      25.797648      137.89425    
-807603.93      3.1155414      37.841574      25.93549       137.42699    
-807625.86      3.4263303      35.182319      25.944343      136.96044    
-807646.78      4.3060998      35.685882      25.795208      136.49921    
-807649.85      3.1214537      36.321225      25.760225      136.03987    
-807645.7       3.1402767      36.414494      25.768412      135.58112    
-807638.84      3.2095658      35.733453      25.8704        135.12028    
-807630.09      2.8653809      33.74117       25.883223      134.65994    
-807604.74      2.9345658      36.637349      25.918668      134.19946    
-807595.31      3.0288718      37.994684      25.848949      133.74176    
-807610.94      2.588073       35.714051      25.879892      133.28402    
-807631.19      3.4321925      34.020283      25.862437      132.82756    
-807645.21      3.2311146      34.303651      25.899615      132.37088    
-807646.71      3.0558038      36.040823      25.813461      131.91729    
-807650.79      5.3184217      34.856514      25.843662      131.46364    
-807641.53      3.2478788      34.531944      25.836266      131.01092    
-807621.57      3.0208577      34.804835      25.814378      130.5595     
-807600.24      2.9725694      36.840038      25.825879      130.10848    
-807600.76      3.3497827      37.536662      25.817418      129.65837    
-807612.69      3.6009511      36.719084      25.850997      129.20808    
-807629.9       3.1517423      34.372935      25.91994       128.75673    
-807640.94      3.9702638      35.387015      25.929328      128.30586    
-807652.46      3.0848561      35.561188      25.883579      127.85681    
-807649.76      3.00803        35.162167      25.891948      127.40821    
-807635.99      2.9580719      34.407266      25.874991      126.96069    
-807617.85      3.1663348      35.016434      25.869437      126.51394    
-807606.35      3.0137606      36.720657      25.854512      126.06817    
-807600.04      3.0451594      38.414182      25.838635      125.6234     
-807609.47      3.0888062      36.462385      25.887636      125.17806    
-807628.94      2.8640191      34.042747      25.928717      124.73237    
-807643.77      3.2517353      35.733189      25.910521      124.28772    
-807651.14      3.281063       35.542401      25.897329      123.84396    
-807642.99      3.558917       35.75903       25.876216      123.40127    
-807633.05      3.0921725      35.137351      25.897324      122.95866    
-807620.61      3.06307        36.012875      25.860307      122.51745    
-807604.5       3.1950193      37.512924      25.808753      122.07793    
-807598.17      2.9940033      38.128398      25.783066      121.63949    
-807610.81      3.1846408      36.743436      25.890941      121.19919    
-807632.53      3.0137096      34.347307      25.84099       120.7605     
-807643.13      4.4898246      36.305493      25.793196      120.32335    
-807644.74      3.4993811      36.593282      25.833605      119.88582    
-807639.8       3.2799629      37.034903      25.862185      119.44816    
-807636.68      3.4570381      34.768089      25.879621      119.01063    
-807617.23      2.8537299      36.163215      25.852976      118.57414    
-807601.63      3.4351198      37.551349      25.945312      118.13623    
-807599.84      2.9920653      38.632212      25.929727      117.69913    
-807616.22      2.926785       36.125917      25.852598      117.26408    
-807630.26      3.0536171      35.995378      25.848888      116.82955    
-807640.28      3.9519206      36.850773      25.900313      116.39445    
-807644.63      3.775059       37.219714      25.885769      115.96009    
-807644.98      3.5362728      36.506948      25.856604      115.52674    
-807631.93      2.9894779      35.849765      25.849336      115.09397    
-807614.83      3.3623776      36.68707       25.913213      114.66039    
-807600.34      3.0564399      38.823157      25.939596      114.22673    
-807603.34      3.2052755      39.000898      25.873901      113.79477    
-807616.33      3.0465306      36.366711      25.92329       113.36228    
-807630.38      3.6202996      35.864658      25.915656      112.93035    
-807642.42      3.8991385      36.369188      25.903907      112.49906    
-807646.77      3.4822914      36.387658      25.866941      112.06885    
-807641.8       3.2075576      36.195138      25.898116      111.63846    
-807628.59      2.8472194      35.715446      25.914254      111.20817    
-807614.08      3.3329102      36.294306      25.898528      110.77855    
-807603.64      3.2901034      37.95745       25.836555      110.35042    
-807606.94      3.1558879      37.682226      25.894336      109.92162    
-807616.71      3.3361499      36.624297      25.963128      109.492      
-807634.65      3.0348153      34.810767      25.882021      109.06416    
-807645.4       3.4286613      35.963047      25.889878      108.63655    
-807644.76      3.2705324      36.643111      25.868199      108.20967    
-807639.09      3.9511096      36.025476      25.874154      107.78302    
-807629.02      3.4293337      34.880616      25.862316      107.35692    
-807616.29      3.6322607      35.589083      25.846182      106.93142    
-807602.56      3.6971446      38.732641      25.854656      106.50611    
-807608.06      3.6086543      36.24663       25.872951      106.08082    
-807621.11      4.087864       35.713316      25.895665      105.65548    
-807635.08      4.1210759      35.556924      25.861553      105.23103    
-807645.23      3.7710459      35.708157      25.819866      104.80755    
-807644.93      3.003749       35.566903      25.923167      104.38273    
-807639.07      3.5314396      34.613009      25.857995      103.95926    
-807631.44      3.4959417      34.811563      25.901769      103.53541    
-807613.44      3.8886635      35.879224      25.914553      103.11167    
-807603.03      3.3950222      37.54556       25.930383      102.68799    
-807607.34      3.704879       37.330072      25.914764      102.26485    
-807623.6       3.1499921      35.977993      25.943285      101.84159    
-807634.68      3.7490009      35.761876      25.930421      101.41882    
-807643.41      2.6762804      35.730148      25.926416      100.99641    
-807644.32      2.8576366      35.894236      25.912466      100.5745     
-807639.07      3.2715865      35.118522      25.892148      100.15317    
-807623.95      3.3299526      35.582843      25.927401      99.731605    
-807608.31      3.8316617      37.116719      25.888216      99.310888    
-807602.06      3.4035238      38.519922      25.843018      98.891091    
-807610.11      3.5213068      37.739556      25.899628      98.470744    
-807620.44      2.7530732      36.861633      25.900743      98.050649    
-807634.97      3.7840522      35.787724      25.881814      97.631082    
-807642.32      3.572312       36.503562      25.901108      97.211503    
-807644.52      3.4078711      36.467929      25.908471      96.792081    
-807633.45      4.7161273      37.12232       25.841143      96.373836    
-807622.84      4.2240344      35.687736      25.84765       95.95574     
-807607.42      3.8540523      38.34686       25.853279      95.537807    
-807602.89      3.2467166      38.925511      25.904543      95.119425    
-807607.73      3.7725479      38.336945      25.930745      94.700941    
-807623.82      3.8281537      37.317134      25.914108      94.282922    
-807636.76      3.9097952      37.444523      25.862189      93.86582     
-807644.72      4.9240885      36.760457      25.817505      93.449524    
-807641.26      3.7184958      36.665748      25.829437      93.03329     
-807632.73      3.4733359      36.313493      25.807114      92.617556    
-807621.06      3.6267005      36.153941      25.811906      92.20197     
-807608.77      2.7366631      36.991931      25.778256      91.787015    
-807602.74      2.8588708      38.494458      25.877768      91.371018    
-807610.46      3.9566328      37.766695      25.90168       90.954943    
-807626.92      3.5397663      36.289077      25.81105       90.540195    
-807638.73      3.5181665      36.562552      25.888188      90.124707    
-807644.28      3.7309483      36.49875       25.822892      89.710217    
-807639.2       3.1231651      37.389804      25.82613       89.295884    
-807633.96      3.6510858      36.075684      25.855758      88.881394    
-807620.25      3.5624502      36.053285      25.858536      88.46707     
-807607.63      3.5985198      37.383357      25.887832      88.052601    
-807604.25      3.2877144      37.982872      25.906249      87.63812     
-807614.93      3.0555136      36.963888      25.933337      87.22353     
-807628.12      3.309539       35.798504      25.830966      86.810307    
-807638.8       4.6960492      35.664096      25.815797      86.397439    
-807642.6       3.9346756      36.348954      25.842612      85.984448    
-807642.82      3.7041981      35.273613      25.856286      85.571487    
-807633.47      3.5317626      35.218924      25.889021      85.158348    
-807618.14      3.6246641      36.183603      25.89604       84.745319    
-807609.34      3.1926464      36.978557      25.884813      84.332596    
-807608.51      2.9429488      36.986744      25.939501      83.91947     
-807615.68      3.0813616      36.600505      25.918029      83.50676     
-807628.57      2.7555777      35.329209      25.893131      83.094495    
-807638.88      3.2440897      35.85475       25.894939      82.68239     
-807643.31      3.3326523      36.195861      25.885623      82.270556    
-807639.87      3.13725        35.454118      25.803533      81.859742    
-807630.4       3.9118157      35.550218      25.811185      81.449006    
-807617.97      2.9569882      36.194142      25.891071      81.037617    
-807610.93      3.5619657      37.174924      25.804956      80.627262    
-807607.11      3.2684486      38.142743      25.762041      80.217489    
-807614.7       3.2428505      36.658401      25.794361      79.807539    
-807630.29      3.4066008      35.944399      25.799758      79.397683    
-807639.42      3.0299428      35.964853      25.810869      78.987865    
-807641.63      4.1737089      36.048283      25.873615      78.577589    
-807636.05      2.9561354      36.229088      25.840252      78.167787    
-807631.02      3.5106401      35.500553      25.865025      77.7579      
-807616.39      3.9700214      36.870146      25.867137      77.348145    
-807605.51      3.6772245      38.224063      25.834294      76.938846    
-807606.03      3.3793065      38.276419      25.783204      76.530166    
-807617.97      3.0325474      37.297621      25.88889       76.120649    
-807628.48      3.8668552      36.867283      25.935         75.710864    
-807638.62      3.4469513      36.972183      25.918062      75.301387    
-807638.76      4.9056653      37.768444      25.912532      74.892109    
-807638.48      3.2424837      36.088132      25.863997      74.48341     
-807623.75      3.2306259      37.885431      25.858004      74.074903    
-807615.3       2.8356164      37.535726      25.811576      73.666939    
-807604.66      3.5713134      38.722637      25.745569      73.259678    
-807610.47      3.1961131      37.426196      25.742412      72.852563    
-807616.18      4.0804654      36.96294       25.787124      72.445183    
-807631.67      3.6153253      36.481462      25.788601      72.037912    
-807636.89      3.830796       36.86805       25.877604      71.63002     
-807640.1       3.1029359      36.057284      25.898147      71.222091    
-807633.48      3.298161       36.815436      25.861161      70.8146      
-807626.14      3.096327       35.755517      25.848033      70.407344    
-807613.88      3.1997925      36.939503      25.827178      70.000381    
-807609.65      3.4008408      37.711811      25.842421      69.593418    
-807608.8       3.145188       37.890865      25.864908      69.186399    
-807619.02      3.6060305      36.861789      25.907834      68.779169    
-807633.51      3.222094       36.166154      25.947319      68.371763    
-807637.09      3.6177799      37.133739      25.919545      67.964703    
-807638.57      3.16324        36.479048      25.897595      67.557938    
-807631.87      3.72243        36.331913      25.85855       67.151593    
-807627.82      3.0501051      35.519506      25.811148      66.745721    
-807612.79      3.1505209      37.636537      25.794677      66.340083    
-807610.08      2.8223475      37.385973      25.83406       65.934261    
-807609.89      4.5078785      37.843346      25.863646      65.528334    
-807624.64      3.400059       37.33047       25.853134      65.122598    
-807630.06      4.9336921      37.650991      25.866651      64.716878    
-807639.67      2.957061       36.587432      25.91786       64.310907    
-807636.98      3.8976291      37.319283      25.858107      63.905474    
-807635.8       3.1858624      36.036262      25.840924      63.500271    
-807622.88      3.7584394      36.667511      25.83904       63.095187    
-807615.54      3.2351716      37.248066      25.910154      62.689723    
-807609.98      3.4540907      36.871929      25.85764       62.284727    
-807615.42      2.8350882      36.073869      25.854941      61.879855    
-807623.34      3.3728282      35.639538      25.874981      61.474955    
-807633.78      2.7827442      35.267167      25.856029      61.070286    
-807637.18      3.9437261      35.749378      25.815592      60.665984    
-807640.47      3.248867       35.804995      25.769807      60.262078    
-807632.76      3.4130365      36.14015       25.831618      59.857864    
-807621.38      3.9889829      36.424832      25.826414      59.45378     
-807614.33      3.4490996      36.851698      25.851827      59.049632    
-807611.15      4.5164591      38.074651      25.845229      58.645624    
-807615.69      3.2264373      37.24862       25.93991       58.24113     
-807625.14      3.856597       36.219909      25.964177      57.836595    
-807633.75      3.1816481      36.145764      25.925707      57.432401    
-807641.12      3.4570617      35.935604      25.920408      57.028341    
-807637.36      3.2903224      36.004792      25.861885      56.62473     
-807629.72      3.5576107      35.660961      25.819018      56.221466    
-807621.85      3.3269577      36.38818       25.913629      55.81774     
-807613.42      3.5772848      36.927609      25.870044      55.414364    
-807613.64      3.5952607      36.994454      25.834009      55.011285    
-807613.04      3.7456997      37.118819      25.804454      54.608463    
-807629.02      3.6235081      35.916334      25.826628      54.205599    
-807634.09      3.6868116      36.564277      25.830588      53.802801    
-807638.24      3.0694393      36.354884      25.790491      53.400307    
-807634.12      4.0008491      36.757233      25.839002      52.997631    
-807630.22      3.1921118      36.573066      25.809152      52.5952      
-807620.32      3.1526491      35.952879      25.822813      52.192777    
-807613.47      3.2879281      37.182133      25.802459      51.790544    
-807611.22      3.1139551      37.63526       25.795426      51.388427    
-807616.82      3.2655825      36.493715      25.808835      50.986318    
-807626.54      3.2786201      36.940059      25.77511       50.58446     
-807635.2       3.4853521      36.187398      25.808696      50.182507    
-807633.57      3.871651       37.439165      25.821547      49.780566    
-807633.97      3.0505369      37.41851       25.826288      49.37868     
-807629.27      4.0612291      37.364413      25.853139      48.97674     
-807618.17      3.2560131      37.557002      25.872521      48.574788    
-807610.58      3.2350347      38.618476      25.834452      48.173098    
-807607.96      3.2013879      38.675793      25.812125      47.771591    
-807618.13      3.5406513      38.086547      25.828696      47.370081    
-807625.78      4.0967038      37.778782      25.748472      46.969018    
-807633.78      3.0210206      37.458779      25.769107      46.567926    
-807634.25      4.3356217      37.631802      25.737257      46.167048    
-807634.82      3.020115       37.038699      25.772326      45.766075    
-807625.8       3.9207481      37.197696      25.726394      45.365375    
-807617.26      3.1979228      37.289952      25.72614       44.964737    
-807608.86      3.6310398      37.961815      25.743176      44.564087    
-807611.53      3.5312855      37.732184      25.788034      44.163306    
-807618.12      4.1557671      37.140957      25.833683      43.762399    
-807628.69      3.1435836      36.033294      25.809054      43.361666    
-807632.27      4.2447842      37.095699      25.810161      42.960996    
-807639.11      3.6082503      35.904929      25.841698      42.560264    
-807635.15      3.3647668      36.453205      25.88223       42.159439    
-807626.39      3.7060793      36.682727      25.850777      41.758812    
-807617.9       4.1007649      36.967684      25.842971      41.358286    
-807613.89      3.4409639      38.172865      25.785122      40.958053    
-807612.82      3.5746986      37.595057      25.780419      40.557901    
-807616.6       4.2274643      37.563648      25.7934        40.157761    
-807628.35      3.4265672      36.588502      25.802705      39.757648    
-807634.99      4.3851945      36.880602      25.868216      39.357355    
-807636.72      4.1694538      37.534381      25.866599      38.957137    
-807632.68      4.9583017      36.74952       25.850096      38.557045    
-807628.48      4.0231336      36.613344      25.822664      38.157117    
-807620.5       4.8294243      36.758106      25.793549      37.757354    
-807614.39      3.6238617      37.183618      25.806514      37.357605    
-807612.62      3.6997177      36.845346      25.811069      36.957901    
-807620.68      3.3970655      36.33613       25.820508      36.558225    
-807627.19      3.1245559      36.648473      25.816104      36.158624    
-807635.39      4.5190458      36.23557       25.801464      35.759132    
-807634.52      3.9873856      37.184826      25.820602      35.359635    
-807634.64      3.0522025      36.57383       25.791123      34.960291    
-807625.99      3.73684        37.363787      25.75528       34.561118    
-807620.96      3.2129957      36.637796      25.782685      34.161912    
-807611.46      3.2131828      37.357213      25.801204      33.762703    
-807616.8       3.0258657      37.622531      25.822562      33.363486    
-807620.57      3.4021036      37.410805      25.800079      32.964393    
-807629.74      3.374058       36.622455      25.805742      32.565338    
-807631.55      3.8093887      37.506945      25.792926      32.166376    
-807635.78      3.468867       37.693755      25.855039      31.76729     
-807631.21      3.8833285      37.044509      25.802329      31.368411    
-807626.27      3.7896698      36.761164      25.852518      30.969446    
-807617.76      3.5095033      37.489104      25.838839      30.570576    
-807615.8       3.5571481      37.850998      25.849041      30.171735    
-807617.29      3.1869133      37.603139      25.814275      29.773042    
-807621.15      5.5615557      37.682245      25.863562      29.374273    
-807629.12      3.4328425      36.885974      25.89589       28.97548     
-807634.09      3.9847265      37.296425      25.810571      28.576959    
-807634.81      4.5640488      37.669169      25.798712      28.17852     
-807628.16      4.5586197      37.940932      25.804984      27.780116    
-807625.32      3.0351626      36.17009       25.817929      27.381732    
-807619.7       4.0152501      36.903544      25.832043      26.983365    
-807614.17      3.1620731      38.280752      25.845621      26.585019    
-807615.27      3.1516432      37.267825      25.842971      26.186731    
-807622.65      3.8383646      37.506802      25.796114      25.788601    
-807628.58      3.5269024      37.027911      25.779134      25.390556    
-807634.43      3.6764533      36.846998      25.735513      24.992652    
-807630.28      3.8967593      37.981246      25.732812      24.594797    
-807629.24      4.0638313      37.351549      25.776479      24.196892    
-807623.06      3.354941       37.585175      25.780517      23.799024    
-807617.49      3.6335433      38.579759      25.857154      23.401048    
-807612.05      3.3641138      37.84162       25.822092      23.003192    
-807617.05      5.0519872      39.030815      25.82982       22.605368    
-807623.18      4.1974779      37.977507      25.805398      22.207639    
-807629.81      5.4326445      37.438273      25.790259      21.809983    
-807630.69      3.7093752      36.997637      25.841432      21.41228     
-807631.07      3.3653552      36.353887      25.806803      21.014685    
-807627.41      4.2865341      36.538145      25.774075      20.617193    
-807623.34      2.8843805      36.26449       25.789456      20.219717    
-807614.27      3.1461591      37.038827      25.819107      19.822235    
-807616.24      3.0733925      36.505909      25.829456      19.424781    
-807621.31      3.4068603      36.406158      25.8188        19.027389    
-807626.01      3.09466        36.19547       25.837385      18.630014    
-807628.16      4.0688777      36.886405      25.823191      18.232705    
-807631.61      3.9686383      37.091497      25.822124      17.835442    
-807632.79      3.326447       36.478483      25.804519      17.438248    
-807629.14      3.2240308      35.86886       25.783599      17.041126    
-807617.04      2.9806251      37.446274      25.804701      16.644016    
-807617.23      4.1122505      36.83846       25.86716       16.246864    
-807619.18      3.8633008      36.359813      25.782151      15.849869    
-807620.98      4.5648259      36.445121      25.798484      15.452892    
-807624.91      4.3060618      36.500323      25.808291      15.055944    
-807631.24      3.8644704      36.101288      25.838117      14.659001    
-807635.6       4.1264644      36.21399       25.837818      14.262101    
-807632.72      3.8431208      36.095395      25.781092      13.865308    
-807625.71      3.3119989      35.482124      25.798391      13.468534    
-807621.16      3.6956146      35.972024      25.826409      13.071769    
-807619.12      3.7967888      35.784482      25.83497       12.675037    
-807617.22      3.6355955      35.314009      25.847973      12.278332    
-807618.87      3.0824177      35.223757      25.82422       11.881693    
-807628.54      2.7829542      34.730819      25.837245      11.485081    
-807635.67      3.4024941      34.296007      25.906868      11.088448    
-807634.7       2.7360554      34.587791      25.809171      10.691944    
-807632.3       3.4203563      35.453687      25.77899       10.295502    
-807628.13      2.6922941      35.580899      25.789107      9.8990889    
-807623.86      3.5550175      36.553246      25.807496      9.5026979    
-807616.92      3.0282979      36.890417      25.855973      9.1063091    
-807615.88      3.9970121      37.018399      25.815792      8.7099883    
-807623.14      4.0058728      36.535215      25.818795      8.313703     
-807628.12      3.5462776      36.745308      25.815923      7.9174569    
-807631.12      3.4759874      36.636079      25.8658        7.5212182    
-807632.62      3.0186149      36.797152      25.784147      7.1250651    
-807632.78      3.9761394      36.182008      25.787756      6.7289446    
-807626.54      3.461555       36.571688      25.791709      6.3328566    
-807619.55      3.6202867      36.886374      25.802189      5.9367983    
-807614.54      3.6378142      36.847861      25.811795      5.5407707    
-807618.17      3.7818524      36.486245      25.796718      5.1447845    
-807623.53      3.6792063      36.508218      25.791894      4.7488343    
-807627.79      3.6181536      36.521413      25.77963       4.3529219    
-807630.21      3.7048752      36.525665      25.80265       3.9570351    
-807635.37      3.4558703      36.480965      25.745347      3.5611981    
-807632.66      3.0892143      36.153317      25.765894      3.1653862    
-807624.73      3.1191337      36.023107      25.810711      2.769596     
-807617.6       3.3220396      36.343063      25.810362      2.3738396    
-807618.1       3.0375089      36.09385       25.891048      1.9781047    
-807617.48      3.2592863      36.749328      25.857477      1.5824121    
-807619.55      3.4610964      36.285511      25.809343      1.1867599    
-807626.24      4.328939       36.310704      25.800669      0.79114113   
-807631.11      2.9807607      36.641144      25.786042      0.39555501   
-807634.87      3.2937388      36.645273      25.780494      0            
Loop time of 197.77 on 32 procs for 5000 steps with 1080 atoms

Performance: 4.369 ns/day, 5.494 hours/ns, 25.282 timesteps/s, 27.304 katom-step/s
67.3% CPU use with 32 MPI tasks x 1 OpenMP threads

MPI task timing breakdown:
Section |  min time  |  avg time  |  max time  |%varavg| %total
---------------------------------------------------------------
Pair    | 101.78     | 144.41     | 193.64     | 313.1 | 73.02
Neigh   | 0          | 0          | 0          |   0.0 |  0.00
Comm    | 1.8753     | 51.098     | 93.731     | 526.4 | 25.84
Output  | 0.026901   | 0.027613   | 0.029102   |   0.2 |  0.01
Modify  | 1.906      | 1.9159     | 1.9269     |   0.3 |  0.97
Other   |            | 0.3138     |            |       |  0.16

Nlocal:          33.75 ave          48 max          21 min
Histogram: 8 8 0 0 0 0 0 8 0 8
Nghost:        1106.25 ave        1119 max        1092 min
Histogram: 8 0 8 0 0 0 0 0 8 8
Neighs:              0 ave           0 max           0 min
Histogram: 32 0 0 0 0 0 0 0 0 0
FullNghs:       5494.5 ave        7896 max        3378 min
Histogram: 8 8 0 0 0 0 0 8 0 8

Total # of neighbors = 175824
Ave neighs/atom = 162.8
Neighbor list builds = 0
Dangerous builds = 0

reset_timestep 0


variable interval equal 1000
thermo 10

variable nintervals equal $(v_PERIOD/v_interval)
variable nintervals equal 100
variable efield equal 1e-2*36.36*cos((step/${PERIOD})*2*3.14)
variable efield equal 1e-2*36.36*cos((step/100000)*2*3.14)
fix born all addbornforce 0.0 0.0 v_efield

variable Px equal f_born[1]+c_polarization[1]
variable Py equal f_born[2]+c_polarization[2]
variable Pz equal (f_born[3]+c_polarization[3])/vol
variable pe equal pe

fix aveP all ave/time 1 $(v_interval/2) ${interval} v_efield v_Pz v_pe f_born file Pz.${MODEL}.${STRUCTURE}.${TEMP}.$L.${ITER}
fix aveP all ave/time 1 500 ${interval} v_efield v_Pz v_pe f_born file Pz.${MODEL}.${STRUCTURE}.${TEMP}.$L.${ITER}
fix aveP all ave/time 1 500 1000 v_efield v_Pz v_pe f_born file Pz.${MODEL}.${STRUCTURE}.${TEMP}.$L.${ITER}
fix aveP all ave/time 1 500 1000 v_efield v_Pz v_pe f_born file Pz.BaTiO3-E0.${STRUCTURE}.${TEMP}.$L.${ITER}
fix aveP all ave/time 1 500 1000 v_efield v_Pz v_pe f_born file Pz.BaTiO3-E0.BaTiO3-sc333.${TEMP}.$L.${ITER}
fix aveP all ave/time 1 500 1000 v_efield v_Pz v_pe f_born file Pz.BaTiO3-E0.BaTiO3-sc333.350.$L.${ITER}
fix aveP all ave/time 1 500 1000 v_efield v_Pz v_pe f_born file Pz.BaTiO3-E0.BaTiO3-sc333.350.2.${ITER}
fix aveP all ave/time 1 500 1000 v_efield v_Pz v_pe f_born file Pz.BaTiO3-E0.BaTiO3-sc333.350.2.0

thermo_style custom step time temp press pe f_born v_efield v_Pz spcpu cpuremain

# dump 4a all custom 1000 dump.hyst.${MODEL}.${STRUCTURE}.${TEMP}.$L.${ITER}.bin id type xu yu zu fx fy fz
# dump_modify 4a sort id

fix nvt all nvt temp ${TEMP} ${TEMP} $(100*dt)
fix nvt all nvt temp 350 ${TEMP} $(100*dt)
fix nvt all nvt temp 350 350 $(100*dt)
fix nvt all nvt temp 350 350 0.2000000000000000111

run $(v_PERIOD)
run 100000
WARNING: non-constant efield is experimental, strongly distrust scalar/vector output (src/fix_addbornforce.cpp:193)
Per MPI rank memory allocation (min/avg/max) = 3.516 | 3.516 | 3.516 Mbytes
   Step          Time           Temp          Press          PotEng         f_born        v_efield         v_Pz          S/CPU         CPULeft    
         0   0              358.08506      128975.08     -807634.87     -292.04001      0.3636         0.054924486    0              0            
        10   0.02           365.59584      131697.95     -807629.31     -298.68783      0.36359993     0.056174764    28.932972      3455.9376    
        20   0.04           360.37438      135121.13     -807623.38     -304.05217      0.36359971     0.057183679    28.982113      3452.6554    
        30   0.06           366.0323       139974.4      -807620.75     -307.46088      0.36359935     0.057824818    29.034354      3449.2593    
        40   0.08           348.6605       141190.18     -807616.77     -309.25359      0.36359885     0.058162058    29.056089      3446.7465    
        50   0.1            350.62013      143482.96     -807614.15     -312.20942      0.36359821     0.058718072    29.038688      3445.5132    
        60   0.12           364.55651      137667.2      -807622.17     -306.3655       0.36359742     0.057619115    29.011857      3445.1068    
        70   0.14           358.66934      134474.09     -807626.91     -300.83751      0.36359649     0.056579593    29.015802      3444.6511    
        80   0.16           347.71824      129172.75     -807632.17     -294.28905      0.36359541     0.055348164    29.053908      3443.6587    
        90   0.18           347.90164      131405.12     -807629.91     -296.71363      0.36359419     0.055804352    29.021131      3443.2418    
       100   0.2            345.07225      131293.06     -807627.81     -298.73605      0.36359283     0.05618493     29.003471      3443.049     
       110   0.22           365.30933      135611.88     -807625.97     -303.54344      0.36359132     0.057089318    29.012345      3442.7328    
       120   0.24           352.11038      138793.2      -807620.41     -307.62282      0.36358968     0.057856816    28.998977      3442.544     
       130   0.26           336.73261      143383.76     -807613.84     -312.27801      0.36358788     0.05873264     29.037451      3441.9803    
       140   0.28           360.64148      140088.82     -807619.85     -309.91975      0.36358595     0.058289413    29.094467      3440.9666    
       150   0.3            341.28961      138480.26     -807623        -304.30797      0.36358387     0.057234282    29.083345      3440.1296    
       160   0.32           356.04724      132086.93     -807630.61     -299.03339      0.36358165     0.056242582    29.01866       3439.8325    
       170   0.34           343.63862      130430.53     -807630.25     -297.84292      0.36357928     0.056019042    28.967179      3439.8895    
       180   0.36           335.85176      130146.13     -807631.02     -296.25478      0.36357677     0.055720724    29.024354      3439.5248    
       190   0.38           339.70826      132445.41     -807629.5      -298.48333      0.36357412     0.056140289    29.015026      3439.2203    
       200   0.4            349.83252      135196.58     -807626.04     -303.61178      0.36357132     0.057105314    29.059563      3438.6484    
       210   0.42           350.71773      140107.55     -807620.81     -309.18288      0.36356838     0.058153632    29.022837      3438.3047    
       220   0.44           331.95039      141324.13     -807618.1      -309.38646      0.3635653      0.058192417    29.024178      3437.954     
       230   0.46           357.02073      138572.92     -807623.24     -307.71233      0.36356207     0.057878045    29.043807      3437.5027    
       240   0.48           343.41562      136094.41     -807624.88     -304.29952      0.3635587      0.057236654    29.050937      3437.0255    
       250   0.5            336.027        133591.32     -807627.9      -300.27453      0.36355519     0.056480127    29.067415      3436.4806    
       260   0.52           340.04222      130653.76     -807632.19     -296.44856      0.36355153     0.055761043    29.031004      3436.1169    
       270   0.54           346.32264      130299.63     -807633.61     -295.91955      0.36354773     0.05566212     29.044814      3435.6942    
       280   0.56           347.31634      133399.48     -807628.69     -300.98149      0.36354379     0.056614877    29.050613      3435.2525    
       290   0.58           338.56581      137179.68     -807622.76     -305.65535      0.3635397      0.05749468     29.093237      3434.6442    
       300   0.6            354.26024      139633.88     -807622.37     -308.15554      0.36353547     0.057965649    29.083321      3434.0926    
       310   0.62           341.98841      140293.63     -807619.86     -308.8948       0.3635311      0.058105407    29.068011      3433.6124    
       320   0.64           342.20156      139118.25     -807621.3      -307.42197      0.36352658     0.057829076    29.004987      3433.3737    
       330   0.66           338.42237      135763.23     -807624.23     -303.85995      0.36352192     0.057159757    29.02186       3433.068     
       340   0.68           334.78085      131892.84     -807628.98     -298.50955      0.36351712     0.056154023    29.067108      3432.6028    
       350   0.7            336.56307      130894.3      -807632.11     -295.50098      0.36351217     0.055588824    29.050294      3432.2012    
       360   0.72           341.30914      130698.02     -807630.33     -297.84276      0.36350708     0.056030137    29.054468      3431.7892    
       370   0.74           342.06647      133842.37     -807626.34     -301.83556      0.36350185     0.056782079    29.055559      3431.3773    
       380   0.76           352.3005       136843.31     -807623.93     -305.60444      0.36349647     0.057491941    29.073305      3430.9138    
       390   0.78           349.64334      140941.15     -807620.76     -308.21642      0.36349095     0.057984201    29.061155      3430.4932    
       400   0.8            341.80297      140465.06     -807618.22     -309.65503      0.36348529     0.058255753    29.03496       3430.1539    
       410   0.82           342.9665       138333.03     -807620.32     -307.63378      0.36347948     0.057876418    29.01876       3429.8608    
       420   0.84           342.39067      135141.95     -807625.93     -301.75908      0.36347353     0.056772116    29.024248      3429.5501    
       430   0.86           348.68983      131380.05     -807631.12     -297.27949      0.36346744     0.055930275    29.032811      3429.214     
       440   0.88           351.99924      130812.87     -807631.35     -297.40274      0.3634612      0.055954423    29.050448      3428.8303    
       450   0.9            351.7343       132285.8      -807630.3      -298.33253      0.36345482     0.056130343    29.087811      3428.3506    
       460   0.92           348.91034      135245.76     -807626.34     -301.73165      0.3634483      0.056770896    29.056939      3427.9558    
       470   0.94           357.40874      137785.96     -807623.79     -305.31038      0.36344163     0.057445288    29.054103      3427.5704    
       480   0.96           343.45788      140607.62     -807617.47     -309.59993      0.36343482     0.058253475    29.013303      3427.2868    
       490   0.98           341.80197      141427.31     -807617.39     -309.37378      0.36342786     0.058212036    28.981533      3427.0776    
       500   1              355.1198       137246.66     -807623.22     -305.27142      0.36342077     0.057441255    29.047424      3426.7073    
       510   1.02           354.8042       134314.15     -807627.01     -9639.2107      0.36341353     0.056681055    28.959082      3426.5427    
       520   1.04           344.8018       131545.08     -807629.16     -9524.7243      0.36340614     0.056008983    29.003806      3426.2695    
       530   1.06           343.5892       131297.55     -807629.17     -9513.8335      0.36339862     0.0559461      28.988051      3426.0285    
       540   1.08           356.39377      131794.85     -807630.53     -9523.8302      0.36339095     0.056006068    29.014803      3425.7252    
       550   1.1            354.53374      136088.16     -807625.44     -9674.2865      0.36338313     0.056892068    28.987482      3425.4792    
       560   1.12           355.11361      138410.91     -807621.16     -9814.3144      0.36337518     0.057716801    28.991221      3425.2217    
       570   1.14           346.66859      141072.76     -807617.28     -9896.1098      0.36336707     0.058199127    29.029856      3424.8811    
       580   1.16           350.70695      139441.8      -807619.52     -9839.5981      0.36335883     0.057868094    28.997057      3424.6071    
       590   1.18           354.67186      138008.26     -807622.07     -9770.4447      0.36335044     0.057462719    28.966441      3424.3921    
       600   1.2            361.85442      132477.3      -807627.11     -9641.0186      0.36334191     0.05670286     28.980219      3424.1456    
       610   1.22           350.41926      131574.4      -807629.07     -9522.59        0.36333324     0.056007668    28.979568      3423.8972    
       620   1.24           350.61811      131299.13     -807630.67     -9469.1818      0.36332442     0.055694896    28.942546      3423.7163    
       630   1.26           345.75911      133470.36     -807627.1      -9561.2736      0.36331546     0.05623794     28.903389      3423.604     
       640   1.28           360.85148      135587.26     -807624.44     -9712.2023      0.36330636     0.057127111    28.896605      3423.4971    
       650   1.3            357.27587      138436.96     -807621.18     -9797.7253      0.36329711     0.057631623    28.914468      3423.3502    
       660   1.32           352.83371      141490.18     -807617.99     -9876.3815      0.36328772     0.058095792    28.900408      3423.2226    
       670   1.34           353.53662      138951.81     -807619.33     -9838.6         0.36327819     0.057875068    28.907894      3423.075     
       680   1.36           364.21015      138651.19     -807623.28     -9754.4786      0.36326851     0.057381757    28.919087      3422.9022    
       690   1.38           357.97122      132615.26     -807627.69     -9585.3358      0.36325869     0.056388281    28.945325      3422.6792    
       700   1.4            356.93461      132183.79     -807629.7      -9513.3153      0.36324873     0.055966136    28.902094      3422.5261    
       710   1.42           337.22365      131788.78     -807628.5      -9465.0624      0.36323863     0.055683817    28.908408      3422.3568    
       720   1.44           357.42276      134261.9      -807627.31     -9591.9164      0.36322838     0.056431703    28.920127      3422.1635    
       730   1.46           359.59299      134722.74     -807624.69     -9688.0219      0.36321798     0.056998747    28.966054      3421.8913    
       740   1.48           359.21193      140429.27     -807620.03     -9832.3316      0.36320745     0.05784946     28.956242      3421.6328    
       750   1.5            354.9824       140505.97     -807618.18     -9875.4502      0.36319677     0.058104861    28.946437      3421.3876    
       760   1.52           361.02294      141262.65     -807618.77     -9883.7871      0.36318595     0.058155646    28.94041       3421.1491    
       770   1.54           353.78173      136627.36     -807623.28     -9712.6243      0.36317498     0.05715026     28.950809      3420.8918    
       780   1.56           369.4783       133593.85     -807629.1      -9599.1538      0.36316387     0.056484314    28.99172       3420.5702    
       790   1.58           341.80671      130895.13     -807629.44     -9472.3425      0.36315262     0.055739844    28.996622      3420.2408    
       800   1.6            329.04118      133244.81     -807626.73     -9505.6574      0.36314122     0.055937641    28.95027       3419.9794    
       810   1.62           337.51577      133017.98     -807627.5      -9525.5001      0.36312968     0.05605619     28.956172      3419.7073    
       820   1.64           372.22507      136630.48     -807627.33     -9689.0774      0.363118       0.057020653    28.972612      3419.4098    
       830   1.66           352.20378      139165.53     -807619.69     -9852.169       0.36310618     0.057982342    28.974874      3419.1077    
       840   1.68           352.54281      141911.8      -807618.18     -9908.0756      0.36309421     0.058313288    28.962079      3418.8229    
       850   1.7            351.14666      139648.94     -807621.46     -9805.1495      0.3630821      0.057709448    29.005443      3418.4763    
       860   1.72           347.44352      136950.3      -807623.46     -9729.6462      0.36306984     0.057266997    28.982346      3418.1614    
       870   1.74           342.8444       131976.72     -807627.11     -9602.5414      0.36305745     0.05652081     28.978873      3417.8505    
       880   1.76           340.18149      130953.28     -807629.88     -9505.1063      0.3630449      0.055949237    28.98014       3417.5372    
       890   1.78           342.77596      130376.25     -807631.57     -9468.0052      0.36303222     0.055732799    28.949735      3417.2635    
       900   1.8            348.46521      133287.1      -807629.1      -9576.8166      0.36301939     0.056375302    28.928544      3417.0161    
       910   1.82           353.27381      136304.27     -807624.93     -9738.2877      0.36300642     0.057327874    28.902436      3416.8005    
       920   1.84           358.31127      138792.88     -807622.59     -9840.8369      0.36299331     0.057933658    28.933566      3416.542     
       930   1.86           352.35778      139878.02     -807621.11     -9865.5387      0.36298005     0.058081201    28.983994      3416.2176    
       940   1.88           323.64996      139905.03     -807618.67     -9819.8192      0.36296665     0.057814172    28.949144      3415.9365    
       950   1.9            347.87896      136360.32     -807625.2      -9720.9439      0.36295311     0.057234179    28.918495      3415.6922    
       960   1.92           336.16875      132950.46     -807628.15     -9576.0935      0.36293942     0.056383467    28.912001      3415.4538    
       970   1.94           341.52121      130804.4      -807631.21     -9502.809       0.36292559     0.055954104    28.917975      3415.2059    
       980   1.96           330.03551      131498.45     -807630.53     -9474.6859      0.36291162     0.055790658    28.91905       3414.9547    
       990   1.98           341.36329      133972.81     -807627.68     -9618.1528      0.3628975      0.056637651    28.948085      3414.6669    
      1000   2              346.76464      135726.53     -807624.9      -9734.1363      0.36288325     0.057322886    28.91898       3414.4124    
      1010   2.02           341.32629      140011.22     -807621.28     -306.96739      0.36286884     0.05784823     29.021681      3414.0361    
      1020   2.04           341.65786      138956.99     -807621.13     -307.12656      0.3628543      0.057880547    29.039174      3413.6403    
      1030   2.06           349.15974      138487.11     -807622.48     -306.68949      0.36283961     0.057800517    29.015729      3413.2722    
      1040   2.08           345.89955      133854.8      -807626.33     -302.37288      0.36282478     0.056989313    29.03258       3412.8856    
      1050   2.1            349.57132      132856.78     -807631.07     -297.96111      0.3628098      0.056160127    29.033798      3412.4984    
      1060   2.12           335.86631      131648.04     -807630.93     -296.00309      0.36279469     0.055793403    29.03185       3412.1142    
      1070   2.14           350.04254      132057.68     -807630.5      -298.27741      0.36277943     0.056224453    29.072005      3411.6868    
      1080   2.16           344.71671      134767.47     -807626.87     -300.97634      0.36276402     0.056735601    29.045012      3411.2901    
      1090   2.18           359.93491      137161.37     -807624.8      -304.8876       0.36274848     0.057475357    29.023334      3410.9177    
      1100   2.2            349.52633      139227.33     -807620.54     -307.44782      0.36273279     0.057960501    29.034911      3410.5335    
      1110   2.22           351.24919      139516.48     -807619.56     -308.33545      0.36271695     0.058130374    29.088985      3410.093     
      1120   2.24           344.69976      137890.52     -807621.36     -305.3098       0.36270098     0.057562485    29.044735      3409.7005    
      1130   2.26           363.3229       134519.53     -807627.75     -301.13515      0.36268486     0.056777929    29.035347      3409.3185    
      1140   2.28           328.86402      132408.1      -807626.1      -297.6268       0.3626686      0.056118958    29.057856      3408.914     
      1150   2.3            343.00887      132431.76     -807629.54     -295.79052      0.36265219     0.055775241    29.064646      3408.5038    
      1160   2.32           358.21173      132089.22     -807630.14     -296.99633      0.36263564     0.056005169    29.036866      3408.1226    
      1170   2.34           349.0913       135240.76     -807624.75     -300.80355      0.36261895     0.056725715    29.010685      3407.7684    
      1180   2.36           360.54197      137743.22     -807623.19     -303.70145      0.36260212     0.057274861    29.069579      3407.3558    
      1190   2.38           357.58059      139940.21     -807618.73     -307.55857      0.36258514     0.058004988    29.002112      3407.0109    
      1200   2.4            368.56475      139785.07     -807619.86     -307.81508      0.36256802     0.058056107    28.996673      3406.6713    
      1210   2.42           354.3036       138935.68     -807621.25     -304.30302      0.36255076     0.057396441    28.956597      3406.3705    
      1220   2.44           356.70699      134574.01     -807624.88     -300.84599      0.36253335     0.056747113    28.927206      3406.0974    
      1230   2.46           363.69743      132383.56     -807628.97     -297.70341      0.3625158      0.056157062    28.91561       3405.8343    
      1240   2.48           352.75696      132432.56     -807628.39     -296.64249      0.36249811     0.055959667    28.914564      3405.5709    
      1250   2.5            358.82476      132246.74     -807629.68     -296.2259       0.36248028     0.05588383     28.957593      3405.2655    
      1260   2.52           364.31883      135859.71     -807625.85     -300.76818      0.3624623      0.056743558    28.979524      3404.939     
      1270   2.54           362.68792      137894.57     -807623.25     -303.2144       0.36244418     0.057207927    29.013066      3404.5813    
      1280   2.56           363.07587      140695.3      -807618.59     -307.9408       0.36242592     0.058102591    28.96648       3404.2664    
      1290   2.58           365.43734      139477.04     -807620.36     -306.67202      0.36240751     0.057866135    28.952329      3403.964     
      1300   2.6            356.65274      139118.04     -807620.9      -304.93429      0.36238896     0.057541189    28.954899      3403.6587    
      1310   2.62           352.88502      134834.11     -807624.25     -301.21669      0.36237027     0.056842608    28.929041      3403.3759    
      1320   2.64           347.15572      132744.35     -807626.92     -297.79823      0.36235143     0.056200432    28.955426      3403.0687    
      1330   2.66           353.39486      131382.24     -807630.59     -295.05819      0.36233245     0.055686248    29.029083      3402.6958    
      1340   2.68           357.43554      131403.1      -807630.19     -296.20565      0.36231333     0.055905758    29.050646      3402.3047    
      1350   2.7            354.46407      134919.12     -807625.32     -300.71401      0.36229407     0.056759683    29.017741      3401.9426    
      1360   2.72           359.68995      136470.21     -807623.22     -303.69375      0.36227466     0.057325177    29.075446      3401.5313    
      1370   2.74           352.22199      140696.27     -807619.11     -306.84855      0.36225511     0.057923804    29.033963      3401.1563    
      1380   2.76           365.28133      138952.67     -807621.87     -306.09308      0.36223542     0.057784335    29.001859      3400.809     
      1390   2.78           343.9047       139539.12     -807619.3      -305.68017      0.36221558     0.057709546    29.00492       3400.4592    
      1400   2.8            360.3298       132710.85     -807627.51     -300.01058      0.3621956      0.056642305    29.001201      3400.1125    
      1410   2.82           341.6564       134055.75     -807626.93     -297.91482      0.36217548     0.056249748    29.034228      3399.7384    
      1420   2.84           357.46699      129173.17     -807632.92     -294.36515      0.36215522     0.055582638    28.951925      3399.4327    
      1430   2.86           359.87002      133362.67     -807628.95     -298.69039      0.36213481     0.056402517    29.027053      3399.0649    
      1440   2.88           342.9328       134105.14     -807626.19     -299.34264      0.36211426     0.056528892    29.026229      3398.698     
      1450   2.9            348.58325      138481.74     -807621.62     -304.67814      0.36209357     0.057539754    29.023817      3398.3334    
      1460   2.92           357.09308      138496.4      -807622.15     -305.53748      0.36207273     0.057705365    29.044847      3397.9523    
      1470   2.94           338.55016      139764.61     -807618.83     -306.32634      0.36205176     0.057857704    29.034246      3397.58      
      1480   2.96           356.41571      136816.43     -807624.47     -303.15998      0.36203064     0.057262995    29.035824      3397.2069    
      1490   2.98           353.19842      133778.98     -807628.02     -299.25987      0.36200937     0.056529635    29.00351       3396.8596    
      1500   3              342.60263      132909.36     -807628.33     -297.52602      0.36198796     0.056205439    29.038038      3396.4853    
      1510   3.02           349.07593      131413.62     -807631.02     -9465.3775      0.36196642     0.05588139     28.95114       3396.1789    
      1520   3.04           348.52158      133027.1      -807628.42     -9545.4802      0.36194472     0.056357675    28.965671      3395.8607    
      1530   3.06           340.81501      134163.85     -807626.42     -9578.6796      0.36192289     0.0565571      28.934975      3395.5658    
      1540   3.08           350.10367      139343.98     -807622.21     -9753.4426      0.36190091     0.057592482    28.916515      3395.2843    
      1550   3.1            351.94997      137129.71     -807622.06     -9771.5117      0.36187879     0.057702704    28.884239      3395.0265    
      1560   3.12           348.85274      140779.87     -807619.88     -9823.0176      0.36185653     0.058010425    28.90624       3394.751     
      1570   3.14           353.50262      134631.44     -807626.5      -9634.6833      0.36183412     0.056901729    28.924687      3394.4607    
      1580   3.16           342.79421      136522.04     -807624.65     -9640.174       0.36181157     0.056937705    28.952171      3394.1493    
      1590   3.18           348.30614      130065.84     -807631.09     -9463.3582      0.36178888     0.055896884    29.002776      3393.8001    
      1600   3.2            341.58908      133328.92     -807628.76     -9500.7269      0.36176605     0.056121151    28.934203      3393.5013    
      1610   3.22           347.73388      130410.65     -807630.96     -9461.7405      0.36174307     0.055894407    28.901607      3393.2257    
      1620   3.24           341.09652      137564.39     -807622.71     -9692.229       0.36171995     0.057259656    28.902786      3392.9484    
      1630   3.26           352.49816      136389.77     -807623.78     -9712.0446      0.36169669     0.057380413    28.93294       3392.6485    
      1640   3.28           351.53238      141347.65     -807620.13     -9818.1818      0.36167329     0.058011244    28.977653      3392.316     
      1650   3.3            350.31048      137411.17     -807622.36     -9742.7567      0.36164974     0.057569339    28.967476      3391.9906    
      1660   3.32           352.54355      138098.41     -807623.72     -9704.3494      0.36162605     0.057346149    28.967968      3391.6646    
      1670   3.34           341.31075      132633.01     -807627.34     -9540.218       0.36160222     0.056379958    28.983326      3391.3276    
      1680   3.36           345.97384      131970.61     -807630.35     -9459.3262      0.36157824     0.055905618    28.991923      3390.9846    
      1690   3.38           339.24015      130613.52     -807630.51     -9423.2623      0.36155413     0.055696191    28.934729      3390.6812    
      1700   3.4            351.2738       134047.05     -807627.79     -9563.4382      0.36152987     0.056528494    28.912136      3390.3928    
      1710   3.42           343.64688      135387.4      -807623.17     -9675.9369      0.36150546     0.057197323    28.885346      3390.1223    
      1720   3.44           360.60496      138582.76     -807622.9      -9757.2452      0.36148092     0.057681876    28.943596      3389.811     
      1730   3.46           347.36753      139440.82     -807621.22     -9751.8589      0.36145623     0.057653972    28.978539      3389.4758    
      1740   3.48           359.85105      139008.52     -807621.81     -9784.0503      0.3614314      0.057848265    29.031897      3389.1045    
      1750   3.5            357.96478      135273.99     -807625.73     -9650.3305      0.36140643     0.057061588    29.014624      3388.7451    
      1760   3.52           334.03641      133202.59     -807627.54     -9483.3963      0.36138131     0.056078417    28.993203      3388.4001    
      1770   3.54           345.97668      130889.18     -807631.61     -9404.5966      0.36135605     0.055616336    28.892282      3388.1219    
      1780   3.56           355.5998       130923.68     -807631.36     -9455.3008      0.36133065     0.055920118    28.890621      3387.8441    
      1790   3.58           353.81721      133580.7      -807626.85     -9588.8454      0.36130511     0.056713931    28.887496      3387.5676    
      1800   3.6            353.51326      135952.91     -807625.62     -9628.9945      0.36127942     0.056955445    28.944843      3387.2528    
      1810   3.62           361.07338      139722.65     -807622.08     -9771.0903      0.3612536      0.057800073    28.966386      3386.9238    
      1820   3.64           342.81029      139031.12     -807619.02     -9791.4401      0.36122763     0.057924614    28.942222      3386.6102    
      1830   3.66           348.80433      139058.93     -807620.54     -9766.4717      0.36120151     0.057781083    28.967283      3386.2802    
      1840   3.68           342.62374      134628.82     -807625.53     -9577.8311      0.36117526     0.056669153    28.89809       3385.9941    
      1850   3.7            344.15809      133886.1      -807628.27     -9493.8207      0.36114886     0.056176194    28.927428      3385.6888    
      1860   3.72           352.76215      129824.58     -807631.66     -9422.5025      0.36112232     0.055758293    28.936039      3385.3775    
      1870   3.74           354.44876      133550.51     -807629.85     -9483.4504      0.36109564     0.056123103    28.948793      3385.058     
      1880   3.76           352.78859      132849.58     -807628.99     -9505.382       0.36106881     0.056257073    28.96058       3384.7308    
      1890   3.78           352.01975      137517.35     -807623.23     -9682.7786      0.36104184     0.057311266    28.963667      3384.4015    
      1900   3.8            349.99861      137941.51     -807622.15     -9713.1801      0.36101474     0.057495526    29.011685      3384.0425    
      1910   3.82           336.38414      141250.49     -807616.84     -9815.9653      0.36098748     0.058108332    29.016753      3383.6806    
      1920   3.84           347.93517      136783.36     -807622.88     -9676.8365      0.36096009     0.057289068    29.014506      3383.3203    
      1930   3.86           354.40117      136983.21     -807624.36     -9652.9206      0.36093255     0.05715184     28.998717      3382.9696    
      1940   3.88           347.83846      132578.48     -807628.22     -9501.8189      0.36090487     0.056261531    28.981747      3382.6292    
      1950   3.9            348.9517       132523.28     -807628.96     -9477.5907      0.36087705     0.056122399    28.970002      3382.2958    
      1960   3.92           354.57062      130759.62     -807630.99     -9440.1152      0.36084909     0.055904816    28.954793      3381.9713    
      1970   3.94           353.8634       134736.11     -807627.59     -9543.985       0.36082098     0.056524341    28.970096      3381.6376    
      1980   3.96           354.05467      136584.3      -807624.06     -9657.8381      0.36079273     0.057203115    29.010438      3381.2799    
      1990   3.98           348.12819      138242.56     -807621.15     -9722.5934      0.36076434     0.057591191    29.026041      3380.9133    
      2000   4              363.51666      138124.07     -807623.17     -9726.4903      0.36073581     0.057618831    29.000485      3380.5618    
      2010   4.02           339.73435      138626.13     -807620.66     -303.18091      0.36070713     0.057477073    29.061702      3380.1749    
      2020   4.04           347.0341       135911.41     -807623.94     -300.81759      0.36067831     0.05703359     29.052414      3379.7938    
      2030   4.06           347.9899       132462.8      -807628.69     -296.14968      0.36064935     0.056153085    29.035659      3379.4226    
      2040   4.08           352.58277      132883.55     -807629.79     -295.64561      0.36062025     0.056062033    29.074661      3379.0296    
      2050   4.1            347.47265      131534.96     -807628.54     -296.1799       0.36059101     0.056167903    29.045819      3378.6533    
      2060   4.12           355.44914      135919.85     -807626.12     -299.56338      0.36056162     0.05681418     29.098456      3378.2477    
      2070   4.14           354.40909      134905.07     -807625.35     -300.29083      0.36053209     0.056956811    29.092809      3377.8459    
      2080   4.16           347.53233      139956.61     -807619.83     -304.7242       0.36050242     0.057802453    29.10866       3377.4358    
      2090   4.18           349.81327      136580.02     -807622.04     -302.96606      0.36047261     0.05747371     29.007764      3377.0823    
      2100   4.2            345.15176      138901.12     -807620.76     -303.40068      0.36044265     0.057560941    29.005235      3376.7303    
      2110   4.22           348.15395      132561.5      -807627.39     -297.3127       0.36041256     0.056410645    29.011697      3376.3748    
      2120   4.24           343.52247      135422.57     -807626.41     -297.50264      0.36038232     0.05645142     28.990151      3376.0313    
      2130   4.26           344.91539      130474.34     -807629.68     -294.48848      0.36035193     0.055884191    28.975138      3375.6959    
      2140   4.28           361.40649      133638.94     -807629.46     -296.87117      0.36032141     0.056341119    28.982018      3375.3567    
      2150   4.3            342.73575      132572.66     -807626.58     -297.26805      0.36029075     0.056421242    28.974681      3375.0215    
      2160   4.32           349.08986      138877.52     -807622.51     -302.15061      0.36025994     0.057352852    29.006613      3374.6689    
      2170   4.34           338.52455      137120.71     -807621.23     -302.06896      0.36022899     0.057342281    29.064032      3374.2857    
      2180   4.36           359.27225      139501.53     -807622.15     -303.91791      0.36019789     0.057698251    29.056436      3373.9069    
      2190   4.38           350.72101      135549.08     -807624.07     -300.89232      0.36016666     0.0571288      29.029561      3373.5426    
      2200   4.4            357.8239       135073.15     -807627.26     -298.60663      0.36013528     0.056699769    29.021535      3373.1828    
      2210   4.42           347.30855      132098.12     -807629.38     -295.08657      0.36010377     0.05603628     29.060428      3372.8027    
      2220   4.44           350.76506      132534.43     -807629.79     -295.17169      0.36007211     0.056057374    29.091084      3372.4069    
      2230   4.46           348.87316      133222.05     -807628.07     -296.64195      0.3600403      0.056341573    29.083154      3372.0157    
      2240   4.48           348.06806      134314.72     -807626.47     -298.14675      0.36000836     0.056632405    29.07971       3371.6267    
      2250   4.5            358.46023      135478.97     -807626.45     -299.62552      0.35997627     0.056918369    29.090304      3371.2327    
      2260   4.52           341.32953      137974.24     -807620.52     -303.2223       0.35994404     0.057606788    29.085801      3370.8415    
      2270   4.54           360.43739      138020.03     -807623.35     -303.03808      0.35991167     0.057576967    29.042638      3370.4726    
      2280   4.56           349.99163      137405.66     -807623.77     -301.10454      0.35987916     0.057214766    29.04635       3370.1021    
      2290   4.58           352.92502      132895.89     -807628.13     -297.23775      0.35984651     0.056485138    29.020829      3369.7447    
      2300   4.6            340.86549      134564.23     -807626.56     -297.07625      0.35981371     0.056459594    29.00035       3369.3977    
      2310   4.62           339.34778      132349.38     -807627.85     -295.63491      0.35978077     0.056190808    29.075872      3369.0129    
      2320   4.64           357.37274      132778.82     -807630.22     -295.72353      0.35974769     0.056212821    29.1279        3368.6026    
      2330   4.66           346.79712      133842.44     -807627.58     -296.98367      0.35971447     0.056457569    29.080248      3368.2165    
      2340   4.68           348.74457      136801.44     -807623.79     -301.04224      0.35968111     0.057234425    29.020788      3367.8601    
      2350   4.7            344.63179      138341.05     -807621.39     -302.87913      0.3596476      0.057589021    28.941982      3367.5428    
      2360   4.72           342.96694      137281.67     -807622.49     -301.50689      0.35961396     0.057333469    28.946219      3367.2232    
      2370   4.74           349.39999      136320.65     -807624.91     -299.94989      0.35958017     0.057042755    28.969803      3366.8917    
      2380   4.76           349.92749      134148.33     -807626.88     -298.10442      0.35954624     0.056697145    29.005432      3366.5428    
      2390   4.78           356.25113      132546.01     -807628.76     -296.98988      0.35951216     0.056490521    29.045131      3366.1746    
      2400   4.8            341.40232      131626.76     -807630.75     -292.90573      0.35947795     0.055718976    29.024529      3365.8166    
      2410   4.82           339.23939      133817.16     -807628.16     -295.12166      0.35944359     0.056145876    29.024664      3365.4587    
      2420   4.84           343.35467      134767.08     -807625.35     -298.54064      0.35940909     0.056801777    29.022041      3365.102     
      2430   4.86           352.17147      137675.63     -807623.47     -301.54628      0.35937446     0.057379173    29.031939      3364.7408    
      2440   4.88           358.47283      137398.16     -807624.8      -301.01689      0.35933967     0.057283983    29.006296      3364.3919    
      2450   4.9            346.36618      138625.41     -807622.42     -301.63057      0.35930475     0.057406347    29.015136      3364.0389    
      2460   4.92           352.84562      135962.04     -807624.84     -300.00517      0.35926969     0.057102573    29.035283      3363.6764    
      2470   4.94           360.48258      133374.22     -807628.87     -296.93163      0.35923448     0.0565231      29.105992      3363.2811    
      2480   4.96           345.23741      132239.94     -807629.66     -293.86775      0.35919913     0.055945372    29.101727      3362.8881    
      2490   4.98           335.94606      132121.35     -807628.82     -293.35998      0.35916364     0.055854224    29.100153      3362.4963    
      2500   5              337.05776      134136.33     -807625.47     -296.76357      0.35912801     0.056507856    29.119624      3362.0959    
[...]
     98740   197.48         338.47919      135688.09     -807623.22     -9710.122       0.36236891     0.05726263     28.483308      43.422044    
     98750   197.5          342.18524      135025.77     -807626.69     -9605.1936      0.36238762     0.056640922    28.458195      43.077511    
     98760   197.52         348.4757       132959.18     -807628.99     -9555.3389      0.36240618     0.056344048    28.419965      42.732982    
     98770   197.54         346.78837      134634.07     -807625.71     -9645.1638      0.36242459     0.05687082     28.433939      42.388449    
     98780   197.56         359.02476      133063.02     -807628.75     -9600.32        0.36244287     0.056603553    28.42326       42.043916    
     98790   197.58         347.02838      136633.76     -807624.58     -9671.3869      0.362461       0.057019711    28.424264      41.699382    
     98800   197.6          356.53093      135352        -807625.43     -9688.7944      0.36247899     0.057119507    28.423863      41.354847    
     98810   197.62         350.70859      139396.28     -807620.63     -9808.5053      0.36249683     0.057822405    28.427204      41.010309    
     98820   197.64         355.53307      135955.99     -807624.47     -9707.2088      0.36251453     0.057222455    28.469155      40.665764    
     98830   197.66         353.13599      137693.15     -807624.79     -9678.9755      0.36253209     0.057053261    28.46362       40.321218    
     98840   197.68         348.62287      133547.31     -807626.89     -9589.5776      0.36254951     0.056523584    28.455859      39.976672    
     98850   197.7          360.20271      135052.32     -807626.91     -9634.7863      0.36256678     0.056787352    28.468385      39.632123    
     98860   197.72         358.00434      132318.97     -807628.39     -9575.7274      0.36258391     0.056436592    28.483569      39.28757     
     98870   197.74         356.37008      134974.21     -807626.4      -9626.8918      0.3626009      0.056735482    28.490342      38.943015    
     98880   197.76         352.88001      134332.01     -807625.69     -9634.1175      0.36261774     0.056775429    28.472745      38.598461    
     98890   197.78         360.2373       138070.28     -807622.53     -9765.3724      0.36263445     0.057546286    28.474256      38.253906    
     98900   197.8          345.46732      137373.42     -807621.5      -9731.7432      0.362651       0.057345494    28.482436      37.909348    
     98910   197.82         352.64055      137613.7      -807622.65     -9721.7224      0.36266742     0.057283852    28.50287       37.564786    
     98920   197.84         346.12196      137246.1      -807623.21     -9674.2296      0.36268369     0.05700145     28.478725      37.220226    
     98930   197.86         361.51611      135289.12     -807625.61     -9663.9225      0.36269982     0.056938187    28.464373      36.875666    
     98940   197.88         359.11014      134044.03     -807626.94     -9607.1968      0.36271581     0.056601474    28.45224       36.531107    
     98950   197.9          351.57054      133779.1      -807627.7      -9548.9158      0.36273165     0.05625565     28.44722       36.186547    
     98960   197.92         356.84111      134759.75     -807625.61     -9638.6733      0.36274735     0.056781983    28.460016      35.841984    
     98970   197.94         351.87041      135890.68     -807623.08     -9700.2707      0.36276291     0.057142406    28.457465      35.49742     
     98980   197.96         358.12918      137712.06     -807622.62     -9740.963       0.36277832     0.057379678    28.453773      35.152855    
     98990   197.98         354.81484      136964.1      -807623.59     -9698.8612      0.36279359     0.05712927     28.435955      34.808291    
     99000   198            351.1904       138492.95     -807621.44     -9751.0741      0.36280872     0.057434425    28.408997      34.463729    
     99010   198.02         357.82389      135674.43     -807623.3      -303.88034      0.3628237      0.057273598    28.544152      34.119149    
     99020   198.04         352.48199      135629.89     -807625.07     -301.38923      0.36283855     0.056801766    28.535852      33.774568    
     99030   198.06         349.95928      133834.24     -807627.52     -298.66656      0.36285324     0.056286353    28.471188      33.429994    
     99040   198.08         359.41279      134402.91     -807627.75     -299.8857       0.3628678      0.056513843    28.456702      33.085421    
     99050   198.1          346.35553      135042.34     -807624.66     -301.35552      0.36288221     0.056788577    28.502796      32.740841    
     99060   198.12         347.03736      136936.16     -807624.11     -302.12365      0.36289648     0.056931089    28.531564      32.396256    
     99070   198.14         360.57151      136264.8      -807625.86     -302.36493      0.36291061     0.056974335    28.521578      32.051671    
     99080   198.16         355.20086      138961.81     -807622.37     -305.28244      0.36292459     0.057521864    28.536437      31.707083    
     99090   198.18         365.60149      137557.33     -807623.5      -305.88742      0.36293843     0.057633657    28.558453      31.362491    
     99100   198.2          349.12786      136678.49     -807623.95     -303.33135      0.36295213     0.0571499      28.526982      31.017902    
     99110   198.22         346.84933      134579.2      -807627.35     -299.86244      0.36296568     0.056494222    28.530518      30.673311    
     99120   198.24         348.78222      133785.43     -807627.59     -300.22338      0.36297909     0.056560133    28.547936      30.328717    
     99130   198.26         339.22413      134564.53     -807624.85     -301.96121      0.36299236     0.056885449    28.547082      29.984123    
     99140   198.28         341.00067      134019.1      -807626.75     -300.57396      0.36300548     0.056622063    28.528557      29.639528    
     99150   198.3          348.09043      136089.32     -807626.6      -301.91017      0.36301846     0.056871744    28.484084      29.294938    
     99160   198.32         357.02103      135751.86     -807625.73     -304.3775       0.3630313      0.057334495    28.514927      28.950343    
     99170   198.34         339.80941      138434.58     -807620.37     -307.5367       0.36304399     0.057927557    28.516108      28.605746    
     99180   198.36         343.22662      136729.11     -807624.52     -304.12236      0.36305655     0.057282452    28.481784      28.261152    
     99190   198.38         348.67518      136137.67     -807626.81     -302.75692      0.36306895     0.057023318    28.487598      27.916556    
     99200   198.4          337.61308      134107.55     -807625.86     -302.39328      0.36308122     0.056952903    28.559228      27.571952    
     99210   198.42         335.22086      134409.74     -807626.51     -301.57363      0.36309334     0.056796635    28.533094      27.227349    
     99220   198.44         336.78156      132997.98     -807629.05     -299.36079      0.36310532     0.05637802     28.524845      26.882745    
     99230   198.46         342.58291      133946.73     -807628.89     -300.34793      0.36311715     0.056562084    28.487009      26.538144    
     99240   198.48         350.57517      135243.82     -807626.76     -303.70097      0.36312885     0.057191692    28.501979      26.19354     
     99250   198.5          338.35532      137406.07     -807623.44     -305.39921      0.3631404      0.057509669    28.533952      25.848932    
     99260   198.52         347.9028       137235.52     -807624.8      -305.29405      0.3631518      0.057488061    28.616518      25.504316    
     99270   198.54         331.87308      136965.22     -807623.68     -304.17955      0.36316306     0.05727642     28.548369      25.159704    
     99280   198.56         339.35675      137049.51     -807624.42     -304.44674      0.36317418     0.057324976    28.529091      24.815093    
     99290   198.58         338.03245      134234.61     -807626.49     -302.15422      0.36318516     0.056891591    28.508823      24.470483    
     99300   198.6          340.96006      133461.95     -807628.77     -300.131        0.36319599     0.056508961    28.501015      24.125872    
     99310   198.62         337.2603       133201.97     -807628.08     -300.18727      0.36320668     0.056517893    28.472677      23.781262    
     99320   198.64         343.77612      134962.74     -807626.28     -302.69926      0.36321723     0.056989185    28.457086      23.436653    
     99330   198.66         345.87586      136236.06     -807624.97     -304.07998      0.36322763     0.057247493    28.502115      23.092038    
     99340   198.68         357.91015      136900.11     -807625.25     -305.21644      0.36323789     0.057459824    28.569713      22.747416    
     99350   198.7          331.82326      137540.96     -807621.98     -304.59421      0.36324801     0.057341087    28.521101      22.402797    
     99360   198.72         339.97887      138106.31     -807622.16     -305.21535      0.36325798     0.057456441    28.484577      22.05818     
     99370   198.74         348.94809      135348.96     -807624.44     -303.90507      0.36326781     0.057208235    28.535169      21.713558    
     99380   198.76         347.69173      134570.25     -807626.22     -301.56659      0.3632775      0.056766518    28.524522      21.368935    
     99390   198.78         350.45484      133023.38     -807628.66     -299.12614      0.36328704     0.05630565     28.460124      21.024316    
     99400   198.8          346.94403      134456.3      -807626.06     -300.85704      0.36329644     0.056629999    28.45669       20.679696    
     99410   198.82         364.61675      134616.89     -807626.81     -302.34161      0.3633057      0.056907988    28.509925      20.33507     
     99420   198.84         353.43907      136936.1      -807623.67     -303.57434      0.36331481     0.057138584    28.496562      19.990445    
     99430   198.86         357.86908      136831.11     -807623.3      -304.36177      0.36332378     0.05728538     28.533804      19.645815    
     99440   198.88         355.31624      138554.18     -807621.4      -305.78627      0.36333261     0.057552094    28.566795      19.301182    
     99450   198.9          352.95584      137351.68     -807620.82     -305.97892      0.36334129     0.057586976    28.587253      18.956546    
     99460   198.92         357.13448      136145.01     -807624.51     -302.7868       0.36334983     0.05698486     28.5422        18.611913    
     99470   198.94         352.1537       135039.58     -807626.27     -300.28057      0.36335823     0.056511879    28.523783      18.267279    
     99480   198.96         357.50704      133315.71     -807627.67     -299.68902      0.36336648     0.05639927     28.515688      17.922645    
     99490   198.98         344.22558      135636.06     -807623.79     -301.69635      0.3633746      0.056775767    28.522811      17.578009    
     99500   199            355.59231      134449.49     -807625.65     -301.43959      0.36338256     0.056726204    28.542644      17.233371    
     99510   199.02         364.37168      136803.83     -807624.82     -9711.4967      0.36339039     0.057109752    28.487337      16.888735    
     99520   199.04         345.54176      136934.01     -807620.85     -9757.787       0.36339807     0.057380755    28.469529      16.544099    
     99530   199.06         365.87039      139073.23     -807621.5      -9826.9305      0.3634056      0.057786155    28.434572      16.199463    
     99540   199.08         359.98696      135499.33     -807624.03     -9723.9747      0.363413       0.057179572    28.43892       15.854826    
     99550   199.1          357.90721      136496.08     -807624.83     -9688.097       0.36342025     0.056967465    28.392795      15.51019     
     99560   199.12         351.32721      132429.16     -807626.41     -9615.43        0.36342736     0.056539067    28.313193      15.165556    
     99570   199.14         352.86168      135192.6      -807625.43     -9653.824       0.36343432     0.056763737    28.352854      14.820919    
     99580   199.16         340.84568      133910.21     -807625.67     -9598.1281      0.36344114     0.05643519     28.454666      14.476275    
     99590   199.18         362.59467      137220.01     -807625.63     -9696.0829      0.36344782     0.057010098    28.472954      14.131629    
     99600   199.2          352.60117      135629.11     -807623        -9745.3237      0.36345435     0.057298589    28.490019      13.786981    
     99610   199.22         361.84716      139074.37     -807622.41     -9807.2752      0.36346074     0.057661826    28.414889      13.442334    
     99620   199.24         347.18163      137070.17     -807622.9      -9733.3117      0.36346699     0.057225974    28.389907      13.097688    
     99630   199.26         350.25546      137385        -807623.39     -9733.1591      0.3634731      0.057224116    28.449871      12.753037    
     99640   199.28         354.39529      133588.97     -807626.69     -9654.7288      0.36347906     0.05676207     28.433578      12.408386    
     99650   199.3          345.27454      135023.51     -807625.23     -9664.0505      0.36348487     0.056815965    28.440508      12.063733    
     99660   199.32         344.19203      133790.04     -807627.54     -9590.9331      0.36349055     0.05638522     28.458925      11.719078    
     99670   199.34         355.75272      135294.57     -807627.34     -9652.5884      0.36349608     0.056746829    28.425336      11.374423    
     99680   199.36         352.0515       136034.93     -807624.78     -9723.7853      0.36350147     0.057164543    28.422261      11.029766    
     99690   199.38         354.65513      137198.07     -807623.97     -9765.8246      0.36350671     0.057410857    28.439773      10.685108    
     99700   199.4          353.71921      136257.3      -807625.45     -9721.0006      0.36351181     0.057146546    28.463173      10.340447    
     99710   199.42         338.02337      137984.7      -807622.73     -9742.7247      0.36351677     0.057273474    28.462291      9.9957845    
     99720   199.44         351.84221      135533        -807625.3      -9728.104       0.36352158     0.057186767    28.49405       9.6511199    
     99730   199.46         348.16475      134505.14     -807627.29     -9650.9351      0.36352625     0.0567324      28.461318      9.3064551    
     99740   199.48         345.63092      134081.73     -807628.16     -9616.3602      0.36353078     0.056528449    28.445209      8.9617895    
     99750   199.5          349.07881      133991.14     -807627.66     -9652.375       0.36353516     0.056739474    28.444598      8.6171225    
     99760   199.52         340.3561       135377.75     -807624.76     -9708.3818      0.3635394      0.057068032    28.448153      8.272454     
     99770   199.54         335.76384      135495.23     -807624.37     -9705.7226      0.3635435      0.057051758    28.385         7.927786     
     99780   199.56         339.15913      137619        -807623.79     -9741.9704      0.36354745     0.057264205    28.402776      7.5831159    
     99790   199.58         334.92888      137361.93     -807621.96     -9784.3333      0.36355126     0.057512615    28.445011      7.2384433    
     99800   199.6          349.03733      136943.88     -807624.2      -9777.6499      0.36355493     0.057472751    28.450216      6.8937692    
     99810   199.62         342.48585      135578.38     -807626.25     -9684.1603      0.36355845     0.05692267     28.448577      6.5490937    
     99820   199.64         351.59701      134121.16     -807628.41     -9656.2051      0.36356183     0.056757824    28.43102       6.2044172    
     99830   199.66         339.39981      133441.69     -807627.21     -9642.9824      0.36356507     0.056679598    28.434346      5.8597393    
     99840   199.68         339.61649      134143.84     -807626.99     -9649.8102      0.36356816     0.056719248    28.39199       5.5150608    
     99850   199.7          340.10778      134313.71     -807627.56     -9634.9515      0.36357111     0.056631453    28.37249       5.1703812    
     99860   199.72         348.14476      135347.81     -807626.44     -9705.3635      0.36357392     0.057044874    28.42835       4.825699     
     99870   199.74         348.46105      137347.95     -807624.73     -9760.5835      0.36357658     0.057369018    28.461295      4.4810149    
     99880   199.76         339.64772      137929.16     -807622.28     -9796.5037      0.3635791      0.057579744    28.460005      4.1363295    
     99890   199.78         352.18525      136830.86     -807626.14     -9725.6701      0.36358148     0.057163041    28.457477      3.7916427    
     99900   199.8          346.80046      136148.17     -807625.73     -9708.1589      0.36358371     0.057059767    28.46701       3.4469545    
     99910   199.82         342.75653      134814.44     -807625.69     -9685.8135      0.3635858      0.056928105    28.433928      3.1022654    
     99920   199.84         337.03474      134837.66     -807626.12     -9637.5277      0.36358775     0.056644003    28.393263      2.7575752    
     99930   199.86         344.76429      133892.4      -807627.82     -9608.3814      0.36358955     0.056472417    28.437226      2.4128832    
     99940   199.88         354.31241      134753.15     -807626.65     -9675.3466      0.36359121     0.05686574     28.404241      2.06819      
     99950   199.9          349.73099      136405.82     -807623.64     -9738.9285      0.36359273     0.057239197    28.442095      1.7234951    
     99960   199.92         352.25122      137066.38     -807622.91     -9762.9253      0.3635941      0.057380018    28.477717      1.3787987    
     99970   199.94         353.60645      137567.37     -807622.84     -9759.3219      0.36359533     0.057358646    28.492337      1.0341009    
     99980   199.96         345.45743      137281.19     -807621.05     -9771.4258      0.36359641     0.057429612    28.492547      0.68940185   
     99990   199.98         358.13599      137235.33     -807624.03     -9723.657       0.36359736     0.057148713    28.445209      0.34470161   
    100000   200            352.50433      134486.71     -807625.78     -9634.6359      0.36359816     0.056625386    28.447373      0            
Loop time of 3447.02 on 32 procs for 100000 steps with 1080 atoms

Performance: 5.013 ns/day, 4.788 hours/ns, 29.011 timesteps/s, 31.331 katom-step/s
62.4% CPU use with 32 MPI tasks x 1 OpenMP threads

MPI task timing breakdown:
Section |  min time  |  avg time  |  max time  |%varavg| %total
---------------------------------------------------------------
Pair    | 2515.8     | 2796.7     | 3122.8     | 243.5 | 81.13
Neigh   | 0.0016558  | 0.0034518  | 0.0069417  |   2.7 |  0.00
Comm    | 250.18     | 575.81     | 856.41     | 536.2 | 16.70
Output  | 2.386      | 2.3926     | 2.402      |   0.2 |  0.07
Modify  | 65.258     | 65.87      | 66.378     |   4.1 |  1.91
Other   |            | 6.294      |            |       |  0.18

Nlocal:          33.75 ave          41 max          25 min
Histogram: 1 2 0 8 3 4 8 1 1 4
Nghost:        1033.59 ave        1055 max        1009 min
Histogram: 1 4 2 4 0 7 6 1 5 2
Neighs:              0 ave           0 max           0 min
Histogram: 32 0 0 0 0 0 0 0 0 0
FullNghs:      5374.56 ave        6527 max        3952 min
Histogram: 1 2 1 7 3 4 6 3 1 4

Total # of neighbors = 171986
Ave neighs/atom = 159.2463
Neighbor list builds = 4
Dangerous builds = 0

Total wall time: 1:01:03
