
units		metal
atom_style	atomic

read_data ${STRUCTURE}.data
read_data BaTiO3-sc333.data
Reading data file ...
  orthogonal box = (0 0 0) to (11.898253 11.898253 12.912076)
  2 by 4 by 4 MPI processor grid
  reading atoms ...
  135 atoms
  read_data CPU = 0.005 seconds
replicate $L $L $L
replicate 2 $L $L
replicate 2 2 $L
replicate 2 2 2
Replication is creating a 2x2x2 = 8 times larger system...
  orthogonal box = (0 0 0) to (23.796507 23.796507 25.824152)
  2 by 4 by 4 MPI processor grid
  1080 atoms
  replicate CPU = 0.003 seconds

pair_style allegro
pair_coeff	* * ${MODEL}.pth Ba Ti O
pair_coeff	* * BaTiO3-E0.pth Ba Ti O
mass 1 137.3
mass 2 47.9
mass 3 15.9994

timestep 0.002
compute polarization all allegro polarization 3
compute allegro will evaluate the quantity polarization of length 3 (src/compute_allegro.cpp:53)
compute polarizability all allegro polarizability 9
compute allegro will evaluate the quantity polarizability of length 9 (src/compute_allegro.cpp:53)

thermo_style custom pe fmax fnorm spcpu cpuremain

variable efield equal 1e-2*36.36
fix born all addbornforce 0.0 0.0 ${efield}
fix born all addbornforce 0.0 0.0 0.3636

thermo 10
min_style fire
#minimize 0.0 1e-6 100 100
velocity all create ${TEMP} ${SEED} dist gaussian rot yes mom yes
velocity all create 330 ${SEED} dist gaussian rot yes mom yes
velocity all create 330 25647 dist gaussian rot yes mom yes
fix nvt all nvt temp ${TEMP} ${TEMP} $(100*dt)
fix nvt all nvt temp 330 ${TEMP} $(100*dt)
fix nvt all nvt temp 330 330 $(100*dt)
fix nvt all nvt temp 330 330 0.2000000000000000111
run 5000
Neighbor list info ...
  update: every = 1 steps, delay = 0 steps, check = yes
  max neighbors/atom: 2000, page size: 100000
  master list distance cutoff = 8
  ghost atom cutoff = 8
  binsize = 8, bins = 3 3 4
  1 neighbor lists, perpetual/occasional/extra = 1 0 0
  (1) pair allegro/kk, perpetual
      attributes: full, newton on, kokkos_device
      pair build: full/bin/kk/device
      stencil: full/bin/3d
      bin: kk/device
Per MPI rank memory allocation (min/avg/max) = 3.516 | 3.516 | 3.516 Mbytes
    PotEng          Fmax          Fnorm          S/CPU         CPULeft    
-807708.29      1.5954052      37.0432        0              0            
-807643.52      3.4485581      45.577122      2.2035925      2264.485     
-807633.75      2.4365428      35.456085      25.82472       1226.3927    
-807607.27      2.9659849      36.409404      25.858547      880.01988    
-807602.52      4.5386565      50.096532      25.795181      706.75795    
-807566.68      3.7256837      40.378305      25.761918      602.6952     
-807602.97      3.0522242      38.74497       25.862896      533.0659     
-807647.21      3.6615705      33.396269      25.820347      483.26509    
-807683.22      2.743202       34.025604      25.787325      445.84816    
-807665.3       3.3608329      34.596992      25.785073      416.66177    
-807651.27      3.4864006      34.873971      25.867741      393.17437    
-807660.57      3.2005376      27.428661      25.833256      373.91008    
-807624.76      3.2480856      31.849671      25.816124      357.80239    
-807582.82      3.4265582      40.695081      25.813271      344.11485    
-807568.4       3.649064       39.205718      25.89703       332.28383    
-807633.65      3.549645       34.273496      25.852972      322.00007    
-807650.83      3.8417773      33.203641      25.86533       312.94782    
-807662.73      3.0475904      35.224354      25.855554      304.91922    
-807644.87      4.1695091      45.819435      25.88437       297.72819    
-807679.51      2.9189492      37.038359      25.81794       291.2786     
-807639.27      3.6207503      39.375779      25.847283      285.42469    
-807613.45      3.6685881      39.264922      25.832044      280.09665    
-807561.06      4.046461       44.851415      25.875529      275.20366    
-807605.06      4.0104367      49.323676      25.791004      270.72881    
-807612.21      3.9292485      38.727018      25.80492       266.59039    
-807639.88      2.8991919      35.57432       25.878265      262.73118    
-807643.07      4.3509359      44.413793      25.86077       259.14387    
-807680.74      3.1766133      38.210679      25.816492      255.80527    
-807661.37      3.2000135      34.578989      25.737439      252.69752    
-807635.34      2.8245992      32.253496      25.872439      249.74439    
-807606.7       3.2504471      33.639949      25.879552      246.96069    
-807600.73      4.1685345      42.720717      25.829597      244.34296    
-807594.14      3.4349108      37.773934      25.743196      241.88365    
-807606.26      2.7786387      34.177282      25.895606      239.5175     
-807644.25      3.0391224      30.425219      25.881554      237.27069    
-807671.85      2.3573881      32.839365      25.8516        235.13612    
-807675.08      2.3452703      33.410301      25.752335      233.11788    
-807642.57      4.0915431      39.093102      25.861097      231.16731    
-807647.96      2.6248548      31.684563      25.884675      229.29476    
-807618.48      3.0724807      34.43767       25.860201      227.50276    
-807596.48      3.5575751      44.434953      25.804507      225.79061    
-807566.17      3.8276275      42.103325      25.901649      224.12682    
-807623.12      3.8400093      36.642679      25.865353      222.52977    
-807647.04      3.8122056      36.996877      25.861387      220.98965    
-807669.85      3.2488346      36.526243      25.807144      219.51038    
-807640.4       5.3801061      48.133547      25.862592      218.07124    
-807666.37      3.4089429      36.353082      25.896135      216.67291    
-807641.46      4.9563326      38.388314      25.797914      215.33183    
-807620.59      3.6946171      39.255165      25.841569      214.0243     
-807560.92      4.5012744      44.632687      25.879168      212.74918    
-807598.67      4.0119671      44.449539      25.848063      211.51379    
-807621.24      4.0678873      36.000352      25.785936      210.31988    
-807652.33      2.8318967      33.314748      25.810042      209.15385    
-807640.95      4.4277674      41.642368      25.864769      208.01029    
-807671.38      2.6628745      34.947562      25.851749      206.89637    
-807665.2       3.0299215      33.603979      25.786048      205.81687    
-807641.57      3.3089633      30.822397      25.836813      204.75603    
-807599.24      2.5835629      35.334671      25.872944      203.71463    
-807594.66      3.7819667      38.608176      25.83031       202.70068    
-807603.16      4.4149506      40.122332      25.777144      201.71394    
-807617.21      3.1884263      33.203049      25.853248      200.73878    
-807634.97      3.4931619      33.47998       25.857511      199.78246    
-807661.67      3.0619802      35.053427      25.852114      198.84508    
-807675.13      2.7940077      36.437212      25.787803      197.93187    
-807645.11      4.0343737      39.273966      25.799299      197.03391    
-807632.4       4.3406626      34.982286      25.856791      196.14587    
-807610.78      4.1414926      36.752276      25.864461      195.27228    
-807601         4.2996228      46.199243      25.780903      194.42132    
-807577.14      3.9574594      41.587971      25.795455      193.58259    
-807612.99      3.3695194      37.331236      25.838286      192.75292    
-807643.34      4.6481398      38.36183       25.857791      191.93411    
-807671.5       2.8759208      37.452063      25.800954      191.13261    
-807647.21      5.101563       42.855961      25.825405      190.34043    
-807650.26      3.2408768      36.792938      25.878855      189.55467    
-807639.91      4.7238195      36.43764       25.814863      188.78521    
-807621.56      3.548026       38.511378      25.771887      188.0296     
-807572.98      4.0597122      41.060869      25.813299      187.2802     
-807586.2       3.4072796      40.891422      25.859827      186.53636    
-807625.79      3.1042625      32.742183      25.829709      185.80413    
-807656.92      2.4407418      32.057275      25.853435      185.07874    
-807648.54      4.1911702      36.783658      25.815999      184.36475    
-807655.7       3.1649354      35.704796      25.715681      183.66665    
-807663.26      2.7752293      33.372627      25.778821      182.97124    
-807643.21      2.7659718      32.211859      25.792472      182.2822     
-807600.21      2.7899506      36.661882      25.869199      181.59464    
-807581.41      3.2368175      40.509017      25.899058      180.91199    
-807603.17      3.7754975      41.142142      25.763874      180.24599    
-807623.61      3.0665808      34.897214      25.799043      179.58386    
-807638.31      3.9048788      34.526832      25.890043      178.9216     
-807649.11      4.4463638      37.90525       25.882124      178.26608    
-807671.36      2.6986628      36.415105      25.824631      177.62047    
-807650.25      3.9547814      36.429953      25.782542      176.98337    
-807629.11      3.0134323      33.780828      25.899728      176.34391    
-807603.01      3.372201       36.453797      25.902221      175.70973    
-807602.72      3.9880535      43.788996      25.854172      175.08393    
-807592.76      3.4679227      38.795404      25.832282      174.46457    
-807615.27      4.0742401      35.527086      25.891705      173.8463     
-807638.18      4.2513551      35.906663      25.880604      173.2335     
-807668.41      3.6277385      35.662443      25.822317      172.6289     
-807657.41      3.8361209      36.730438      25.798416      172.03015    
-807644.69      3.2576307      35.208368      25.86433       171.43166    
-807633.28      3.3177377      34.071732      25.870214      170.83703    
-807620.97      3.5498838      36.455616      25.835708      170.24848    
-807590.16      3.2999363      38.885469      25.814118      169.66511    
-807586.53      2.8228045      39.157029      25.79342       169.08668    
-807622.82      3.3083392      33.652955      25.787901      168.5122     
-807654.47      2.8392588      33.402019      25.802005      167.94045    
-807658.75      2.7504772      34.885389      25.790576      167.37278    
-807649.25      3.8165886      37.632976      25.837889      166.80585    
-807654.74      2.694969       33.719507      25.794131      166.24459    
-807640.6       3.9771098      33.112317      25.804995      165.68591    
-807608.92      3.197321       36.048554      25.848744      165.12801    
-807579.73      3.6098604      39.266236      25.845216      164.57334    
-807603.12      4.017012       37.938034      25.793541      164.0243     
-807631.92      3.36221        33.101653      25.737703      163.48094    
-807647.45      2.8283895      33.183795      25.799327      162.93717    
-807644.99      4.81698        39.006138      25.852034      162.39347    
-807663.8       3.0260293      35.387317      25.838673      161.85311    
-807653.45      3.6598792      35.516559      25.813979      161.31654    
-807630.83      3.6315178      34.396913      25.856969      160.78042    
-807595.81      3.3330338      38.051315      25.818587      160.24861    
-807597.74      3.4003102      41.290826      25.845534      159.71793    
-807605.31      3.7030082      37.719363      25.762882      159.19344    
-807625.36      3.1489321      33.523625      25.77971       158.6704     
-807635.78      3.3440608      36.08513       25.858589      158.14595    
-807662.79      3.3750363      34.707347      25.866732      157.62333    
-807659.06      3.052501       35.962567      25.808646      157.10546    
-807644.69      3.4522378      34.535187      25.800354      156.59001    
-807622.2       3.5826104      34.738188      25.860621      156.07393    
-807613.23      3.6878619      37.376667      25.813015      155.56191    
-807597.34      3.8737514      40.019981      25.747788      155.0546     
-807596.86      3.3173894      38.066056      25.720513      154.55026    
-807619.51      3.9194104      34.686802      25.73397       154.04711    
-807651.24      3.3686814      34.632899      25.758108      153.54468    
-807660.59      3.9238209      34.970883      25.753308      153.04415    
-807647.85      4.1339033      37.378866      25.782199      152.5441     
-807644.13      3.836101       34.120623      25.832603      152.04368    
-807634.47      3.0998179      33.053979      25.827459      151.54512    
-807611.21      3.1940614      36.921769      25.774406      151.05026    
-807582.7       3.3426284      39.622321      25.809674      150.55556    
-807600.14      3.2705734      37.037351      25.828689      150.06166    
-807631.55      3.3243235      33.949824      25.806097      149.57014    
-807650.9       2.9919124      34.41338       25.732226      149.08289    
-807646.79      3.602458       37.526455      25.775631      148.59538    
-807653.22      3.7124165      36.263885      25.807302      148.10808    
-807649.5       2.9058679      34.432427      25.802344      147.62234    
-807630.26      3.0957139      34.889226      25.794753      147.13822    
-807594.82      3.6428637      37.590288      25.85723       146.65316    
-807591.13      3.4678837      39.842656      25.880721      146.1686     
-807608.14      3.809041       37.531013      25.73132       145.69064    
-807633.64      2.7348637      33.564929      25.759461      145.21288    
-807636.77      3.9475525      36.439414      25.83629       144.73363    
-807653.79      3.0481434      35.191469      25.733854      144.25913    
-807656.77      3.0319265      35.462583      25.727736      143.78596    
-807646.21      2.9712319      33.992135      25.792258      143.3117     
-807616.85      3.905822       35.403591      25.862457      142.83622    
-807603.92      2.8511134      36.486591      25.856749      142.36206    
-807599.17      3.400622       38.867478      25.770862      141.89184    
-807610.72      3.6488005      36.534762      25.785207      141.42218    
-807620.88      3.3527301      35.044821      25.780035      140.95373    
-807646.46      3.3005814      34.290973      25.803707      140.48552    
-807658.42      3.167702       35.960847      25.80539       140.01826    
-807651.61      3.0170515      35.919308      25.800726      139.55214    
-807636.23      3.3422328      34.687627      25.834505      139.08593    
-807626.7       2.8421301      33.457564      25.874014      138.61947    
-807609.74      3.2944695      38.382377      25.89813       138.15325    
-807595.47      2.6382291      37.540374      25.823271      137.69025    
-807604.99      2.8399798      35.939323      25.860976      137.22703    
-807630.49      3.4171131      32.826906      25.807455      136.76631    
-807655.01      2.6838871      33.56119       25.820966      136.30605    
-807649.94      3.4102639      35.395391      25.804572      135.84713    
-807648         4.2213019      34.72996       25.836472      135.38813    
-807642.35      3.6979653      33.626298      25.828111      134.9302     
-807630.16      3.2742586      33.818744      25.765         134.47488    
-807598.25      3.2953458      37.196665      25.763614      134.02038    
-807594.55      2.847877       38.430459      25.837689      133.56456    
-807610.74      3.3520683      36.326211      25.818997      133.11005    
-807641.21      2.7272606      33.108631      25.761403      132.65787    
-807643.72      3.9365618      35.744086      25.757088      132.20653    
-807652.06      2.6832246      35.397549      25.815598      131.75432    
-807650.83      3.6489885      35.610076      25.838594      131.30221    
-807644.6       3.5400769      33.938477      25.784         130.85227    
-807616.34      3.0099773      35.354687      25.856105      130.40112    
-807599.27      2.9270839      37.277359      25.851185      129.9508     
-807598.65      3.1474501      38.278776      25.769943      129.50327    
-807621.32      3.4885461      35.101606      25.712531      129.05785    
-807630.38      3.0693819      34.071083      25.748677      128.61212    
-807644.82      3.2510881      35.366477      25.776958      128.16629    
-807655.93      3.234865       34.846381      25.798211      127.72055    
-807650.85      2.654823       35.106066      25.818172      127.27492    
-807635.1       3.4948498      34.390254      25.772416      126.83104    
-807613.7       3.1391146      36.13485       25.790836      126.38729    
-807607.63      2.9189849      37.076961      25.841177      125.94291    
-807600.43      3.75993        38.657814      25.834673      125.49928    
-807615         3.2539177      34.907475      25.813173      125.05675    
-807631.07      3.3944245      34.090406      25.799239      124.6151     
-807652.55      3.1080805      34.482703      25.812392      124.1737     
-807650.95      3.4987691      35.756128      25.810633      123.7329     
-807644.18      2.9096355      35.544961      25.852263      123.29167    
-807631.95      3.8492085      35.009667      25.847792      122.8511     
-807623.54      3.3198887      35.898188      25.836948      122.4113     
-807600.56      4.021886       38.653048      25.824757      121.97231    
-807597.58      3.2551438      39.208645      25.799689      121.53438    
-807613.7       4.2038419      36.746933      25.803869      121.09685    
-807639.73      3.4547291      34.455455      25.750182      120.66099    
-807642.75      3.8535772      37.53773       25.754151      120.2255     
-807648.16      3.103596       36.745706      25.763109      119.79028    
-807642.91      3.4933953      36.399431      25.797124      119.35479    
-807638.4       2.8943684      34.757219      25.79552       118.9198     
-807615.59      3.3809364      36.296932      25.814891      118.48485    
-807597.28      3.480207       38.393944      25.781781      118.05104    
-807600.2       2.9095304      37.799971      25.81922       117.6169     
-807619.92      3.2915039      36.775287      25.820971      117.18316    
-807634.51      2.9058268      34.844509      25.825265      116.74977    
-807644.42      3.6212362      35.266529      25.843267      116.31646    
-807649.01      3.7955253      36.298536      25.791998      115.88459    
-807648.37      3.3558187      35.444743      25.778137      115.45341    
-807633.22      2.7482221      35.192967      25.776462      115.02266    
-807609.67      2.9678097      36.14206       25.810033      114.59165    
-807601.79      3.4680238      38.444422      25.829993      114.16065    
-807601.96      3.0636454      38.232155      25.788323      113.73085    
-807621.04      3.2549787      35.010882      25.81067       113.301      
-807631.78      3.9628195      35.680592      25.864423      112.87053    
-807648.26      3.8504617      35.119944      25.839125      112.44092    
-807651.53      4.6064449      35.262358      25.82826       112.01189    
-807644.27      2.7479762      34.91371       25.833768      111.58313    
-807627.54      3.4230665      34.384654      25.81382       111.15511    
-807616.84      2.7742189      35.740253      25.843411      110.72691    
-807604.17      3.1554702      36.924705      25.859701      110.29878    
-807603.77      3.1110085      37.635325      25.762919      109.87273    
-807618.61      3.592876       35.185174      25.80693       109.44623    
-807640.53      3.5453504      34.398047      25.806334      109.02008    
-807648.52      4.2900197      35.538981      25.757088      108.59513    
-807648.32      3.3739861      35.63308       25.70115       108.17145    
-807641.16      3.4527336      35.089134      25.758979      107.74708    
-807634.32      2.8216538      33.401812      25.796268      107.32238    
-807616.38      3.1640158      35.824587      25.817483      106.89764    
-807603.45      2.7837764      36.084597      25.81497       106.47326    
-807604.37      3.4229252      36.294619      25.826457      106.04899    
-807625.73      2.7801116      33.529007      25.851343      105.62463    
-807641.16      2.7294793      34.023629      25.854396      105.20054    
-807645.17      2.9783594      35.142261      25.807465      104.77751    
-807646.81      3.8403075      35.553238      25.794884      104.35498    
-807644.06      3.1764113      34.858403      25.81989       103.93233    
-807631.59      3.3197377      34.36472       25.858921      103.50936    
-807610.42      3.5123002      36.110399      25.862779      103.08663    
-807603.25      3.2930314      37.362765      25.859617      102.66424    
-807608.56      3.2097271      36.889842      25.802628      102.24301    
-807626.33      3.254819       34.47726       25.838337      101.82151    
-807637.98      3.1857379      33.724532      25.849262      101.40013    
-807648.09      3.5696358      34.186412      25.835261      100.97923    
-807649.15      3.3379305      34.679282      25.763695      100.55966    
-807642.84      2.9077036      33.658108      25.76198       100.14037    
-807626.93      3.2640089      32.957027      25.821402      99.720454    
-807610.95      2.7246308      35.593054      25.851794      99.300354    
-807603.91      2.5698427      36.945926      25.830863      98.880816    
-807610.43      3.2762095      36.854547      25.789794      98.462119    
-807625.39      3.2764419      34.963597      25.822105      98.043203    
-807638.65      3.9670392      35.362771      25.816462      97.624613    
-807647.97      3.4979983      36.036742      25.804923      97.206425    
-807648.22      3.5787317      36.359115      25.815005      96.788333    
-807638.27      3.9843789      35.721033      25.812794      96.370507    
-807624         3.6405824      35.289159      25.773133      95.953455    
-807610.18      3.6847362      37.090771      25.752028      95.53691     
-807603.71      4.0855637      37.573607      25.801022      95.119919    
-807608.57      3.0828806      36.729462      25.831007      94.702752    
-807627.65      3.2049006      34.489103      25.798697      94.286237    
-807641.32      3.2300986      35.232685      25.799241      93.869932    
-807646.38      3.1215952      36.213468      25.802542      93.453797    
-807643.93      3.7225402      36.061584      25.82789       93.037549    
-807637.6       2.9514728      34.643364      25.856878      92.621146    
-807623.69      3.3708339      35.107164      25.834745      92.205242    
-807609.34      3.5026003      35.688291      25.836339      91.78953     
-807600.38      3.7961417      38.152128      25.847188      91.373893    
-807612.94      3.4810486      36.001191      25.789167      90.959183    
-807630.13      3.3951034      34.547675      25.793608      90.544615    
-807640.53      3.6936894      35.649663      25.800826      90.130154    
-807646.35      3.1836539      35.630152      25.799376      89.715904    
-807643.42      3.9131772      36.427227      25.781003      89.302067    
-807637.25      3.0065944      33.988223      25.791815      88.888286    
-807621.1       3.6494633      35.392208      25.784351      88.47478     
-807606.43      3.5299474      37.521435      25.770646      88.061618    
-807604.48      3.2960769      38.384716      25.829157      87.647955    
-807616.8       3.1841387      35.690932      25.798553      87.23483     
-807630.85      3.3370768      34.741604      25.82136       86.821625    
-807642.39      3.9806256      34.865131      25.821173      86.408604    
-807648.15      4.7289813      35.45623       25.86601       85.995261    
-807644.7       3.405653       34.73757       25.843787      85.58235     
-807635.66      3.2415507      32.83312       25.847314      85.169582    
-807620.46      2.8438732      33.815041      25.829553      84.757186    
-807608.92      2.987316       36.315006      25.832461      84.344933    
-807608.74      2.9905228      36.500447      25.793143      83.933277    
-807618.8       3.2206558      34.686365      25.791722      83.5218      
-807632.3       3.118627       34.400021      25.793901      83.110462    
-807646.06      2.4903173      32.720546      25.817793      82.699033    
-807647.45      3.0979293      34.75897       25.78325       82.288129    
-807643.8       2.823636       33.948835      25.818333      81.877017    
-807633.66      3.2264341      33.648746      25.785094      81.466407    
-807619.41      3.1911919      34.794866      25.77723       81.056029    
-807609.5       3.5151745      36.284513      25.806518      80.645506    
-807608.24      3.3756778      36.63233       25.772808      80.235474    
-807619.46      4.351371       36.059619      25.80576       79.825261    
-807635.12      3.5604749      34.646953      25.867641      79.414591    
-807645.78      3.6319884      34.873862      25.817612      79.004566    
-807645.33      3.2362584      35.360504      25.787332      78.594984    
-807641.67      3.5975932      34.73425       25.832303      78.185114    
-807631.67      3.1681105      34.165612      25.806081      77.775642    
-807616.85      3.9867572      34.818222      25.788939      77.366474    
-807606.37      2.7727467      36.187885      25.824545      76.957112    
-807608.5       2.8905672      36.039651      25.825188      76.547888    
-807623.66      2.6474904      34.521636      25.845602      76.138618    
-807636.33      2.8219785      33.679812      25.839636      75.729546    
-807643.96      3.2126273      35.152107      25.818752      75.320804    
-807646.18      2.8528458      34.960639      25.822189      74.912169    
-807639.43      3.832495       34.992856      25.807081      74.503804    
-807629.71      3.7278192      33.763595      25.787941      74.09574     
-807614.62      3.1383686      35.123533      25.785335      73.687827    
-807605.67      2.9538436      36.245204      25.807272      73.279851    
-807610.08      3.3919831      35.997398      25.808909      72.87199     
-807624.61      2.8665003      34.227202      25.856593      72.463851    
-807635.82      2.5902856      34.081454      25.84527       72.055941    
-807642.69      3.9947325      35.431735      25.835696      71.648242    
-807644.03      2.8867681      35.059602      25.836698      71.240663    
-807638.11      3.6078044      35.132745      25.828761      70.833276    
-807627.11      3.0440231      34.58857       25.784467      70.426375    
-807613.38      4.0041537      36.264063      25.797837      70.019484    
-807607.11      3.6105717      37.181647      25.765791      69.612968    
-807611.37      3.1179634      36.433779      25.749906      69.206691    
-807622.6       3.6479889      35.63105       25.735961      68.800633    
-807638.57      3.5215009      34.55861       25.787211      68.394281    
-807643.83      2.9865909      35.333461      25.805718      67.987898    
-807643.42      2.8613996      34.792215      25.80643       67.581624    
-807636.12      3.6691498      35.282646      25.8099        67.175436    
-807628.22      3.318675       33.752763      25.82346       66.769259    
-807613.13      2.9646395      36.435272      25.850198      66.362996    
-807608.25      3.2770504      37.334308      25.790695      65.957288    
-807613.2       3.1696256      35.810386      25.805211      65.551581    
-807627.94      2.78871        33.855229      25.821672      65.145863    
-807639.19      3.6175932      34.40878       25.852205      64.740034    
-807643.54      3.4469008      34.876665      25.851416      64.334324    
-807643.64      4.0014235      34.437951      25.81453       63.928984    
-807636.74      2.8821721      34.116381      25.821756      63.523699    
-807626.51      3.2097663      33.521064      25.846917      63.118346    
-807613.97      2.6663465      35.196584      25.857606      62.713027    
-807610.36      3.1501294      35.536346      25.884977      62.30763     
-807616.27      2.6741694      35.402587      25.86622       61.90247     
-807630.8       2.8082565      33.320042      25.818827      61.497733    
-807639.23      3.1300984      34.509415      25.847473      61.092907    
-807645.59      2.9030648      34.254143      25.866954      60.688057    
-807644.17      3.2930074      35.641454      25.909863      60.283035    
-807637.13      4.0338793      34.26396       26.003792      59.877524    
-807625.9       3.2692383      33.827046      26.040761      59.471901    
-807613.36      3.3515976      35.622318      26.114097      59.065947    
-807611.29      3.141075       35.5442        26.036097      58.660601    
-807616.47      2.6965657      35.02534       26.091013      58.255042    
-807629.25      3.3576949      33.717285      26.015192      57.850065    
-807641.98      3.4264047      33.652848      26.031397      57.445107    
-807644.7       3.9471675      34.738903      26.015646      57.040358    
-807642.25      3.7467031      34.730838      25.96591       56.636015    
-807634.82      3.2037704      34.532454      25.94453       56.231904    
-807623.32      3.1144264      34.239892      25.938848      55.82793     
-807613.68      2.9836683      35.389577      25.990919      55.42376     
-807609.15      2.9747111      36.158871      25.98012       55.019759    
-807618.6       3.2389305      35.281484      25.969305      54.615923    
-807631.62      3.303187       34.225165      25.945818      54.212321    
-807641.48      3.3705679      34.730736      25.979931      53.808631    
-807642.66      3.1961617      35.242459      25.955202      53.405178    
-807640.61      3.6861157      35.464151      25.990589      53.001634    
-807631.44      2.827322       35.047985      26.028765      52.597989    
-807622.3       3.4627408      35.041479      26.033224      52.194427    
-807610.74      3.1796185      36.143443      26.030729      51.790983    
-807611.06      3.1608323      36.480882      25.989594      51.387854    
-807619.96      3.4384394      35.757983      26.018554      50.984676    
-807632.17      3.5875598      34.698404      26.024697      50.581569    
-807639.66      2.9815589      34.863555      25.996554      50.178702    
-807640.66      3.2299711      36.087399      25.983906      49.775995    
-807639.26      3.0927634      35.211217      25.932538      49.373634    
-807630.12      3.4490926      35.635498      25.991136      48.971079    
-807620.04      3.2188326      35.338232      26.059269      48.568293    
-807610.35      3.6335822      36.198251      26.030687      48.165742    
-807612.03      2.7746967      36.798706      26.024654      47.763316    
-807621.9       3.083348       35.727331      26.029669      47.360963    
-807633.11      4.8514337      35.506943      26.063941      46.958548    
-807639.16      2.7875306      35.550218      26.024158      46.55641     
-807643.02      3.5368463      35.393513      25.90078       46.154919    
-807637.7       3.1150306      35.228913      25.892035      45.753546    
-807628.67      3.2268311      35.32693       25.969301      45.351913    
-807618.84      3.0039132      35.230604      25.993968      44.950259    
-807609.85      2.8911221      36.762213      25.998848      44.548671    
-807613.89      2.9697226      36.453536      25.987311      44.147219    
-807622.68      3.1617692      35.879044      26.016776      43.745729    
-807634.87      3.3696202      34.863634      26.08385       43.344052    
-807643.1       2.9335837      34.850797      26.017745      42.942736    
-807642.11      3.197461       35.222963      25.985023      42.541638    
-807637.29      2.7992954      34.506334      25.96413       42.140706    
-807626.07      2.8540866      35.057709      26.068184      41.739446    
-807617.77      3.3780573      35.511355      26.027422      41.338432    
-807611.71      3.11407        36.19193       26.046858      40.937429    
-807613.07      3.7517892      35.806802      25.990514      40.536724    
-807626         2.8175793      33.839585      26.001553      40.136059    
-807636.25      2.9452473      34.218945      25.984957      39.735535    
-807641.36      2.9322665      34.469264      25.958208      39.335187    
-807638.2       3.3811821      35.353983      25.971048      38.934868    
-807637.37      3.2322212      33.846693      25.946378      38.534713    
-807627.07      2.9126057      34.271899      26.00663       38.134419    
-807616.27      3.3433823      35.720412      25.987763      37.734268    
-807612.63      2.8215559      35.578737      25.985726      37.3342      
-807619.21      2.8661362      34.187102      26.026537      36.934068    
-807628.43      2.6865385      34.253444      25.954072      36.534257    
-807636.79      2.8026956      33.603853      25.931655      36.134591    
-807639.42      2.6443182      34.436955      26.0373        35.73465     
-807640.38      3.993849       34.512409      25.980879      35.334966    
-807635.63      3.4746235      33.890168      26.017353      34.935239    
-807625.05      2.899723       34.813471      26.114516      34.535286    
-807616.87      3.2759707      35.222266      26.074336      34.135537    
-807615.53      3.0527129      34.543631      26.032514      33.735992    
-807621.13      3.4675583      35.315518      25.966709      33.336719    
-807629.21      3.4717177      34.295604      25.993711      32.937433    
-807636.89      3.3155994      34.887821      25.9863        32.538239    
-807642.35      4.0913102      34.837478      25.981886      32.139126    
-807640.95      3.1259757      34.989932      25.965875      31.740126    
-807633.94      3.1137257      34.301219      25.96426       31.341196    
-807624.59      2.892816       34.527323      26.035451      30.942137    
-807619.14      3.564585       34.817907      26.066526      30.543066    
-807615.61      3.5393151      35.355787      26.023309      30.144181    
-807619.65      3.3714821      35.020711      26.052046      29.745291    
-807630.7       2.574543       34.01515       25.991234      29.346627    
-807637.96      2.9305634      35.029825      25.96289       28.9481      
-807642.73      3.1286194      34.598591      25.984654      28.549582    
-807639.38      3.0914708      34.118891      26.010214      28.151064    
-807633.04      2.8096884      34.141947      26.065975      27.752478    
-807624.48      2.6812409      33.941625      26.047226      27.354006    
-807616.7       2.8226257      34.709142      25.949738      26.955827    
-807613.68      3.1679971      35.658093      25.961261      26.557682    
-807619.97      3.1884826      35.00011       25.920354      26.159689    
-807631.59      2.9154642      34.114577      25.990993      25.761595    
-807636.94      4.7313093      34.832501      25.957228      25.363636    
-807640.57      3.2886777      34.372168      25.977412      24.965692    
-807636.88      4.0432163      34.951022      26.017682      24.567723    
-807634.21      2.762433       34.442716      26.06664       24.169716    
-807620.84      4.0974286      35.308108      26.062706      23.771781    
-807615.48      2.9374407      34.913133      26.102408      23.373834    
-807613.65      3.2362302      35.919997      26.054487      22.976046    
-807623.83      3.2163578      35.765311      26.063052      22.578305    
-807628         2.6643267      35.135257      26.270812      22.180244    
-807637.98      3.5610233      34.359833      26.282878      21.78224     
-807637.73      2.9652864      35.258863      26.2583        21.384358    
-807639.47      2.9367519      34.320376      26.228271      20.986604    
-807627.7       3.093636       35.242281      26.251339      20.588884    
-807619.08      2.9264154      35.030442      26.26382       20.191219    
-807614.98      2.9658198      36.001146      26.28932       19.793588    
-807616.62      3.5416624      36.454361      26.280977      19.396047    
-807624.1       3.3490893      34.395648      26.263083      18.998608    
-807629.61      2.9978943      35.63585       26.258098      18.601251    
-807638.97      3.024382       35.027553      26.226523      18.204012    
-807638.55      3.2263981      36.295454      26.220423      17.806853    
-807636.82      3.7428523      34.957354      26.248476      17.409724    
-807625.26      3.7577811      35.716675      26.249058      17.012664    
-807619.77      3.1751645      36.323028      26.239658      16.615687    
-807614.2       2.8267009      36.894826      26.26384       16.218748    
-807617.11      3.0900713      36.02033       26.253067      15.821893    
-807622.62      2.4586885      34.85421       26.257708      15.425102    
-807633.96      2.6835582      34.764752      26.226864      15.028416    
-807639.75      3.0278202      34.556559      26.245974      14.631775    
-807639.09      2.8531562      34.984288      26.257414      14.235188    
-807633         3.4573674      34.970034      26.282714      13.838641    
-807627.52      4.0540507      35.532953      26.302857      13.442142    
-807619.46      3.5340732      36.077948      26.279405      13.045737    
-807614.18      3.6085398      37.083534      26.245276      12.649434    
-807614.38      3.3916289      36.526357      26.238442      12.253202    
-807629.13      2.8948549      34.100871      26.264013      11.857011    
-807632.69      3.074866       35.527976      26.256042      11.460893    
-807639.42      3.0790504      34.654596      26.238168      11.064854    
-807636.46      3.5816219      35.132539      26.25466       10.668865    
-807635.64      2.7990999      34.411178      26.232759      10.272957    
-807627.73      3.425073       35.00126       26.230246      9.8771134    
-807618.41      2.9525301      35.590093      26.248687      9.4813172    
-807614.94      3.1857819      35.706339      26.250218      9.0855822    
-807622.17      2.6343476      34.477641      26.238571      8.6899168    
-807630.47      3.6468758      34.691454      26.237889      8.2943126    
-807632.13      3.0856646      34.560313      26.243857      7.8987651    
-807638.31      3.8204549      34.750882      26.277712      7.5032585    
-807640.74      3.1685303      34.644614      26.252966      7.1078274    
-807635.28      5.0522159      34.506737      26.270133      6.7124476    
-807623.88      3.7629955      35.214296      26.264186      6.3171315    
-807618.95      4.1508182      34.578867      26.263748      5.9218757    
-807618.38      3.2173335      35.727401      26.262433      5.5266802    
-807623.55      3.0609363      35.038181      26.274245      5.1315393    
-807626.37      3.7595758      35.105223      26.256191      4.7364644    
-807634.88      3.3112824      35.15329       26.258349      4.3414469    
-807639.77      4.3579127      35.582748      26.231846      3.9464952    
-807638.89      3.4631955      35.477834      26.243573      3.5515963    
-807630.04      5.1259116      36.366196      26.265078      3.1567487    
-807623.91      3.8980862      35.654562      26.278435      2.7619556    
-807619.17      3.5611796      36.295103      26.283708      2.3672192    
-807620.12      2.8158708      35.590932      26.272635      1.9725421    
-807618.46      2.7871474      35.552688      26.311703      1.5779172    
-807628.05      3.0947379      35.874727      26.297949      1.183352     
-807637.77      3.4134712      35.508058      26.263955      0.78884634   
-807638.85      3.3013956      35.492411      26.237408      0.39439654   
-807632.52      3.0109167      36.311374      26.252157      0            
Loop time of 197.185 on 32 procs for 5000 steps with 1080 atoms

Performance: 4.382 ns/day, 5.477 hours/ns, 25.357 timesteps/s, 27.385 katom-step/s
67.5% CPU use with 32 MPI tasks x 1 OpenMP threads

MPI task timing breakdown:
Section |  min time  |  avg time  |  max time  |%varavg| %total
---------------------------------------------------------------
Pair    | 101.1      | 144.29     | 192.74     | 312.8 | 73.17
Neigh   | 0          | 0          | 0          |   0.0 |  0.00
Comm    | 2.1746     | 50.629     | 93.815     | 528.0 | 25.68
Output  | 0.02666    | 0.027139   | 0.028913   |   0.2 |  0.01
Modify  | 1.9139     | 1.9275     | 1.9359     |   0.4 |  0.98
Other   |            | 0.316      |            |       |  0.16

Nlocal:          33.75 ave          48 max          21 min
Histogram: 8 8 0 0 0 0 0 8 0 8
Nghost:        1106.25 ave        1119 max        1092 min
Histogram: 8 0 8 0 0 0 0 0 8 8
Neighs:              0 ave           0 max           0 min
Histogram: 32 0 0 0 0 0 0 0 0 0
FullNghs:       5494.5 ave        7896 max        3378 min
Histogram: 8 8 0 0 0 0 0 8 0 8

Total # of neighbors = 175824
Ave neighs/atom = 162.8
Neighbor list builds = 0
Dangerous builds = 0

reset_timestep 0


variable interval equal 1000
thermo 10

variable nintervals equal $(v_PERIOD/v_interval)
variable nintervals equal 100
variable efield equal 1e-2*36.36*cos((step/${PERIOD})*2*3.14)
variable efield equal 1e-2*36.36*cos((step/100000)*2*3.14)
fix born all addbornforce 0.0 0.0 v_efield

variable Px equal f_born[1]+c_polarization[1]
variable Py equal f_born[2]+c_polarization[2]
variable Pz equal (f_born[3]+c_polarization[3])/vol
variable pe equal pe

fix aveP all ave/time 1 $(v_interval/2) ${interval} v_efield v_Pz v_pe f_born file Pz.${MODEL}.${STRUCTURE}.${TEMP}.$L.${ITER}
fix aveP all ave/time 1 500 ${interval} v_efield v_Pz v_pe f_born file Pz.${MODEL}.${STRUCTURE}.${TEMP}.$L.${ITER}
fix aveP all ave/time 1 500 1000 v_efield v_Pz v_pe f_born file Pz.${MODEL}.${STRUCTURE}.${TEMP}.$L.${ITER}
fix aveP all ave/time 1 500 1000 v_efield v_Pz v_pe f_born file Pz.BaTiO3-E0.${STRUCTURE}.${TEMP}.$L.${ITER}
fix aveP all ave/time 1 500 1000 v_efield v_Pz v_pe f_born file Pz.BaTiO3-E0.BaTiO3-sc333.${TEMP}.$L.${ITER}
fix aveP all ave/time 1 500 1000 v_efield v_Pz v_pe f_born file Pz.BaTiO3-E0.BaTiO3-sc333.330.$L.${ITER}
fix aveP all ave/time 1 500 1000 v_efield v_Pz v_pe f_born file Pz.BaTiO3-E0.BaTiO3-sc333.330.2.${ITER}
fix aveP all ave/time 1 500 1000 v_efield v_Pz v_pe f_born file Pz.BaTiO3-E0.BaTiO3-sc333.330.2.6

thermo_style custom step time temp press pe f_born v_efield v_Pz spcpu cpuremain

# dump 4a all custom 1000 dump.hyst.${MODEL}.${STRUCTURE}.${TEMP}.$L.${ITER}.bin id type xu yu zu fx fy fz
# dump_modify 4a sort id

fix nvt all nvt temp ${TEMP} ${TEMP} $(100*dt)
fix nvt all nvt temp 330 ${TEMP} $(100*dt)
fix nvt all nvt temp 330 330 $(100*dt)
fix nvt all nvt temp 330 330 0.2000000000000000111

run $(v_PERIOD)
run 100000
WARNING: non-constant efield is experimental, strongly distrust scalar/vector output (src/fix_addbornforce.cpp:193)
Per MPI rank memory allocation (min/avg/max) = 3.516 | 3.516 | 3.516 Mbytes
   Step          Time           Temp          Press          PotEng         f_born        v_efield         v_Pz          S/CPU         CPULeft    
         0   0              316.68846      128963.53     -807632.52     -296.39843      0.3636         0.055744182    0              0            
        10   0.02           334.41774      131802        -807630.55     -300.89537      0.36359993     0.056589941    29.142031      3431.1504    
        20   0.04           326.02846      139643.67     -807623.42     -306.82388      0.36359971     0.05770496     29.14441       3430.6554    
        30   0.06           328.49438      143552.76     -807616.41     -314.29079      0.36359935     0.059109334    29.105706      3431.7823    
        40   0.08           325.45713      144974.39     -807613.85     -316.45092      0.36359885     0.059515678    29.094072      3432.5157    
        50   0.1            334.04867      138946.29     -807622.78     -308.67052      0.36359821     0.058052502    29.120161      3432.2038    
        60   0.12           338.65557      132148.1      -807632.85     -299.21431      0.36359742     0.056274169    29.14686       3431.3576    
        70   0.14           325.22131      127790.76     -807636.56     -293.64917      0.36359649     0.055227657    29.151394      3430.5795    
        80   0.16           318.24109      125884.94     -807637.17     -292.04906      0.36359541     0.054926881    29.155466      3429.8492    
        90   0.18           335.386        127477.1      -807638.25     -293.38742      0.36359419     0.055178776    29.194839      3428.692     
       100   0.2            338.6557       133061.21     -807631.6      -300.57029      0.36359283     0.056529906    29.198351      3427.6565    
       110   0.22           332.89479      140442.64     -807620.67     -310.80816      0.36359132     0.058455639    29.165016      3427.1025    
       120   0.24           326.42242      144015.65     -807614.53     -316.03177      0.36358968     0.059438347    29.168373      3426.5509    
       130   0.26           333.50944      142858.31     -807618.31     -313.21538      0.36358788     0.058908939    29.209365      3425.6617    
       140   0.28           331.39334      136920.13     -807624.79     -306.53591      0.36358595     0.057652984    29.277615      3424.2815    
       150   0.3            327.4535       132476.91     -807629.36     -301.41868      0.36358387     0.056690864    29.225301      3423.4467    
       160   0.32           319.13161      126732.89     -807634.89     -294.80021      0.36358165     0.055446399    29.194047      3422.902     
       170   0.34           321.3435       126873.35     -807638.93     -291.00363      0.36357928     0.054732691    29.217262      3422.2211    
       180   0.36           325.00243      127900.49     -807637.01     -293.65228      0.36357677     0.055231236    29.168367      3421.8962    
       190   0.38           323.92166      136210.03     -807625.37     -305.26859      0.36357412     0.057416496    29.158084      3421.6331    
       200   0.4            325.40437      140350.78     -807619.26     -311.70946      0.36357132     0.058628379    29.160674      3421.3466    
       210   0.42           327.22995      144082.46     -807617.47     -313.73959      0.36356838     0.059010697    29.085432      3421.4764    
       220   0.44           327.65686      141783.99     -807620.24     -311.21431      0.3635653      0.058536217    29.059276      3421.7034    
       230   0.46           327.75619      138228.38     -807622.65     -308.85322      0.36356207     0.058092636    29.092937      3421.7081    
       240   0.48           334.91724      129349.13     -807633.51     -299.14798      0.3635587      0.056267685    29.14317       3421.4374    
       250   0.5            321.27162      128054.23     -807638.66     -292.02792      0.36355519     0.054928982    29.151145      3421.1235    
       260   0.52           311.88021      124954.74     -807638.93     -290.63436      0.36355153     0.054667409    29.138603      3420.8641    
       270   0.54           331.28011      130419.98     -807633.73     -298.55805      0.36354773     0.056158418    29.159403      3420.508     
       280   0.56           341.30275      133571.37     -807629.72     -304.22431      0.36354379     0.057224854    29.189815      3420.0255    
       290   0.58           322.54159      142800.85     -807619.94     -311.36005      0.3635397      0.058567752    29.140335      3419.7527    
       300   0.6            321.53504      142739.03     -807618.66     -312.67197      0.36353547     0.058815214    29.147044      3419.4489    
       310   0.62           324.88958      142884.64     -807618.01     -313.77471      0.3635311      0.059023353    29.168622      3419.0611    
       320   0.64           328.65616      134534.04     -807627.13     -305.31663      0.36352658     0.057433039    29.202621      3418.5516    
       330   0.66           329.84146      130921.04     -807634.71     -297.80302      0.36352192     0.056020374    29.230409      3417.9541    
       340   0.68           310.08256      125221.49     -807638.54     -291.31053      0.36351712     0.054799783    29.217012      3417.4174    
       350   0.7            321.06511      127106.15     -807637.73     -293.59619      0.36351217     0.0552305      29.230516      3416.8471    
       360   0.72           323.60848      130309.82     -807633.89     -297.86131      0.36350708     0.056033627    29.247342      3416.2347    
       370   0.74           327.72379      136923.06     -807627.75     -304.50867      0.36350185     0.057284953    29.198387      3415.7913    
       380   0.76           327.09488      141068.36     -807620.79     -311.34696      0.36349647     0.058572256    29.132515      3415.5564    
       390   0.78           319.05372      143396.83     -807616.27     -314.68543      0.36349095     0.059201205    29.116282      3415.3647    
       400   0.8            320.96159      141820.01     -807619.18     -311.93025      0.36348529     0.058683792    29.133813      3415.114     
       410   0.82           341.68443      135039.45     -807630.82     -303.01218      0.36347948     0.057006936    29.144493      3414.8282    
       420   0.84           323.97512      130537.98     -807634.54     -296.56743      0.36347353     0.055795373    29.136404      3414.5622    
       430   0.86           316.01551      126565.44     -807637.11     -292.75105      0.36346744     0.055078294    29.17601       3414.1848    
       440   0.88           310.74738      128109.15     -807634.96     -293.93291      0.3634612      0.055301597    29.197934      3413.7507    
       450   0.9            327.8823       131337.76     -807634.12     -296.96138      0.36345482     0.055872366    29.125617      3413.509     
       460   0.92           331.44487      138286.73     -807624.93     -306.43175      0.3634483      0.057655221    29.087553      3413.3598    
       470   0.94           328.44663      142122.3      -807617.26     -313.51765      0.36344163     0.058989517    29.101151      3413.1684    
       480   0.96           335.67861      144073.56     -807617.36     -314.08082      0.36343482     0.059096588    29.146219      3412.8606    
       490   0.98           332.79357      139524.11     -807623.12     -307.70915      0.36342786     0.057898819    29.121281      3412.6109    
       500   1              341.32707      135212.96     -807628.59     -303.0864       0.36342077     0.057030112    29.143864      3412.3046    
       510   1.02           326.75733      128531.05     -807632.72     -9498.2065      0.36341353     0.055851914    29.101358      3412.0946    
       520   1.04           324.29248      128138.67     -807636.16     -9366.0625      0.36340614     0.055075991    29.077056      3411.9343    
       530   1.06           317.84628      127264.68     -807636.25     -9329.0651      0.36339862     0.054859569    29.025509      3411.8818    
       540   1.08           340.70465      133284.44     -807629.61     -9637.02        0.36339095     0.056671695    28.99589       3411.8833    
       550   1.1            347.81526      137650.98     -807622.71     -9888.9582      0.36338313     0.058154499    29.075173      3411.7022    
       560   1.12           338.42944      144299.97     -807616.85     -10026.883      0.36337518     0.058966889    29.073142      3411.5194    
       570   1.14           339.6789       142375.1      -807619.47     -9944.2228      0.36336707     0.058482081    29.068367      3411.3409    
       580   1.16           339.00123      140244.75     -807621.2      -9881.7661      0.36335883     0.05811609     29.074069      3411.1452    
       590   1.18           342.86956      133520.29     -807628.03     -9680.846       0.36335044     0.056935764    29.11366       3410.8656    
       600   1.2            330.60122      129461.66     -807633.34     -9449.9371      0.36334191     0.055579029    29.115519      3410.5802    
       610   1.22           329.8709       125916.55     -807638.85     -9269.0199      0.36333324     0.054516281    29.071961      3410.3768    
       620   1.24           323.44578      129809.25     -807632.5      -9442.6351      0.36332442     0.055538757    29.0616        3410.1885    
       630   1.26           341.30829      133618.32     -807627.42     -9689.3013      0.36331546     0.056990979    29.122151      3409.8823    
       640   1.28           350.01526      139247.6      -807622.72     -9876.9623      0.36330636     0.058096227    29.113009      3409.5918    
       650   1.3            334.03505      142075.36     -807618.58     -9940.387       0.36329711     0.05847078     29.051581      3409.4107    
       660   1.32           331.24658      143626.51     -807616.29     -10002.934      0.36328772     0.058840209    29.040869      3409.2438    
       670   1.34           342.69613      138910.89     -807621.48     -9892.9078      0.36327819     0.058194531    29.072746      3409.0155    
       680   1.36           341.55894      133713.04     -807629.82     -9621.6135      0.36326851     0.056600164    29.060219      3408.8055    
       690   1.38           329.92303      128441.8      -807635.79     -9381.8217      0.36325869     0.055191055    29.033225      3408.6377    
       700   1.4            323.48085      127140.37     -807636.39     -9340.9588      0.36324873     0.054952176    29.06963       3408.4037    
       710   1.42           330.01538      129977.62     -807632.87     -9487.9268      0.36323863     0.055818331    29.115554      3408.0905    
       720   1.44           335.97077      133559.7      -807628.9      -9650.7558      0.36322838     0.05677787     29.090532      3407.8174    
       730   1.46           340.3952       140178.88     -807623.01     -9862.5762      0.36321798     0.058025724    29.10218       3407.5236    
       740   1.48           319.40093      141878.98     -807616        -10002.283      0.36320745     0.058849388    29.049165      3407.3125    
       750   1.5            331.83224      143145.34     -807617.2      -10026.076      0.36319677     0.058991106    29.059983      3407.0811    
       760   1.52           339.87615      136465.19     -807626.06     -9789.1591      0.36318595     0.05759886     29.047067      3406.8665    
       770   1.54           329.25768      133085.34     -807630.38     -9608.5034      0.36317498     0.0565376      29.065765      3406.6201    
       780   1.56           314.25552      127092.92     -807635.28     -9394.4072      0.36316387     0.055279523    29.055802      3406.3862    
       790   1.58           322.28334      127774.21     -807635.82     -9418.7062      0.36315262     0.055424222    29.067311      3406.1324    
       800   1.6            322.07749      128310.29     -807635.15     -9449.4767      0.36314122     0.055607036    29.09052       3405.8422    
       810   1.62           326.19864      135358.27     -807628.28     -9693.5297      0.36312968     0.05704502     29.128556      3405.4958    
       820   1.64           325.07867      138793.55     -807621.7      -9910.4476      0.363118       0.058323426    29.069506      3405.2339    
       830   1.66           321.27015      144199.33     -807617.23     -10038.818      0.36310618     0.059080817    29.02751       3405.0293    
       840   1.68           322.89049      139758.04     -807621.71     -9911.8798      0.36309421     0.058335677    29.028404      3404.8203    
       850   1.7            341.33131      137139.48     -807628.96     -9762.5159      0.3630821      0.057458523    29.056445      3404.5693    
       860   1.72           312.68996      130347.7      -807630.96     -9574.4474      0.36306984     0.056353524    29.078503      3404.2859    
       870   1.74           320.01966      127095.75     -807636.05     -9444.1832      0.36305745     0.05558871     29.138918      3403.9199    
       880   1.76           316.20335      126801.45     -807638.77     -9341.6987      0.3630449      0.054987383    29.185627      3403.4927    
       890   1.78           314.35935      131449.23     -807632.83     -9523.609       0.36303222     0.056060107    29.112434      3403.1632    
       900   1.8            325.92528      135271.89     -807627.05     -9760.975       0.36301939     0.057459377    29.095018      3402.8561    
       910   1.82           331.69173      141166.09     -807622.48     -9930.9221      0.36300642     0.058461884    29.124331      3402.5105    
       920   1.84           319.45207      141346.42     -807619.89     -9957.2047      0.36299331     0.058618723    29.158815      3402.1212    
       930   1.86           325.15812      139287.69     -807622        -9913.5283      0.36298005     0.058363729    29.101163      3401.8053    
       940   1.88           325.60971      134986.02     -807627.4      -9741.1013      0.36296665     0.05735072     29.090733      3401.5017    
       950   1.9            318.69826      130765.51     -807632.64     -9538.2905      0.36295311     0.056158767    29.090308      3401.1979    
       960   1.92           320.6188       128751.59     -807637.13     -9398.1398      0.36293942     0.055335686    29.118654      3400.8587    
       970   1.94           307.54511      129358.94     -807635.49     -9390.3181      0.36292559     0.055291739    29.143968      3400.489     
       980   1.96           330.37764      132033.29     -807632.35     -9589.6228      0.36291162     0.056467452    29.111431      3400.1585    
       990   1.98           331.87515      134917.8      -807627.06     -9761.9058      0.3628975      0.057484158    29.10585       3399.8344    
      1000   2              328.41072      140531.9      -807621.73     -9911.4061      0.36288325     0.058366801    29.038833      3399.5884    
      1010   2.02           321.32466      140809.66     -807620.45     -309.98477      0.36286884     0.058416857    29.165036      3399.1944    
      1020   2.04           319.5955       140578.43     -807620.41     -309.51012      0.3628543      0.058329748    29.180555      3398.7837    
      1030   2.06           335.43984      134003.25     -807629.54     -302.50469      0.36283961     0.057011824    29.14207       3398.4178    
      1040   2.08           322.61074      131472.22     -807632.62     -297.41629      0.36282478     0.056055125    29.146299      3398.0476    
      1050   2.1            312.48045      127644.35     -807635.79     -292.68242      0.3628098      0.055165192    29.174568      3397.6466    
      1060   2.12           315.52622      129349.09     -807633.18     -295.50465      0.36279469     0.055699452    29.138434      3397.2863    
      1070   2.14           332.18593      131433.17     -807631.14     -299.72894      0.36277943     0.056498062    29.078175      3396.9922    
      1080   2.16           342.95164      137826.03     -807625.88     -306.26925      0.36276402     0.057733343    29.079947      3396.6952    
      1090   2.18           334.52423      141140.27     -807620.81     -310.00994      0.36274848     0.058440986    29.112816      3396.3621    
      1100   2.2            323.07367      143271.64     -807617.52     -311.48117      0.36273279     0.058720873    29.092763      3396.0501    
      1110   2.22           334.28108      137942.65     -807623.3      -307.09336      0.36271695     0.057896203    29.102259      3395.7275    
      1120   2.24           344.83756      133945.71     -807629.79     -301.85003      0.36270098     0.056910187    29.118209      3395.388     
      1130   2.26           330.56533      128431.13     -807634.22     -295.29554      0.36268486     0.055676891    29.200039      3394.9641    
      1140   2.28           317.20359      129191.1      -807633.69     -293.75027      0.3626686      0.055388019    29.203082      3394.5386    
      1150   2.3            328.08337      128693.2      -807634.56     -294.24581      0.36265219     0.055483967    29.221081      3394.0965    
      1160   2.32           345.86347      133767.32     -807630.66     -300.44896      0.36263564     0.056656239    29.244519      3393.6327    
      1170   2.34           339.41368      137988.82     -807623.54     -306.61513      0.36261895     0.057821666    29.228245      3393.187     
      1180   2.36           331.60125      143088.58     -807617.8      -311.09036      0.36260212     0.058668331    29.174366      3392.796     
      1190   2.38           330.35375      141295.49     -807619.27     -309.32605      0.36258514     0.058338331    29.199086      3392.3817    
      1200   2.4            349.73959      137793.11     -807625.15     -306.00531      0.36256802     0.057714771    29.217056      3391.9513    
      1210   2.42           324.2997       134081.62     -807626.66     -300.83674      0.36255076     0.056742645    29.17143       3391.566     
      1220   2.44           332.21996      130284.78     -807632.94     -295.52808      0.36253335     0.055744022    29.132766      3391.2183    
      1230   2.46           332.62812      127650.56     -807636.04     -292.41578      0.3625158      0.055159634    29.155932      3390.8487    
      1240   2.48           330.65827      129706.58     -807632.37     -295.78044      0.36249811     0.055797047    29.118695      3390.5145    
      1250   2.5            332.52883      135029.67     -807625.8      -302.65246      0.36248028     0.057096218    29.179919      3390.1233    
      1260   2.52           336.43812      138423.6      -807621.94     -307.03816      0.3624623      0.057926465    29.189592      3389.7239    
      1270   2.54           335.71747      142468.36     -807619.15     -309.66589      0.36244418     0.05842514     29.105945      3389.4019    
      1280   2.56           333.405        141065.05     -807620.5      -308.11536      0.36242592     0.058135527    29.112656      3389.0735    
      1290   2.58           336.93105      139443.9      -807622.31     -306.78582      0.36240751     0.05788761     29.16247       3388.7       
      1300   2.6            333.64664      131907.51     -807629.76     -298.92572      0.36238896     0.056407369    29.210166      3388.2844    
      1310   2.62           335.92209      129343.02     -807634.75     -294.23322      0.36237027     0.055524757    29.232971      3387.8498    
      1320   2.64           320.71013      126727.25     -807634.48     -292.574        0.36235143     0.055214516    29.182048      3387.4613    
      1330   2.66           340.3885       131532.62     -807631.87     -298.07663      0.36233245     0.056255917    29.182506      3387.073     
      1340   2.68           335.19726      133308.39     -807628.36     -301.15477      0.36231333     0.056839853    29.160124      3386.7048    
      1350   2.7            344.10184      140201.96     -807624.16     -306.73492      0.36229407     0.057896128    29.173171      3386.3257    
      1360   2.72           322.5452       140465.61     -807619.96     -308.32219      0.36227466     0.058198842    29.182494      3385.9393    
      1370   2.74           326.50958      141939.49     -807618.99     -310.09249      0.36225511     0.058536162    29.122029      3385.6047    
      1380   2.76           326.96239      135149.31     -807626.47     -303.08612      0.36223542     0.05721668     29.105306      3385.2841    
      1390   2.78           338.20013      132225.86     -807632.87     -298.48061      0.36221558     0.056350336    29.109833      3384.9593    
      1400   2.8            315.1603       128078.12     -807634.39     -294.20069      0.3621956      0.055545392    29.129038      3384.6184    
      1410   2.82           325.88163      129738.1      -807634.44     -295.87212      0.36217548     0.055864061    29.155581      3384.2555    
      1420   2.84           328.92979      130324.11     -807634.29     -296.75931      0.36215522     0.056034708    29.165779      3383.8846    
      1430   2.86           322.39749      136348.59     -807628.12     -302.26535      0.36213481     0.057077588    29.138037      3383.5366    
      1440   2.88           325.04876      137924.13     -807623.72     -307.26547      0.36211426     0.058025066    29.126692      3383.1978    
      1450   2.9            321.9053       140859.28     -807620.56     -310.11267      0.36209357     0.058566089    29.137948      3382.8499    
      1460   2.92           315.87472      138518.81     -807623.62     -306.34359      0.36207273     0.05785761     29.212782      3382.4428    
      1470   2.94           323.72879      135607.53     -807629        -302.0497       0.36205176     0.057049949    29.250505      3382.007     
      1480   2.96           330.44225      130174.09     -807632.91     -299.12146      0.36203064     0.056500171    29.263221      3381.5625    
      1490   2.98           315.53979      129382.49     -807633.73     -296.16654      0.36200937     0.055945312    29.275989      3381.1096    
      1500   3              309.33002      129367.06     -807635.07     -293.94795      0.36198796     0.055529507    29.218255      3380.7024    
      1510   3.02           322.74389      132170.01     -807633.12     -9526.9364      0.36196642     0.05624482     29.116486      3380.3742    
      1520   3.04           323.24187      136227.08     -807627.43     -9709.4554      0.36194472     0.057325805    29.08026       3380.0735    
      1530   3.06           323.32997      138926.31     -807623.06     -9846.4754      0.36192289     0.058138295    29.059532      3379.7879    
      1540   3.08           323.75268      139169.85     -807623.51     -9830.2449      0.36190091     0.058045987    29.104501      3379.4677    
      1550   3.1            324.99273      138375.72     -807625.94     -9752.3443      0.36187879     0.057589517    29.085665      3379.1613    
      1560   3.12           329.02455      135283.62     -807628.62     -9679.7606      0.36185653     0.057164413    29.063242      3378.8711    
      1570   3.14           324.19992      131915.22     -807632.05     -9545.2422      0.36183412     0.056373497    29.077567      3378.5696    
      1580   3.16           315.46421      130076.71     -807634.41     -9422.4232      0.36181157     0.055651604    29.082918      3378.2636    
      1590   3.18           325.54368      129489.89     -807635.96     -9410.9046      0.36178888     0.055587059    29.090008      3377.952     
      1600   3.2            328.28939      132428.66     -807630.61     -9591.593       0.36176605     0.0566579      29.117582      3377.62      
      1610   3.22           317.43427      136663.42     -807624.32     -9739.7913      0.36174307     0.057536967    29.148453      3377.2656    
      1620   3.24           325.1847       139351.09     -807623.49     -9791.8181      0.36171995     0.057848008    29.156424      3376.9056    
      1630   3.26           326.64666      139479.03     -807622.6      -9819.1626      0.36169669     0.058013284    29.143333      3376.5551    
      1640   3.28           336.45947      138090.26     -807624.89     -9784.6763      0.36167329     0.057813275    29.095648      3376.2385    
      1650   3.3            333.71669      134414.39     -807627.54     -9680.936       0.36164974     0.057204044    29.130816      3375.8968    
      1660   3.32           327.92538      131156.14     -807632.36     -9491.5086      0.36162605     0.056088403    29.131486      3375.5545    
      1670   3.34           323.94969      129215.92     -807635.07     -9380.5187      0.36160222     0.055436181    29.136151      3375.2091    
      1680   3.36           331.01756      130361.22     -807632.34     -9494.8346      0.36157824     0.056115476    29.137337      3374.8629    
      1690   3.38           331.21711      133236.88     -807628.32     -9620.749       0.36155413     0.056863436    29.11117       3374.5346    
      1700   3.4            339.57512      136618.03     -807627.15     -9692.4512      0.36152987     0.057291077    29.017494      3374.2703    
      1710   3.42           319.035        138961.26     -807621.52     -9776.2942      0.36150546     0.057790565    29.040371      3373.9894    
      1720   3.44           332.77504      139200.52     -807621.34     -9840.3975      0.36148092     0.058173448    29.07442       3373.6848    
      1730   3.46           348.98313      136878.08     -807625.5      -9777.0631      0.36145623     0.057802982    29.086108      3373.3719    
      1740   3.48           339.8788       134452.51     -807630.05     -9587.4413      0.3614314      0.056685813    29.050924      3373.0821    
      1750   3.5            326.61852      131406.4      -807632.69     -9440.3563      0.36140643     0.055820028    29.101538      3372.7581    
      1760   3.52           320.96231      130338.36     -807631.83     -9441.6495      0.36138131     0.055831555    29.158277      3372.3965    
      1770   3.54           329.44974      130328.86     -807631.9      -9478.0585      0.36135605     0.056050771    29.170788      3372.027     
      1780   3.56           332.64282      134385.46     -807628.9      -9584.526       0.36133065     0.056684376    29.172137      3371.6569    
      1790   3.58           337.81031      135950.64     -807626.71     -9677.0199      0.36130511     0.057235445    29.126555      3371.3166    
      1800   3.6            324.50146      141015.15     -807619.55     -9845.4513      0.36127942     0.058235786    29.15288       3370.9593    
      1810   3.62           339.1798       139201.52     -807622.78     -9810.1802      0.3612536      0.058031306    29.143807      3370.6079    
      1820   3.64           334.58642      137382.39     -807624.7      -9724.0985      0.36122763     0.057526232    29.139329      3370.2595    
      1830   3.66           336.09304      133294.35     -807630.85     -9533.0414      0.36120151     0.056400046    29.105341      3369.9326    
      1840   3.68           331.86473      130507.77     -807632.96     -9446.8017      0.36117526     0.055893892    29.100727      3369.6085    
      1850   3.7            318.33959      129861.17     -807631.91     -9418.8551      0.36114886     0.055732613    29.107909      3369.2797    
      1860   3.72           333.69953      130863.45     -807633.47     -9436.8112      0.36112232     0.055842966    29.062729      3368.9788    
      1870   3.74           333.82054      134926.58     -807628.7      -9591.622       0.36109564     0.056763263    29.022311      3368.7027    
      1880   3.76           332.58825      137096.26     -807623.63     -9748.8608      0.36106881     0.057698089    29.030632      3368.4207    
      1890   3.78           339.88425      140100.73     -807621.06     -9863.192       0.36104184     0.058379112    29.052097      3368.1248    
      1900   3.8            326.98446      139012.28     -807622.67     -9757.1726      0.36101474     0.057755932    29.056058      3367.826     
      1910   3.82           331.49987      137515.07     -807625.01     -9699.6982      0.36098748     0.057420057    29.109987      3367.4939    
      1920   3.84           342.89872      131907.61     -807630.92     -9564.3015      0.36096009     0.056622835    29.149628      3367.1379    
      1930   3.86           321.26436      132288.94     -807631.24     -9457.6347      0.36093255     0.055995616    29.150008      3366.7818    
      1940   3.88           326.05054      128899.91     -807634.47     -9376.4659      0.36090487     0.055519299    29.141803      3366.4307    
      1950   3.9            326.73345      131429.14     -807631.85     -9463.5334      0.36087705     0.056039157    29.104336      3366.1019    
      1960   3.92           325.94707      133503.54     -807627.39     -9607.1098      0.36084909     0.056893766    29.125056      3365.7607    
      1970   3.94           333.57909      138227.37     -807623.84     -9755.4502      0.36082098     0.057776746    29.13116       3365.4159    
      1980   3.96           321.46634      139251.77     -807621.73     -9771.0949      0.36079273     0.057873932    29.080136      3365.1009    
      1990   3.98           336.78153      138668.38     -807623.8      -9771.2597      0.36076434     0.057879463    29.118825      3364.7632    
      2000   4              331.15351      136128.33     -807626.12     -9674.8706      0.36073581     0.057313041    29.086008      3364.4444    
      2010   4.02           332.96603      133541.41     -807629.66     -299.04217      0.36070713     0.05669245     29.174259      3364.0746    
      2020   4.04           324.16336      130588.4      -807633.96     -293.54501      0.36067831     0.055654743    29.196365      3363.6925    
      2030   4.06           327.29379      129476.06     -807634.73     -293.26521      0.36064935     0.055606161    29.215614      3363.2999    
      2040   4.08           320.1118       131682.18     -807630.6      -296.49736      0.36062025     0.056223546    29.13981       3362.9506    
      2050   4.1            334.97383      134072.93     -807628.93     -300.38942      0.36059101     0.056966201    29.121407      3362.6117    
      2060   4.12           323.71488      137539.63     -807623.92     -303.94061      0.36056162     0.057644351    29.097847      3362.2859    
      2070   4.14           329.04021      138485.55     -807623.42     -305.39157      0.36053209     0.057924278    29.129329      3361.9424    
      2080   4.16           330.78363      139348.94     -807623.11     -306.13654      0.36050242     0.058070358    29.174443      3361.574     
      2090   4.18           319.88592      136227.5      -807626.13     -301.91338      0.36047261     0.057274013    29.147682      3361.2205    
      2100   4.2            334.87462      132842.75     -807632.46     -297.92084      0.36044265     0.05652131     29.152963      3360.8642    
      2110   4.22           317.18609      129299.45     -807634.46     -293.77651      0.36041256     0.055739705    29.181572      3360.4924    
      2120   4.24           314.31969      130168.49     -807633.52     -294.60203      0.36038232     0.055901026    29.204816      3360.1083    
      2130   4.26           310.77389      131076.4      -807631.68     -296.25016      0.36035193     0.0562185      29.213074      3359.7202    
      2140   4.28           326.80662      134977.22     -807630.07     -300.32507      0.36032141     0.056996612    29.249955      3359.3127    
      2150   4.3            313.68394      137301.73     -807625.39     -303.42899      0.36029075     0.057590583    29.199479      3358.9328    
      2160   4.32           318.38451      139568.3      -807623.22     -306.39148      0.36025994     0.058157835    29.164216      3358.572     
      2170   4.34           321.20182      136847.06     -807625.91     -304.22172      0.36022899     0.057750943    29.17414       3358.206     
      2180   4.36           314.96715      135232.13     -807627.86     -301.43383      0.36019789     0.057226652    29.228251      3357.8119    
      2190   4.38           323.31867      131843.98     -807633.21     -297.29816      0.36016666     0.056446398    29.224827      3357.4199    
      2200   4.4            318.01473      130024.69     -807634.91     -294.81975      0.36013528     0.055980712    29.14894       3357.0681    
      2210   4.42           306.84135      131042.01     -807634.13     -294.01237      0.36010377     0.055832291    29.110975      3356.7361    
      2220   4.44           307.6201       131949.4      -807631.92     -296.27243      0.36007211     0.056266419    29.146459      3356.3855    
      2230   4.46           327.76356      134019.18     -807630.06     -300.77297      0.3600403      0.057126182    29.148726      3356.0339    
      2240   4.48           317.78526      136762.47     -807625.71     -303.6638       0.36000836     0.057680359    29.108815      3355.7029    
      2250   4.5            317.10797      138889.73     -807623.28     -305.77204      0.35997627     0.058085992    29.158301      3355.3465    
      2260   4.52           318.54902      137344.05     -807626.24     -302.82799      0.35994404     0.057531876    29.163242      3354.9876    
      2270   4.54           317.46445      136244.8      -807627.84     -300.81426      0.35991167     0.057154444    29.124885      3354.6484    
      2280   4.56           324.7811       131301.34     -807633.08     -296.29333      0.35987916     0.056300557    29.096594      3354.3233    
      2290   4.58           310.8034       130405.1      -807632.6      -294.51264      0.35984651     0.055967274    29.120164      3353.9863    
      2300   4.6            311.25838      129745.3      -807633.52     -293.39708      0.35981371     0.055760364    29.15126       3353.6337    
      2310   4.62           329.24386      131657.15     -807632.04     -296.95304      0.35978077     0.056441343    29.145801      3353.2838    
      2320   4.64           321.4619       135412.26     -807626.65     -301.02852      0.35974769     0.057221224    29.140059      3352.9369    
      2330   4.66           331.61288      138211.41     -807624.94     -303.79638      0.35971447     0.057752688    29.154269      3352.583     
      2340   4.68           326.64521      138969.82     -807623.27     -304.48477      0.35968111     0.057888921    29.205525      3352.204     
      2350   4.7            325.10957      138553.36     -807624.13     -303.14053      0.3596476      0.057638722    29.197348      3351.8294    
      2360   4.72           328.60009      134833.6      -807627.69     -299.77186      0.35961396     0.057003543    29.193389      3351.4569    
      2370   4.74           332.18948      131934.77     -807632.4      -295.37947      0.35958017     0.056173579    29.228126      3351.0679    
      2380   4.76           321.15597      131092.16     -807632.84     -293.20995      0.35954624     0.055766254    29.234117      3350.6765    
      2390   4.78           321.36071      129737.09     -807632.88     -293.03142      0.35951216     0.055737581    29.205114      3350.2993    
      2400   4.8            334.66443      132694.47     -807631.21     -296.38293      0.35947795     0.056380438    29.181275      3349.9338    
      2410   4.82           328.64434      135595.37     -807626.84     -299.85195      0.35944359     0.057045797    29.181697      3349.5683    
      2420   4.84           329.61894      139032.46     -807622.83     -303.81163      0.35940909     0.05780466     29.178789      3349.2043    
      2430   4.86           329.33659      138739.42     -807623.66     -302.91186      0.35937446     0.057639021    29.149171      3348.8545    
      2440   4.88           338.95671      137726.74     -807624.44     -303.30057      0.35933967     0.057718571    29.194258      3348.4836    
      2450   4.9            335.10364      133566.68     -807627.81     -299.35782      0.35930475     0.056973797    29.205924      3348.1075    
      2460   4.92           321.30526      132360.98     -807629.71     -295.39138      0.35926969     0.056224391    29.195383      3347.7365    
      2470   4.94           332.37799      128731.18     -807634.61     -291.99055      0.35923448     0.055582529    29.111768      3347.4046    
      2480   4.96           328.09089      131903.52     -807631.48     -294.43078      0.35919913     0.05605256     29.148797      3347.0555    
      2490   4.98           327.09682      132893        -807629.12     -296.68314      0.35916364     0.056486937    29.120099      3346.7196    
      2500   5              335.56761      136693.44     -807627.26     -299.57539      0.35912801     0.057043266    29.078317      3346.403     
[...]
     98740   197.48         333.28367      135042.39     -807627        -9658.6146      0.36236891     0.05695888     30.079398      44.183998    
     98750   197.5          333.30315      135161.85     -807626.7      -9673.0027      0.36238762     0.057040786    30.066348      43.833102    
     98760   197.52         320.20495      136431.67     -807623.94     -9704.8035      0.36240618     0.057225381    30.057569      43.482212    
     98770   197.54         327.54551      135497.32     -807625.93     -9676.2152      0.36242459     0.057053908    30.015937      43.131331    
     98780   197.56         328.59137      136646.59     -807625.46     -9697.0289      0.36244287     0.057173749    29.999278      42.780456    
     98790   197.58         336.23183      135095.5      -807626.34     -9706.8083      0.362461       0.057228546    30.014056      42.429582    
     98800   197.6          338.94568      135769.9      -807627.13     -9697.2686      0.36247899     0.057169465    30.070611      42.078705    
     98810   197.62         328.35821      134788.12     -807627.66     -9638.8947      0.36249683     0.056822529    30.083196      41.727829    
     98820   197.64         334.47897      135191.84     -807627.73     -9667.6477      0.36251453     0.056989249    30.07243       41.376959    
     98830   197.66         318.04818      134486.99     -807626.43     -9640.9826      0.36253209     0.05682931     30.035822      41.026097    
     98840   197.68         333.94909      134225.9      -807627.98     -9667.539       0.36254951     0.05698311     30.053039      40.675236    
     98850   197.7          337.77561      133769.88     -807629.25     -9649.6743      0.36256678     0.056875101    30.040365      40.324381    
     98860   197.72         324.55416      135445.92     -807626.14     -9694.0438      0.36258391     0.057133915    30.030549      39.97353     
     98870   197.74         333.63172      135568.55     -807627.32     -9703.0648      0.3626009      0.057184403    30.081546      39.622677    
     98880   197.76         330.47764      135062.7      -807627.03     -9703.9999      0.36261774     0.057187258    30.116055      39.271824    
     98890   197.78         331.90836      135806.09     -807627.67     -9695.1387      0.36263445     0.057132406    30.09077       38.920977    
     98900   197.8          324.40165      134839.04     -807627.78     -9664.0305      0.362651       0.056946488    30.139942      38.570128    
     98910   197.82         328.70917      134897.25     -807628.26     -9671.6291      0.36266742     0.056988684    30.134157      38.219283    
     98920   197.84         324.36089      133383.4      -807628.87     -9640.5009      0.36268369     0.056802717    30.136656      37.868442    
     98930   197.86         325.83863      134199.11     -807628.48     -9662.3605      0.36269982     0.056928984    30.113021      37.517608    
     98940   197.88         329.95569      133333.78     -807630.26     -9630.1472      0.36271581     0.056736689    30.093382      37.166779    
     98950   197.9          319.13994      136650.66     -807625.89     -9726.37        0.36273165     0.057301089    30.087463      36.815956    
     98960   197.92         328.14911      135585.9      -807627.39     -9725.1787      0.36274735     0.057291591    30.103309      36.465134    
     98970   197.94         325.89452      136359.54     -807626.83     -9733.7179      0.36276291     0.057339437    30.086464      36.114317    
     98980   197.96         330.68033      134063.08     -807629.84     -9662.667       0.36277832     0.056918471    30.10819       35.763502    
     98990   197.98         315.34902      134884.73     -807627.38     -9674.8769      0.36279359     0.056987995    30.104107      35.412692    
     99000   198            317.79364      133034.05     -807628.56     -9651.4458      0.36280872     0.056847609    30.09695       35.061885    
     99010   198.02         332.09167      133756.04     -807629.8      -302.39677      0.3628237      0.056993984    30.129008      34.71108     
     99020   198.04         327.04134      133892.93     -807630.06     -301.52552      0.36283855     0.056827452    30.127918      34.360277    
     99030   198.06         308.71727      135334.03     -807626.51     -302.54833      0.36285324     0.057017907    30.113363      34.009481    
     99040   198.08         328.97786      135683.18     -807627.22     -304.679        0.3628678      0.057417147    30.096811      33.65869     
     99050   198.1          326.83668      135392.75     -807627.05     -304.59122      0.36288221     0.057398324    30.099911      33.307902    
     99060   198.12         315.97442      136379.6      -807626.46     -303.63438      0.36289648     0.057215765    30.155139      32.957112    
     99070   198.14         325.67916      133973.29     -807628.3      -303.17876      0.36291061     0.057127685    30.182364      32.606324    
     99080   198.16         322.11376      134420.2      -807627.4      -303.48405      0.36292459     0.057183007    30.205859      32.255537    
     99090   198.18         322.05874      133187.04     -807629.66     -301.15773      0.36293843     0.056742515    30.138933      31.90476     
     99100   198.2          324.28404      133873.53     -807630.21     -300.74354      0.36295213     0.056662337    30.15792       31.553986    
     99110   198.22         330.64864      133112.77     -807630.37     -301.32243      0.36296568     0.056769284    30.182618      31.203213    
     99120   198.24         327.93564      135535.81     -807626.83     -304.24998      0.36297909     0.057318718    30.166937      30.852445    
     99130   198.26         323.75182      134930.92     -807627.87     -302.40296      0.36299236     0.05696867     30.162171      30.501682    
     99140   198.28         335.79076      136055.82     -807628.19     -303.38917      0.36300548     0.057152391    30.156783      30.150923    
     99150   198.3          331.47323      133959.03     -807626.79     -303.8905       0.36301846     0.057244786    30.196845      29.800165    
     99160   198.32         328.33571      135988.98     -807625.25     -304.61349      0.3630313      0.057378949    30.176785      29.449412    
     99170   198.34         336.80315      133677.24     -807628.98     -301.76169      0.36304399     0.056839776    30.180023      29.098662    
     99180   198.36         337.84747      135001.79     -807628.59     -301.92257      0.36305655     0.056868114    30.164414      28.747918    
     99190   198.38         330.61303      133969.31     -807627.07     -302.20682      0.36306895     0.056919709    30.153494      28.397179    
     99200   198.4          323.7841       135542.72     -807624.51     -303.52928      0.36308122     0.057166858    30.154376      28.046444    
     99210   198.42         337.3768       135119.1      -807627.34     -302.42075      0.36309334     0.056956176    30.123158      27.695715    
     99220   198.44         338.19027      136341.59     -807625.45     -304.2344       0.36310532     0.057295859    30.122479      27.34499     
     99230   198.46         340.61618      136332.73     -807624.92     -304.95165      0.36311715     0.057429064    30.15585       26.994266    
     99240   198.48         339.4487       136019.5      -807625.29     -304.30196      0.36312885     0.057304868    30.174426      26.643545    
     99250   198.5          336.81945      135108.47     -807627.55     -301.61015      0.3631404      0.056796151    30.196476      26.292825    
     99260   198.52         341.56086      134041.23     -807627.92     -301.8093       0.3631518      0.056831868    30.188448      25.94211     
     99270   198.54         343.72119      134131.63     -807627.51     -302.53357      0.36316306     0.056966485    30.168977      25.5914      
     99280   198.56         327.55399      134568.29     -807625.8      -302.0225       0.36317418     0.056868509    30.162774      25.240695    
     99290   198.58         327.23689      135555.38     -807625.52     -302.18609      0.36318516     0.056897593    30.149322      24.889995    
     99300   198.6          351.60015      134180.68     -807628.76     -302.51959      0.36319599     0.056958687    30.145831      24.539299    
     99310   198.62         336.02843      137142.85     -807623.07     -306.04063      0.36320668     0.057619937    30.130029      24.188608    
     99320   198.64         336.54308      135521.72     -807625.65     -303.64307      0.36321723     0.057166875    30.139822      23.83792     
     99330   198.66         330.29603      135366.18     -807625.9      -302.58621      0.36322763     0.056966268    30.143724      23.487235    
     99340   198.68         350.45657      133819.65     -807629.08     -302.36202      0.36323789     0.056922454    30.154586      23.136554    
     99350   198.7          326.79423      135072.18     -807624.42     -303.92526      0.36324801     0.057215155    30.183751      22.785874    
     99360   198.72         335.81832      133832.94     -807627.64     -302.08944      0.36325798     0.056867992    30.152624      22.4352      
     99370   198.74         325.06841      134377.6      -807627.82     -300.5624       0.36326781     0.056578997    30.158651      22.08453     
     99380   198.76         330.23348      135673.92     -807625.95     -303.39749      0.3632775      0.057111163    30.172283      21.733863    
     99390   198.78         332.50092      136312.77     -807624.33     -305.53511      0.36328704     0.057512035    30.171476      21.383199    
     99400   198.8          329.62599      137247.9      -807625.34     -304.2959       0.36329644     0.057277292    30.150636      21.032541    
     99410   198.82         337.56928      134765.74     -807628.58     -302.37422      0.3633057      0.056914126    30.15277       20.681886    
     99420   198.84         331.00674      135626.7      -807625.64     -304.57711      0.36331481     0.057327326    30.161759      20.331235    
     99430   198.86         325.06211      133888.53     -807625.7      -304.00589      0.36332378     0.057218397    30.115969      19.980591    
     99440   198.88         325.68541      135585.97     -807627.42     -302.49534      0.36333261     0.056932706    30.096737      19.629951    
     99450   198.9          330.10842      132045.58     -807630.54     -300.23739      0.36334129     0.056506386    30.160127      19.279311    
     99460   198.92         319.08719      135891.72     -807625.19     -304.13577      0.36334983     0.057238739    30.185523      18.928674    
     99470   198.94         332.18687      133476.12     -807628.45     -303.04365      0.36335823     0.057031882    30.172858      18.578041    
     99480   198.96         328.51768      136677.95     -807626.21     -304.77652      0.36336648     0.057356701    30.121601      18.227415    
     99490   198.98         327.26326      133883.77     -807628.48     -302.5427       0.3633746      0.056935041    30.122995      17.876793    
     99500   199            327.20312      136808.8      -807625.83     -305.22945      0.36338256     0.057439397    30.17301       17.526171    
     99510   199.02         326.89551      134193.16     -807627.15     -9730.3464      0.36339039     0.0572206      30.076702      17.175559    
     99520   199.04         322.12537      136033.54     -807626.74     -9720.855       0.36339807     0.057163576    30.10078       16.824949    
     99530   199.06         328.59774      133260.78     -807630.94     -9618.884       0.3634056      0.056562762    30.09892       16.474343    
     99540   199.08         323.43607      135812.54     -807628.05     -9690.0342      0.363413       0.056979993    30.112891      16.12374     
     99550   199.1          322.73783      133698.67     -807627.29     -9714.4295      0.36342025     0.057122304    30.099489      15.773141    
     99560   199.12         330.00173      135375.07     -807627.28     -9745.2399      0.36342736     0.057302353    30.12825       15.422545    
     99570   199.14         316.14991      134714.39     -807627.06     -9690.92        0.36343432     0.056981859    30.121316      15.071952    
     99580   199.16         332.97621      136221.15     -807627.74     -9743.8366      0.36344114     0.057291929    30.0968        14.721365    
     99590   199.18         320.54049      135470.03     -807624.96     -9778.4623      0.36344782     0.057494465    30.055811      14.370783    
     99600   199.2          332.31795      134043.13     -807628.88     -9703.0671      0.36345435     0.057050138    30.065         14.020204    
     99610   199.22         321.30023      134254.96     -807629.17     -9644.6641      0.36346074     0.056705755    30.064747      13.669629    
     99620   199.24         324.45768      132604.55     -807630.21     -9626.4048      0.36346699     0.056597426    30.049017      13.319058    
     99630   199.26         318.81233      135612.32     -807626.34     -9721.6318      0.3634731      0.057156344    30.034665      12.968491    
     99640   199.28         317.36651      133374.73     -807627.78     -9669.5902      0.36347906     0.056849443    30.048078      12.617928    
     99650   199.3          325.96854      136708.04     -807627.04     -9726.1349      0.36348487     0.057180966    30.033909      12.267368    
     99660   199.32         323.66052      134860.04     -807626.34     -9740.2896      0.36349055     0.057263289    30.043072      11.916812    
     99670   199.34         331.82878      138489.53     -807624.24     -9841.4968      0.36349608     0.057857407    30.089419      11.566257    
     99680   199.36         322.3467       134517.94     -807627.14     -9707.1528      0.36350147     0.057066763    30.098673      11.215706    
     99690   199.38         332.57729      135483.38     -807628.7      -9696.0533      0.36350671     0.057000688    30.118763      10.865158    
     99700   199.4          317.79947      132380.87     -807629.46     -9609.4056      0.36351181     0.056490516    30.130215      10.514613    
     99710   199.42         331.77496      135902.11     -807627.89     -9716.2598      0.36351677     0.057117898    30.153522      10.164071    
     99720   199.44         329.76952      132378.42     -807630.48     -9626.4041      0.36352158     0.056588923    30.140623      9.8135331    
     99730   199.46         332.34496      135925.69     -807627.86     -9715.4004      0.36352625     0.057111355    30.122938      9.4629997    
     99740   199.48         326.5838       134510.75     -807626.54     -9734.0554      0.36353078     0.057220305    30.129087      9.1124698    
     99750   199.5          319.48186      137647.45     -807622.35     -9832.9039      0.36353516     0.057800675    30.119821      8.7619439    
     99760   199.52         331.05717      134866.14     -807626.48     -9751.7949      0.3635394      0.057323224    30.130678      8.4114214    
     99770   199.54         323.36196      136385.44     -807626.36     -9718.246       0.3635435      0.057125372    30.116488      8.060903     
     99780   199.56         327.15438      134583.18     -807627.67     -9691.5538      0.36354745     0.056967852    30.140617      7.7103878    
     99790   199.58         324.82664      134610.94     -807627.89     -9671.7869      0.36355126     0.056851064    30.129898      7.3598765    
     99800   199.6          335.08198      133023        -807630.33     -9636.3133      0.36355493     0.056641978    30.127172      7.009369     
     99810   199.62         333.0284       133662.69     -807629.23     -9659.6454      0.36355845     0.056778573    30.127889      6.6588653    
     99820   199.64         329.07257      135751.88     -807626.38     -9732.3442      0.36356183     0.057205359    30.093264      6.3083659    
     99830   199.66         333.39089      135799.85     -807625.9      -9764.6448      0.36356507     0.057394706    30.071706      5.9578706    
     99840   199.68         327.62319      137890.59     -807624.78     -9770.6419      0.36356816     0.057429468    30.108844      5.6073783    
     99850   199.7          334.34367      134805.72     -807627.39     -9717.1805      0.36357111     0.057114771    30.101723      5.2568897    
     99860   199.72         330.04721      136873.01     -807625.39     -9757.0004      0.36357392     0.057348378    30.13598       4.9064043    
     99870   199.74         342.68386      132757.82     -807630.25     -9660.7865      0.36357658     0.056782449    30.098869      4.5559231    
     99880   199.76         318.4094       136531.4      -807625.31     -9702.3576      0.3635791      0.057026393    30.080481      4.2054458    
     99890   199.78         341.93315      131407.87     -807632.2      -9588.4028      0.36358148     0.056356246    30.074643      3.8549723    
     99900   199.8          327.4559       136908.43     -807625.21     -9740.69        0.36358371     0.057250969    30.045404      3.5045026    
     99910   199.82         341.67704      133496.27     -807628.67     -9694.4979      0.3635858      0.056979147    30.035402      3.1540366    
     99920   199.84         331.29554      138127.5      -807623.51     -9806.4292      0.36358775     0.057636712    30.03745       2.803574     
     99930   199.86         325.83464      134953.64     -807625.55     -9717.5918      0.36358955     0.057114292    30.061086      2.4531148    
     99940   199.88         340.41361      137255.92     -807625.78     -9766.4392      0.36359121     0.057401127    30.125752      2.1026587    
     99950   199.9          333.92759      134208.75     -807626.57     -9710.8125      0.36359273     0.057073949    30.117325      1.7522064    
     99960   199.92         335.03583      135888.26     -807626.6      -9707.4025      0.3635941      0.057053692    30.104014      1.4017578    
     99970   199.94         334.62014      133098.85     -807629.01     -9623.6707      0.36359533     0.05656138     30.057363      1.051313     
     99980   199.96         336.85049      135479.5      -807627.84     -9663.8616      0.36359641     0.056797425    30.081448      0.70087175   
     99990   199.98         332.67711      134609.69     -807625.66     -9711.6701      0.36359736     0.057078262    30.116526      0.35043404   
    100000   200            338.2737       135638.28     -807625.1      -9745.7086      0.36359816     0.05727819     30.104559      0            
Loop time of 3504.32 on 32 procs for 100000 steps with 1080 atoms

Performance: 4.931 ns/day, 4.867 hours/ns, 28.536 timesteps/s, 30.819 katom-step/s
62.6% CPU use with 32 MPI tasks x 1 OpenMP threads

MPI task timing breakdown:
Section |  min time  |  avg time  |  max time  |%varavg| %total
---------------------------------------------------------------
Pair    | 2543.7     | 2800.2     | 3145.5     | 306.1 | 79.91
Neigh   | 0.0012409  | 0.0018637  | 0.005479   |   3.1 |  0.00
Comm    | 284.71     | 630.04     | 886.5      | 645.4 | 17.98
Output  | 2.3523     | 2.358      | 2.3641     |   0.2 |  0.07
Modify  | 65.451     | 65.687     | 65.956     |   1.3 |  1.87
Other   |            | 6.075      |            |       |  0.17

Nlocal:          33.75 ave          41 max          29 min
Histogram: 6 2 3 4 6 6 2 1 0 2
Nghost:        1022.97 ave        1044 max         997 min
Histogram: 1 1 7 2 3 2 2 5 7 2
Neighs:              0 ave           0 max           0 min
Histogram: 32 0 0 0 0 0 0 0 0 0
FullNghs:      5369.75 ave        6549 max        4557 min
Histogram: 4 4 3 6 4 4 3 2 0 2

Total # of neighbors = 171832
Ave neighs/atom = 159.1037
Neighbor list builds = 3
Dangerous builds = 0

Total wall time: 1:01:56
