
units		metal
atom_style	atomic

read_data ${STRUCTURE}.data
read_data BaTiO3-sc333.data
Reading data file ...
  orthogonal box = (0 0 0) to (11.898253 11.898253 12.912076)
  2 by 4 by 4 MPI processor grid
  reading atoms ...
  135 atoms
  read_data CPU = 0.081 seconds
replicate $L $L $L
replicate 2 $L $L
replicate 2 2 $L
replicate 2 2 2
Replication is creating a 2x2x2 = 8 times larger system...
  orthogonal box = (0 0 0) to (23.796507 23.796507 25.824152)
  2 by 4 by 4 MPI processor grid
  1080 atoms
  replicate CPU = 0.007 seconds

pair_style allegro
pair_coeff	* * ${MODEL}.pth Ba Ti O
pair_coeff	* * BaTiO3-E0.pth Ba Ti O
mass 1 137.3
mass 2 47.9
mass 3 15.9994

timestep 0.002
compute polarization all allegro polarization 3
compute allegro will evaluate the quantity polarization of length 3 (src/compute_allegro.cpp:53)
compute polarizability all allegro polarizability 9
compute allegro will evaluate the quantity polarizability of length 9 (src/compute_allegro.cpp:53)

thermo_style custom pe fmax fnorm spcpu cpuremain

variable efield equal 1e-2*36.36
fix born all addbornforce 0.0 0.0 ${efield}
fix born all addbornforce 0.0 0.0 0.3636

thermo 10
min_style fire
#minimize 0.0 1e-6 100 100
velocity all create ${TEMP} ${SEED} dist gaussian rot yes mom yes
velocity all create 290 ${SEED} dist gaussian rot yes mom yes
velocity all create 290 5652 dist gaussian rot yes mom yes
fix nvt all nvt temp ${TEMP} ${TEMP} $(100*dt)
fix nvt all nvt temp 290 ${TEMP} $(100*dt)
fix nvt all nvt temp 290 290 $(100*dt)
fix nvt all nvt temp 290 290 0.2000000000000000111
run 5000
Neighbor list info ...
  update: every = 1 steps, delay = 0 steps, check = yes
  max neighbors/atom: 2000, page size: 100000
  master list distance cutoff = 8
  ghost atom cutoff = 8
  binsize = 8, bins = 3 3 4
  1 neighbor lists, perpetual/occasional/extra = 1 0 0
  (1) pair allegro/kk, perpetual
      attributes: full, newton on, kokkos_device
      pair build: full/bin/kk/device
      stencil: full/bin/3d
      bin: kk/device
Per MPI rank memory allocation (min/avg/max) = 3.516 | 3.516 | 3.516 Mbytes
    PotEng          Fmax          Fnorm          S/CPU         CPULeft    
-807708.29      1.5954237      37.040843      0              0            
-807648.29      3.1013807      44.604398      2.3883541      2089.3059    
-807637.6       2.439866       34.831139      25.863137      1138.8355    
-807606.89      3.0982516      37.328708      25.882974      821.70514    
-807604.24      4.0023284      50.22467       25.822999      663.05807    
-807570.73      3.4003961      39.984927      25.802352      567.7456     
-807604.41      2.9868364      38.343806      25.871974      503.9889     
-807648.04      3.9352052      34.011382      25.864136      458.34622    
-807685.94      2.6537294      33.83003       25.828412      424.05044    
-807670.11      2.9325559      33.354439      25.823665      397.29375    
-807655.45      3.6883298      33.933995      25.893861      375.75957    
-807661.34      2.0965851      26.871188      25.862982      358.09095    
-807629.97      2.9568586      30.787582      25.849862      343.31062    
-807587.42      3.5068382      39.726094      25.842332      330.74893    
-807571.37      3.1162771      37.574932      25.895308      319.89899    
-807633.93      3.1489472      33.044944      25.874985      310.45403    
-807656.65      3.9643992      30.123109      25.854586      302.15059    
-807667.71      3.0696419      33.787507      25.851122      294.78001    
-807648.71      4.6413082      45.034389      25.888056      288.17062    
-807682.22      3.0080116      35.827862      25.866818      282.22432    
-807643         3.8980733      39.307783      25.829446      276.84742    
-807618.52      3.318623       38.800783      25.87081       271.93161    
-807563.01      3.7886255      45.835091      25.912053      267.41419    
-807607.83      4.0985303      49.289922      25.86188       263.27155    
-807616.17      3.8916266      38.90456       25.845746      259.4467     
-807645.64      3.026679       35.142812      25.901173      255.88115    
-807645.12      4.981431       45.12187       25.888866      252.56353    
-807685.61      2.6171415      36.819863      25.836381      249.47679    
-807664.99      3.0911453      33.907311      25.780679      246.59697    
-807639.81      2.6732126      30.99231       25.867786      243.86781    
-807610.22      3.0043649      32.052293      25.887251      241.29026    
-807607.2       3.7060053      41.447669      25.884031      238.85481    
-807600.61      3.4856618      35.206628      25.772419      236.5719     
-807612.93      3.103584       32.24042       25.882712      234.38043    
-807648.05      3.608599       28.861828      25.884668      232.29474    
-807676.23      2.6746144      31.145159      25.834652      230.3161     
-807680.06      2.359521       31.722954      25.776288      228.43718    
-807645.72      4.1400668      37.798661      25.873479      226.62061    
-807651.42      2.7590536      30.134791      25.88412       224.87737    
-807621.91      4.0880826      33.424017      25.890237      223.20265    
-807603.48      4.1229585      43.342211      25.797303      221.60834    
-807572.26      4.5937985      41.448192      25.886212      220.058      
-807631.35      3.1854585      34.33051       25.910955      218.55906    
-807651.34      4.1836107      36.032098      25.870665      217.11828    
-807675.76      3.1453884      34.976277      25.851971      215.72831    
-807643.13      4.9665905      47.191967      25.899112      214.37581    
-807670.74      2.8838494      34.481273      25.878511      213.06836    
-807644.61      4.1681201      36.522242      25.84925       211.80433    
-807625.65      3.1943595      37.397373      25.859297      210.57542    
-807567.36      3.9678933      42.887889      25.914993      209.37323    
-807608.56      4.3753405      42.201549      25.877781      208.20871    
-807628.41      3.5342475      34.055425      25.86316       207.0766     
-807658         2.5090849      30.885001      25.872212      205.97201    
-807646.76      4.3555027      39.407669      25.891942      204.89203    
-807675.89      2.6637789      32.833406      25.883498      203.83879    
-807669.35      2.4765835      30.675722      25.820885      202.81737    
-807642.63      2.6217248      28.966492      25.859806      201.81399    
-807604.87      2.5520297      32.715749      25.891324      200.82858    
-807600.15      3.1888905      37.472143      25.890448      199.86393    
-807613.09      3.5113721      37.411726      25.80171       198.92882    
-807622.6       3.4783958      32.005055      25.859502      198.00561    
-807643.69      2.932334       31.150009      25.912639      197.09429    
-807665.75      4.2420971      33.276559      25.875363      196.20383    
-807679.69      2.884727       34.808793      25.770619      195.34028    
-807645.71      4.1626257      38.237674      25.829931      194.48551    
-807637.16      2.7230268      32.257669      25.889245      193.6392     
-807613.22      4.2657956      35.493382      25.880625      192.80767    
-807607.49      3.9008327      44.662614      25.802407      191.997      
-807581.9       5.0903937      40.770639      25.84007       191.19519    
-807624.05      3.0154151      35.740258      25.90781       190.39907    
-807648.79      4.2618544      37.497224      25.864865      189.61862    
-807675.75      2.7972657      36.113211      25.804732      188.85471    
-807650         5.2772244      42.436416      25.838811      188.0982     
-807656.82      3.551425       33.954656      25.880349      187.34819    
-807643.89      4.0331024      33.361836      25.84563       186.61099    
-807624.1       4.1850067      36.790481      25.847137      185.88301    
-807578.68      4.4953235      38.315207      25.875017      185.16168    
-807598.13      3.5325794      38.039458      25.907374      184.44639    
-807634.53      3.6153891      30.454012      25.860764      183.74331    
-807661.81      2.6687953      30.820654      25.840643      183.04985    
-807654.87      3.9804488      35.263855      25.834125      182.36456    
-807662.13      3.5339327      34.519219      25.800041      181.68928    
-807668.39      2.8070358      31.074513      25.833585      181.01845    
-807641.85      3.1889183      30.883891      25.849367      180.35326    
-807603.81      3.0018207      35.164436      25.886965      179.69193    
-807587.73      2.9056816      37.12908       25.900911      179.03605    
-807614.84      3.5431756      38.544444      25.85713       178.38959    
-807630.33      3.0729976      32.407574      25.86515       177.74853    
-807645.43      3.0013627      32.703559      25.909938      177.11013    
-807655.44      4.2831043      36.941788      25.902068      176.47794    
-807676.04      2.7312718      35.094595      25.839869      175.85545    
-807650.94      4.0315544      35.810628      25.838587      175.23822    
-807631.74      3.0871116      33.200287      25.89869       174.62202    
-807605.01      3.522372       35.49968       25.915021      174.0097     
-807608.66      3.8292211      43.04338       25.84507       173.40671    
-807598.92      3.7212078      36.248999      25.841553      172.80849    
-807624.22      2.7261499      33.703902      25.918282      172.20985    
-807645.87      4.1008385      35.387725      25.899829      171.61674    
-807675.16      2.8766765      34.610966      25.853591      171.03069    
-807657.92      4.0600598      36.297746      25.824094      170.45046    
-807649.01      3.0946247      32.616802      25.883072      169.87055    
-807637.15      3.2114682      31.23639       25.894147      169.29383    
-807624.14      3.6552644      35.928457      25.880742      168.72162    
-807592.28      3.2993649      36.646782      25.857989      168.15432    
-807597         2.9618718      35.54603       25.877318      167.58941    
-807635.2       3.1795686      29.968707      25.886933      167.02735    
-807662.44      2.541496       30.83179       25.848564      166.47074    
-807661.57      2.8524992      33.099558      25.791225      165.92046    
-807654.15      3.978906       35.210473      25.865211      165.36916    
-807662.46      2.6354914      30.344772      25.865019      164.8209     
-807641.66      3.7338126      30.631058      25.844286      164.27668    
-807611.44      2.9510338      34.591953      25.858699      163.73453    
-807583.56      3.4967192      37.099597      25.881687      163.19397    
-807617.66      3.7942144      35.6928        25.826367      162.65897    
-807637.05      3.16709        31.775918      25.812157      162.12729    
-807653.08      2.7182045      32.629475      25.787667      161.59935    
-807649.77      4.698605       38.562247      25.850314      161.07071    
-807671.08      3.1677205      34.618553      25.826315      160.54568    
-807652.75      3.7395656      34.830247      25.836069      160.02251    
-807631.22      2.880357       33.344109      25.873068      159.49985    
-807596.21      3.6703289      36.816128      25.896493      158.97835    
-807606.66      3.7131525      40.501962      25.863931      158.46062    
-807611.55      3.2354639      34.749151      25.809654      157.94755    
-807633.06      2.9362287      32.12261       25.855197      157.43444    
-807643.04      3.6999771      35.404265      25.860324      156.92313    
-807670.65      2.2939043      33.460918      25.846129      156.41445    
-807661.84      3.3223005      33.400756      25.811896      155.90922    
-807644.95      3.1006475      32.844728      25.85622       155.4039     
-807623.7       3.44715        32.929105      25.862473      154.90017    
-807615.78      3.1928154      35.7197        25.862781      154.39823    
-807599.14      3.8377902      37.99676       25.810228      153.90031    
-807602         3.1119618      35.670264      25.813095      153.40395    
-807632.33      2.948354       31.534631      25.862518      152.90718    
-807659.27      3.5210055      32.807325      25.859967      152.41217    
-807663.55      2.8597996      34.249066      25.808582      151.92088    
-807648.64      5.2894298      36.754281      25.853034      151.42933    
-807649.78      2.9810457      32.572576      25.861247      150.93899    
-807633.01      3.5111597      33.386969      25.89274       150.44892    
-807610.92      3.4348726      37.733021      25.847886      149.96211    
-807584.45      3.9569309      38.439896      25.820771      149.47779    
-807613.89      3.4578591      36.061682      25.786587      148.99618    
-807639.64      4.135904       33.023579      25.807884      148.51509    
-807659.5       2.7102593      32.905247      25.866849      148.03308    
-807648.05      4.3669965      38.391086      25.846113      147.55319    
-807661.78      2.6753709      33.509293      25.891092      147.07292    
-807650.27      3.4555773      33.47992       25.822657      146.59646    
-807631.96      2.8625565      33.641555      25.798044      146.12212    
-807592.73      4.591434       37.111963      25.852553      145.64699    
-807601.93      3.2917801      38.953674      25.86483       145.17262    
-807619.48      3.8735655      34.079712      25.793081      144.70196    
-807641.85      2.8812022      32.22855       25.814854      144.23165    
-807643.53      4.0024781      35.883236      25.854042      143.76108    
-807664.38      3.5255196      33.469075      25.832338      143.29235    
-807661.12      2.8133151      34.10246       25.795149      142.82595    
-807645.14      4.1635242      32.479317      25.817428      142.35983    
-807616.43      3.5707995      34.799228      25.885063      141.89247    
-807609.82      3.4570948      34.85438       25.83424       141.42782    
-807607.6       3.3694388      37.431287      25.777042      140.96604    
-807617.63      2.7747049      32.804008      25.826495      140.50359    
-807633.79      3.2640383      31.716452      25.85028       140.04132    
-807655.82      3.3310268      32.463264      25.814128      139.58114    
-807667.28      3.0095602      33.335443      25.781865      139.12289    
-807651.41      4.6006427      34.664537      25.827664      138.66407    
-807641.15      3.2515792      32.049808      25.856045      138.20525    
-807625.66      3.5788374      33.109884      25.861009      137.74716    
-807614.09      3.3977887      37.40029       25.85569       137.2901     
-807595.52      3.5417868      37.031953      25.859725      136.83376    
-807618.22      3.2162171      33.23712       25.880197      136.37764    
-807641.73      3.1577462      32.223882      25.8649        135.92281    
-807663.35      3.7530023      32.4121        25.850172      135.46922    
-807650.36      3.7056682      36.193998      25.85619       135.01623    
-807655.57      3.086054       32.639182      25.848189      134.56425    
-807644.27      3.7286995      32.498479      25.858263      134.11274    
-807631.51      3.2521616      32.940363      25.843705      133.6624     
-807596.3       3.4766193      36.333472      25.891279      133.21144    
-807601.65      2.9637053      36.37587       25.846924      132.76246    
-807625         3.2565195      32.848893      25.852781      132.31402    
-807649.24      2.9554086      31.635317      25.819733      131.86719    
-807647.29      2.9930656      34.520383      25.809717      131.42129    
-807657         2.8309318      34.081536      25.856414      130.97479    
-807657.37      3.7586182      33.094205      25.833419      130.52957    
-807644.72      3.0443741      31.540632      25.849617      130.08456    
-807614.87      2.9903198      34.147519      25.827571      129.64077    
-807601.44      4.6822504      36.617601      25.835508      129.19739    
-807610.04      3.2642214      36.426152      25.820664      128.75501    
-807626.04      3.7168547      32.713703      25.831755      128.31294    
-807637.48      3.4718509      32.785272      25.835918      127.87135    
-807652.03      3.2476002      33.575625      25.814054      127.43089    
-807662.74      2.7964018      33.852204      25.825652      126.99072    
-807650.92      3.287671       32.962887      25.795428      126.55184    
-807634.37      2.8834667      32.558968      25.855363      126.11205    
-807616.01      3.1288821      33.464311      25.884286      125.6721     
-807612.96      3.4477734      36.813443      25.858417      125.23334    
-807605.88      2.9853873      34.940211      25.8199        124.79603    
-807622.03      2.7759644      33.028931      25.879075      124.35784    
-807639.13      2.8222287      33.462367      25.856507      123.92071    
-807659.49      3.3094168      33.652054      25.83148       123.48468    
-807652.51      3.724102       34.987029      25.830828      123.04915    
-807646.08      3.9737749      34.344756      25.857618      122.61351    
-807634.4       3.5658458      33.95751       25.885157      122.17773    
-807624.32      3.6395633      35.453213      25.853286      121.74316    
-807604.2       3.0110386      36.51199       25.846929      121.30921    
-807605.14      3.9215426      36.037422      25.834254      120.87601    
-807626.19      3.1755432      32.718655      25.845432      120.44301    
-807649.37      3.4899272      32.578193      25.822857      120.01096    
-807649.57      3.8339894      34.272628      25.821302      119.57937    
-807649.83      3.2743273      34.134875      25.8435        119.14775    
-807651.12      2.8767028      31.879048      25.859244      118.71622    
-807641.04      3.3164898      31.866191      25.856895      118.28517    
-807618.16      2.8616188      34.123377      25.847078      117.85475    
-807603.08      2.9174384      35.289936      25.875394      117.42416    
-807615.86      2.8087551      35.3286        25.853015      116.99444    
-807633.73      3.116987       32.200817      25.824143      116.56572    
-807643.62      2.8679958      32.893675      25.841378      116.13704    
-807646.73      3.3121414      34.707102      25.847512      115.70863    
-807659.36      3.7129357      32.738952      25.821334      115.28112    
-807649.62      3.581023       32.816568      25.839942      114.85362    
-807633.02      3.4308211      32.71784       25.829505      114.4267     
-807611.54      4.0015493      34.758042      25.872584      113.9993     
-807613.49      3.2526702      36.340899      25.839629      113.57292    
-807614.68      3.7896736      35.284023      25.834305      113.14699    
-807631.68      3.1257212      32.681617      25.81115       112.72185    
-807640.57      3.4971233      34.573412      25.879346      112.29578    
-807660.45      2.8206294      32.749909      25.854163      111.87052    
-807654.39      3.4620504      34.190253      25.817475      111.44629    
-807645.51      2.7493997      32.003222      25.842152      111.02193    
-807626.45      3.134696       33.512512      25.88191       110.59719    
-807620.79      3.2748971      34.387924      25.870957      110.17298    
-807609.41      3.6890144      35.562359      25.83052       109.74982    
-807613.97      2.7864131      34.16498       25.779131      109.32789    
-807628.84      4.3599639      32.939875      25.807651      108.90575    
-807652.95      2.5348581      31.416444      25.81821       108.48373    
-807656.51      3.502787       33.415193      25.803633      108.06226    
-807648.99      4.8065921      34.400341      25.812457      107.64092    
-807642.18      3.3200209      33.286513      25.856255      107.21914    
-807632.57      4.0099064      33.724927      25.821386      106.79824    
-807615.65      3.9428276      35.918175      25.818694      106.37766    
-807602.08      4.5551774      36.49459       25.85654       105.95675    
-807615.99      3.4113803      34.509534      25.842572      105.53634    
-807636.33      3.7395971      32.78983       25.833419      105.11637    
-807652.86      3.2714287      31.841654      25.836557      104.69662    
-807646.75      3.3574181      35.138063      25.861373      104.27675    
-807652.63      2.668175       32.874965      25.86292       103.85712    
-807644.53      3.4829471      32.414317      25.83299       103.43824    
-807631.98      2.4371563      32.490132      25.829486      103.01967    
-807604.89      3.3595757      35.16715       25.860131      102.60088    
-807608.88      2.8997521      35.962366      25.846607      102.18257    
-807620.4       3.2260343      34.175878      25.786295      101.76543    
-807637.8       3.247547       33.653158      25.80241       101.34829    
-807640.2       4.5868555      35.142052      25.812783      100.93122    
-807654.62      3.2072709      34.077041      25.809745      100.51444    
-807652.76      3.5177725      34.067362      25.822839      100.09769    
-807643.58      2.8133817      33.110555      25.845086      99.680857    
-807619.58      3.0809038      33.856099      25.869728      99.263896    
-807613.08      3.1074609      35.734351      25.853052      98.847416    
-807612.86      2.9163284      35.232094      25.807316      98.431828    
-807621.12      3.5470567      34.204875      25.844097      98.015933    
-807630.71      3.2818716      33.19182       25.851204      97.600163    
-807651.19      4.0723368      32.58092       25.833834      97.184862    
-807655.51      2.9415444      33.702377      25.833205      96.769787    
-807650         3.3867529      33.144118      25.847181      96.354734    
-807634.85      3.4796172      33.354417      25.857516      95.939756    
-807628.18      3.1118914      32.205819      25.861186      95.524943    
-807616.03      3.1778017      34.764658      25.857202      95.110397    
-807609.44      3.1128754      34.588388      25.832445      94.696394    
-807621.09      2.8743444      32.427975      25.854671      94.282299    
-807640.1       3.1072949      31.815165      25.865236      93.86827     
-807653.31      2.4529408      33.010571      25.826215      93.454956    
-807651.17      4.1206652      33.392136      25.821837      93.041894    
-807647.28      2.6338522      32.715362      25.86198       92.628507    
-807640.31      3.0603766      32.055258      25.862639      92.21531     
-807629.33      2.6466876      32.966754      25.838272      91.802616    
-807609.86      3.2500378      34.122005      25.840617      91.390083    
-807610.78      2.9288442      34.934761      25.861672      90.977474    
-807626.77      2.5940676      32.853677      25.871027      90.564939    
-807645.06      2.4720799      31.933371      25.82172       90.153198    
-807647.16      3.1293893      33.442515      25.855554      89.741222    
-807651.95      3.1351403      33.179231      25.835707      89.329667    
-807649.67      2.9398937      32.498577      25.832799      88.918324    
-807642.08      2.5131271      31.270471      25.866259      88.506758    
-807618         2.7661383      33.645612      25.873579      88.095284    
-807610.36      2.829591       34.560619      25.864035      87.684099    
-807614.82      3.1208125      34.823001      25.855283      87.273189    
-807631.83      3.0726936      32.875449      25.831708      86.862721    
-807637.21      3.9423383      33.018425      25.865456      86.452032    
-807649.79      3.5615516      33.343017      25.835484      86.041851    
-807654.01      2.5944365      33.214749      25.822419      85.631979    
-807650.47      3.6147305      32.461975      25.816115      85.222334    
-807632.02      4.5054697      32.722455      25.857081      84.812392    
-807619.07      3.91369        33.759229      25.870279      84.402466    
-807613.37      3.7311482      35.193241      25.849164      83.99293     
-807616.32      3.6948888      35.326391      25.81638       83.583904    
-807627.04      3.8260281      33.28561       25.840524      83.174768    
-807639.72      2.8064926      32.897374      25.853649      82.765644    
-807652.61      3.4903565      33.434136      25.820719      82.357018    
-807653.54      3.6598751      33.037482      25.824766      81.948494    
-807643.32      3.6419702      32.453179      25.815775      81.540207    
-807630.42      3.9687239      32.76951       25.862125      81.131586    
-807623.35      3.4264411      34.013963      25.86119       80.723123    
-807612.24      3.4678936      34.887278      25.847428      80.314943    
-807613.19      3.7166785      34.598088      25.81094       79.90727     
-807628.29      3.5723133      33.513131      25.810167      79.49974     
-807647.08      2.7575437      32.766392      25.796728      79.092474    
-807649.16      3.9301079      34.344198      25.790716      78.685397    
-807649.74      3.0701143      33.711386      25.80913       78.278268    
-807640.36      3.2446474      33.593217      25.827934      77.871089    
-807636.28      3.4003793      32.61039       25.848058      77.463849    
-807617.26      3.207943       34.109445      25.840039      77.056817    
-807608.65      2.5244114      35.19233       25.862746      76.649703    
-807616.7       2.7676083      34.008597      25.872139      76.242635    
-807636.76      2.9078095      32.774999      25.843014      75.835967    
-807643.93      3.2498416      33.168647      25.816915      75.429663    
-807647.85      4.0289421      33.639623      25.842007      75.023254    
-807648.57      3.5171443      32.757418      25.837852      74.617006    
-807644.18      3.5066901      33.519139      25.879907      74.210509    
-807630.02      3.6848875      32.044716      25.857562      73.804334    
-807612.28      3.7560745      34.464121      25.852958      73.398324    
-807610.52      3.4417012      35.671968      25.804925      72.99285     
-807624.36      3.4057444      33.697821      25.811456      72.587432    
-807634.55      2.7011515      32.79499       25.796227      72.182258    
-807641.76      3.9135987      33.241954      25.809772      71.777078    
-807651.16      3.1052891      32.798727      25.854004      71.371639    
-807650.06      3.9541308      32.943289      25.87342       70.966156    
-807641.88      2.8272025      30.885701      25.873546      70.560789    
-807623.68      3.1001243      32.676431      25.896448      70.155353    
-807618.16      2.5991756      33.116751      25.878976      69.750176    
-807615.17      3.0686925      34.844773      25.822214      69.345567    
-807624.78      3.4144635      32.942587      25.82078       68.941076    
-807632.42      3.4122587      33.166827      25.853164      68.536436    
-807648.56      2.6965188      32.197257      25.851072      68.13192     
-807653.23      2.8011752      32.109018      25.829881      67.727675    
-807647.47      3.2485641      32.619336      25.831713      67.323519    
-807636.1       3.1335397      31.731557      25.861625      66.919239    
-807628.4       3.2321978      31.941743      25.891517      66.514841    
-807619.13      3.97807        33.04053       25.855661      66.110818    
-807615.49      3.8442245      34.511959      25.836201      65.707042    
-807623.63      2.9103207      32.453533      25.84516       65.3033      
-807640.09      2.9681307      30.947624      25.841974      64.89968     
-807649.62      2.62681        32.137926      25.818112      64.496331    
-807650.16      2.8372258      32.409545      25.832277      64.092975    
-807644.89      3.2643566      31.938214      25.85146       63.68958     
-807639.47      3.289376       31.680814      25.890089      63.286012    
-807629.99      2.7037282      32.005245      25.858169      62.882766    
-807612.67      2.6507602      34.452801      25.844223      62.479712    
-807615.39      2.9871003      33.762796      25.859019      62.076652    
-807628.33      2.8724271      31.749847      25.836197      61.673839    
-807641.58      2.8007502      31.199182      25.822209      61.271211    
-807646.44      3.5870385      32.572643      25.850158      60.868487    
-807650.26      2.9356072      32.01258       25.833148      60.465966    
-807647.54      3.1461217      31.757434      25.817972      60.063631    
-807639.34      2.6823571      31.914229      25.823364      59.661347    
-807622.04      2.5869316      32.630069      25.85928       59.258921    
-807612.4       3.3020159      34.557292      25.874369      58.856489    
-807616.92      3.4339782      33.549366      25.848837      58.454307    
-807629.63      3.0259669      32.379349      25.852515      58.052188    
-807638.34      2.9672471      32.053314      25.8537        57.650149    
-807647.23      2.916982       32.154676      25.853789      57.248194    
-807651.49      3.2567109      32.523847      25.814839      56.846559    
-807647.2       3.7096123      32.164591      25.835889      56.444877    
-807632.29      2.6879951      32.040362      25.848571      56.043203    
-807619.41      3.487519       33.967195      25.852137      55.64159     
-807615.11      3.0506585      33.751315      25.80866       55.24031     
-807617.66      2.8791932      33.946167      25.796408      54.839177    
-807627.49      2.6834353      31.677753      25.790107      54.438153    
-807640.33      2.9395817      31.363763      25.806353      54.037111    
-807649.68      2.8090999      32.597751      25.806111      53.636145    
-807651.84      3.4008437      31.429788      25.79014       53.23534     
-807640.92      2.8543327      31.991594      25.798662      52.83456     
-807631.73      3.3860265      31.713586      25.863428      52.433504    
-807622.93      2.6615626      33.383743      25.873804      52.03247     
-807613.1       2.8950139      35.14821       25.848818      51.631646    
-807615.44      3.4596507      34.227961      25.836924      51.23096     
-807630.42      3.2008756      32.711734      25.890628      50.83007     
-807643.7       3.6637477      32.293704      25.872303      50.429353    
-807648.98      2.6269596      32.598526      25.842646      50.02886     
-807646.32      3.3760998      32.923565      25.838654      49.62846     
-807641.37      2.4417268      31.502998      25.818526      49.228231    
-807633.12      2.8380029      31.359752      25.856217      48.827885    
-807620.14      2.9777476      32.497883      25.850568      48.427639    
-807611.77      2.4043062      33.792899      25.846177      48.027485    
-807619.19      2.7215737      33.406885      25.849304      47.627385    
-807636.02      2.9796337      31.80642       25.856315      47.227323    
-807641.26      3.1157952      33.061066      25.80852       46.827551    
-807646.38      2.6462021      32.162356      25.78069       46.427971    
-807645.54      3.5648437      33.263516      25.808465      46.028327    
-807643.26      3.0063726      32.515472      25.864666      45.628493    
-807627.93      3.4853595      33.279531      25.897488      45.228584    
-807614.95      2.731575       34.358867      25.93339       44.82859     
-807617.84      3.3406862      33.368283      25.913025      44.428757    
-807623.29      2.8498049      33.934045      25.896959      44.029064    
-807632.53      2.8464265      32.401328      25.821636      43.629759    
-807641.79      2.6840553      32.560532      25.888746      43.230235    
-807648.43      2.7112238      32.6483        25.827962      42.831029    
-807648.89      2.8549724      31.877688      25.81821       42.431924    
-807638.77      2.5555383      31.671639      25.862368      42.032701    
-807626.31      3.2788531      32.628511      25.890099      41.633432    
-807620.4       2.8579874      32.728473      25.89148       41.234223    
-807618.43      3.1710714      33.626689      25.899048      40.83505     
-807622.97      2.6645561      33.167417      25.916496      40.435876    
-807634.92      3.9108455      32.089588      25.932521      40.036708    
-807645.36      2.576869       31.972172      25.922399      39.637646    
-807649.29      2.8943695      32.574683      25.888339      39.238776    
-807646.73      2.9230233      31.519737      25.893489      38.839949    
-807636.57      2.6814988      31.457789      25.963858      38.440933    
-807629.24      2.7272164      31.605497      25.932408      38.042097    
-807618.93      2.86005        33.622454      25.924375      37.643354    
-807618.16      2.8903374      32.843418      25.943761      37.244609    
-807624.26      2.5754448      32.967128      25.926398      36.845987    
-807637.77      3.2962211      32.50468       25.921014      36.447447    
-807647.68      2.7563086      31.978176      25.896107      36.049053    
-807647.45      4.0472028      32.686818      25.869428      35.650805    
-807644.3       2.6184864      32.42485       25.925145      35.252434    
-807638.86      3.0279626      32.390195      25.922986      34.854131    
-807627.79      2.7059751      32.375299      25.927229      34.455876    
-807616.69      3.171441       33.908858      25.925346      34.057687    
-807617.74      2.6355836      32.378635      25.918396      33.65958     
-807627.73      2.9672354      33.166678      25.852067      33.261732    
-807640.05      2.8054245      32.139997      25.830566      32.864       
-807643.79      2.8973717      32.815502      25.884407      32.466161    
-807646.45      3.1531894      32.650324      25.856296      32.068459    
-807645.08      3.7293104      32.289477      25.836994      31.670863    
-807636.54      3.4773919      32.561787      25.907896      31.273119    
-807622.97      2.4235553      32.427037      25.902122      30.875447    
-807613.23      2.8706603      34.195685      25.883631      30.477879    
-807622.23      2.7092216      33.39549       25.854237      30.080444    
-807629.46      2.6131383      33.163653      25.853812      29.683059    
-807637.2       3.6872276      32.941571      25.903335      29.285596    
-807642.9       2.8525873      33.312185      25.925816      28.888129    
-807648.46      2.7879736      33.142594      25.900332      28.490781    
-807645.05      2.6287851      32.658593      25.93137       28.093409    
-807629.22      3.0218214      33.852179      25.954817      27.696034    
-807621.04      3.1489592      33.546865      25.932418      27.298769    
-807618.67      3.0156184      34.009898      25.906907      26.901618    
-807621.22      2.9928285      33.455256      25.875969      26.50459     
-807627.86      2.3237186      32.353012      25.836747      26.107699    
-807637.43      2.5324374      31.868916      25.79777       25.710942    
-807647.87      3.40243        32.441002      25.809297      25.3142      
-807647.2       3.1741494      32.185626      25.859906      24.917392    
-807639.26      2.7110901      32.164138      25.90259       24.52054     
-807630.23      2.8841692      33.382864      25.894758      24.123753    
-807625.2       2.4436537      33.753076      25.906325      23.726991    
-807617.6       3.1933767      33.558402      25.835992      23.330418    
-807619.54      3.6426441      33.290413      25.831168      22.933898    
-807628.95      3.2645494      33.383177      25.903556      22.537281    
-807642.13      2.8995705      32.886525      25.861915      22.14079     
-807646.36      3.2548872      32.9033        25.876731      21.744316    
-807643.21      3.309128       33.126504      25.88736       21.347868    
-807639.19      2.9206003      32.753122      25.87942       20.951479    
-807634.45      2.9491371      32.448041      25.909663      20.555082    
-807621.94      2.9944579      33.549223      25.930107      20.158697    
-807616.8       2.3282302      33.248183      25.91598       19.762384    
-807622.55      3.371306       32.854147      25.922211      19.366106    
-807636.46      2.7699161      31.857425      25.923384      18.969873    
-807640.7       3.7001255      32.75553       25.860326      18.573784    
-807643.45      3.0241258      32.332887      25.889621      18.177693    
-807645.86      3.5097746      32.543215      25.921845      17.781596    
-807641.55      2.9002941      31.709183      25.929511      17.385535    
-807629.3       2.8157686      32.157342      25.929135      16.989519    
-807618.91      2.6286114      32.998644      25.920372      16.59356     
-807620.96      2.9788284      32.822582      25.919611      16.197647    
-807627.81      2.7296214      33.015217      25.901676      15.8018      
-807633.45      3.0703414      32.64874       25.937534      15.405951    
-807640.39      3.320576       33.209041      25.930976      15.010155    
-807647.14      3.9844864      32.799385      25.903748      14.614435    
-807646.81      3.7954682      32.37634       25.927412      14.218729    
-807635.91      3.040171       32.562725      25.925656      13.823069    
-807626.89      3.886057       32.761846      25.934184      13.427441    
-807623.08      3.1152052      33.22412       25.915577      13.031877    
-807622.67      3.6587302      33.247178      25.921995      12.636347    
-807627.21      3.0218185      32.290002      25.884688      12.240895    
-807636.54      2.7915384      31.287564      25.939578      11.845431    
-807645.09      3.1629505      30.976732      25.960615      11.449989    
-807648.84      3.1026058      30.807955      25.927478      11.05462     
-807642.86      3.3178698      31.617961      26.00402       10.659227    
-807635.7       2.6805079      31.558003      25.984704      10.263895    
-807628.35      3.3365514      32.754194      25.999855      9.8685957    
-807623.78      2.9991934      34.044937      25.909401      9.4734091    
-807621.99      4.1545486      33.990939      25.948947      9.0782326    
-807628.17      3.2120886      32.888376      25.965516      8.683086     
-807637.61      4.2190035      33.476655      25.91681       8.2880129    
-807645.84      3.8059843      33.206363      25.863676      7.8930112    
-807643.62      4.2464797      33.111419      25.874608      7.4980379    
-807640.27      2.8885198      32.121064      25.903504      7.1030837    
-807635.65      3.5690503      31.987931      25.936913      6.7081489    
-807627.67      2.6106661      32.711385      25.956647      6.3132432    
-807620.08      2.6427558      33.270167      25.930431      5.9183893    
-807621.01      2.8301324      32.659022      25.956262      5.5235622    
-807632.52      3.1324049      32.414305      25.935889      5.1287825    
-807639.91      2.998732       32.278215      25.986293      4.7340222    
-807641.82      3.4947842      33.24724       25.930859      4.339321     
-807642.98      3.3335179      32.860125      25.922572      3.9446593    
-807641.8       4.5610235      33.22906       25.909476      3.5500375    
-807632.96      2.6297624      32.655814      25.95095       3.1554408    
-807622.91      2.9916178      33.457059      25.95812       2.7608801    
-807618.47      4.1469377      34.368276      25.883953      2.3663707    
-807624.35      3.1524412      34.06159       25.855227      1.9718985    
-807631.91      3.9140094      33.219001      25.90536       1.5774514    
-807636.65      4.3171803      33.523376      25.881212      1.1830404    
-807641.79      3.3490506      33.884702      25.909391      0.7886599    
-807645.27      3.5402641      33.481589      25.916557      0.39431296   
-807639.2       2.6964039      32.836908      25.889134      0            
Loop time of 197.148 on 32 procs for 5000 steps with 1080 atoms

Performance: 4.382 ns/day, 5.476 hours/ns, 25.362 timesteps/s, 27.391 katom-step/s
79.3% CPU use with 32 MPI tasks x 1 OpenMP threads

MPI task timing breakdown:
Section |  min time  |  avg time  |  max time  |%varavg| %total
---------------------------------------------------------------
Pair    | 104.73     | 145.88     | 192.39     | 308.0 | 73.99
Neigh   | 0          | 0          | 0          |   0.0 |  0.00
Comm    | 2.2274     | 48.741     | 89.881     | 532.8 | 24.72
Output  | 0.025489   | 0.02724    | 0.02873    |   0.5 |  0.01
Modify  | 2.1788     | 2.1929     | 2.2046     |   0.4 |  1.11
Other   |            | 0.3109     |            |       |  0.16

Nlocal:          33.75 ave          48 max          21 min
Histogram: 8 8 0 0 0 0 0 8 0 8
Nghost:        1106.25 ave        1119 max        1092 min
Histogram: 8 0 8 0 0 0 0 0 8 8
Neighs:              0 ave           0 max           0 min
Histogram: 32 0 0 0 0 0 0 0 0 0
FullNghs:       5494.5 ave        7896 max        3378 min
Histogram: 8 8 0 0 0 0 0 8 0 8

Total # of neighbors = 175824
Ave neighs/atom = 162.8
Neighbor list builds = 0
Dangerous builds = 0

reset_timestep 0


variable interval equal 1000
thermo 10

variable nintervals equal $(v_PERIOD/v_interval)
variable nintervals equal 100
variable efield equal 1e-2*36.36*cos((step/${PERIOD})*2*3.14)
variable efield equal 1e-2*36.36*cos((step/100000)*2*3.14)
fix born all addbornforce 0.0 0.0 v_efield

variable Px equal f_born[1]+c_polarization[1]
variable Py equal f_born[2]+c_polarization[2]
variable Pz equal (f_born[3]+c_polarization[3])/vol
variable pe equal pe

fix aveP all ave/time 1 $(v_interval/2) ${interval} v_efield v_Pz v_pe f_born file Pz.${MODEL}.${STRUCTURE}.${TEMP}.$L.${ITER}
fix aveP all ave/time 1 500 ${interval} v_efield v_Pz v_pe f_born file Pz.${MODEL}.${STRUCTURE}.${TEMP}.$L.${ITER}
fix aveP all ave/time 1 500 1000 v_efield v_Pz v_pe f_born file Pz.${MODEL}.${STRUCTURE}.${TEMP}.$L.${ITER}
fix aveP all ave/time 1 500 1000 v_efield v_Pz v_pe f_born file Pz.BaTiO3-E0.${STRUCTURE}.${TEMP}.$L.${ITER}
fix aveP all ave/time 1 500 1000 v_efield v_Pz v_pe f_born file Pz.BaTiO3-E0.BaTiO3-sc333.${TEMP}.$L.${ITER}
fix aveP all ave/time 1 500 1000 v_efield v_Pz v_pe f_born file Pz.BaTiO3-E0.BaTiO3-sc333.290.$L.${ITER}
fix aveP all ave/time 1 500 1000 v_efield v_Pz v_pe f_born file Pz.BaTiO3-E0.BaTiO3-sc333.290.2.${ITER}
fix aveP all ave/time 1 500 1000 v_efield v_Pz v_pe f_born file Pz.BaTiO3-E0.BaTiO3-sc333.290.2.4

thermo_style custom step time temp press pe f_born v_efield v_Pz spcpu cpuremain

# dump 4a all custom 1000 dump.hyst.${MODEL}.${STRUCTURE}.${TEMP}.$L.${ITER}.bin id type xu yu zu fx fy fz
# dump_modify 4a sort id

fix nvt all nvt temp ${TEMP} ${TEMP} $(100*dt)
fix nvt all nvt temp 290 ${TEMP} $(100*dt)
fix nvt all nvt temp 290 290 $(100*dt)
fix nvt all nvt temp 290 290 0.2000000000000000111

run $(v_PERIOD)
run 100000
WARNING: non-constant efield is experimental, strongly distrust scalar/vector output (src/fix_addbornforce.cpp:193)
Per MPI rank memory allocation (min/avg/max) = 3.516 | 3.516 | 3.516 Mbytes
   Step          Time           Temp          Press          PotEng         f_born        v_efield         v_Pz          S/CPU         CPULeft    
         0   0              296.74688      128627.73     -807639.2      -297.18485      0.3636         0.055892085    0              0            
        10   0.02           294.40693      135779.48     -807627.83     -308.34623      0.36359993     0.057991237    29.296422      3413.0644    
        20   0.04           297.96804      141627.45     -807622.5      -314.14437      0.36359971     0.059081739    29.284486      3413.4084    
        30   0.06           289.73775      142307.43     -807622.44     -313.1124       0.36359935     0.058887713    29.260518      3414.2294    
        40   0.08           298.31463      140458.71     -807624.72     -312.03628      0.36359885     0.058685405    29.212526      3415.8706    
        50   0.1            303.93755      134585.28     -807630.49     -307.17201      0.36359821     0.057770673    29.253846      3415.7513    
        60   0.12           292.26809      128292.28     -807638.07     -297.9497       0.36359742     0.056036329    29.303443      3414.5947    
        70   0.14           289.6647       123629.95     -807645.99     -289.65841      0.36359649     0.054477099    29.247082      3414.6099    
        80   0.16           283.57427      125326.02     -807642.82     -292.10867      0.36359541     0.054938092    29.228574      3414.8063    
        90   0.18           291.23252      129078.52     -807635.4      -300.8185       0.36359419     0.056576375    29.279737      3414.2197    
       100   0.2            295.93501      136097.04     -807628.71     -308.2624       0.36359283     0.057976603    29.29801       3413.4686    
       110   0.22           293.53593      140359.02     -807625.48     -311.17032      0.36359132     0.058523754    29.204601      3413.7837    
       120   0.24           284.43221      143382.91     -807620.54     -315.00675      0.36358968     0.059245564    29.204917      3413.9862    
       130   0.26           297.73039      140294.44     -807623.75     -313.92454      0.36358788     0.059042315    29.231491      3413.8656    
       140   0.28           302.6236       133221.96     -807633.37     -305.04266      0.36358595     0.057372134    29.30162       3413.1297    
       150   0.3            284.17971      126707.97     -807642.01     -293.96527      0.36358387     0.055289026    29.294797      3412.4984    
       160   0.32           277.80845      123939.35     -807643.77     -291.5514       0.36358165     0.05483536     29.345231      3411.5382    
       170   0.34           269.7328       125631.24     -807638.99     -295.46641      0.36357928     0.055572061    29.341731      3410.6744    
       180   0.36           294.59789      129694.42     -807637.62     -300.5311       0.36357677     0.056525032    29.360961      3409.7448    
       190   0.38           293.75903      135774.67     -807632.26     -306.04597      0.36357412     0.05756271     29.351704      3408.934     
       200   0.4            279.20827      141403.67     -807622.91     -313.67203      0.36357132     0.058997512    29.359287      3408.1261    
       210   0.42           283.79351      142643.77     -807620.17     -317.33581      0.36356838     0.059687102    29.367736      3407.3161    
       220   0.44           290.297        137856.57     -807628.5      -310.12189      0.3635653      0.058330744    29.370712      3406.5329    
       230   0.46           287.82645      132162.42     -807637.16     -301.22212      0.36356207     0.056657292    29.324274      3406.0226    
       240   0.48           276.21581      126004.58     -807641.45     -295.54642      0.3635587      0.055590257    29.316444      3405.564     
       250   0.5            266.98014      124412.9      -807641.44     -294.37253      0.36355519     0.055369991    29.317321      3405.1108    
       260   0.52           287.0394       124982.71     -807644.61     -294.15827      0.36355153     0.055330246    29.301416      3404.7371    
       270   0.54           276.8417       131951.19     -807637.16     -300.26186      0.36354773     0.056478903    29.230011      3404.6739    
       280   0.56           290.451        136830.21     -807629.94     -309.50976      0.36354379     0.058219053    29.285498      3404.3598    
       290   0.58           273.09055      142800.85     -807620.69     -316.33572      0.3635397      0.059503691    29.288559      3404.0316    
       300   0.6            281.37493      140500.96     -807624.87     -313.35852      0.36353547     0.058944356    29.321127      3403.5767    
       310   0.62           284.38264      136913.49     -807630.04     -308.46077      0.3635311      0.058023762    29.309009      3403.1741    
       320   0.64           279.59316      130734.46     -807635.16     -302.69552      0.36352658     0.056939983    29.315682      3402.7513    
       330   0.66           271.85905      127811.61     -807639.5      -297.15041      0.36352192     0.055897611    29.298202      3402.395     
       340   0.68           272.3057       124342.33     -807644.59     -291.98367      0.36351712     0.054926409    29.285923      3402.0814    
       350   0.7            279.81632      126453.75     -807642.67     -294.75307      0.36351217     0.055448129    29.2882        3401.7587    
       360   0.72           287.56762      130882.91     -807635.49     -302.97213      0.36350708     0.056995074    29.323223      3401.3222    
       370   0.74           283.41066      138446.28     -807626.38     -311.28543      0.36350185     0.058559813    29.30511       3400.9475    
       380   0.76           284.13759      139608.88     -807625.12     -312.42713      0.36349647     0.058775463    29.329344      3400.5007    
       390   0.78           294.50313      140713.99     -807626.35     -312.36641      0.36349095     0.058764932    29.392658      3399.8717    
       400   0.8            280.03243      136534.72     -807627.72     -308.80392      0.36348529     0.058095632    29.355736      3399.3637    
       410   0.82           287.21112      131161.1      -807634.7      -302.49486      0.36347948     0.056909612    29.330623      3398.9347    
       420   0.84           275.43459      125851.14     -807641.91     -293.3768       0.36347353     0.055195096    29.27183       3398.6723    
       430   0.86           282.35738      125030.15     -807643.7      -292.29555      0.36346744     0.054992596    29.331296      3398.2458    
       440   0.88           283.67162      126786.76     -807639.45     -296.65931      0.3634612      0.055814552    29.292076      3397.9265    
       450   0.9            291.0857       133550.89     -807632.72     -304.27401      0.36345482     0.057248215    29.25864       3397.6924    
       460   0.92           303.52338      137084.82     -807629.86     -308.76497      0.3634483      0.058094217    29.238201      3397.5055    
       470   0.94           281.70724      141933.31     -807622.12     -313.32604      0.36344163     0.058953466    29.2813        3397.2053    
       480   0.96           294.10357      140916.42     -807623.86     -313.29215      0.36343482     0.058948193    29.304372      3396.8476    
       490   0.98           299.14859      136242.64     -807629.1      -308.66779      0.36342786     0.058079197    29.284091      3396.5387    
       500   1              289.22156      130387.84     -807637.29     -298.99708      0.36342077     0.056260647    29.248253      3396.3116    
       510   1.02           281.41682      126353.64     -807642.06     -9376.5729      0.36341353     0.055136676    29.105395      3396.4076    
       520   1.04           290.17095      124872.08     -807642.13     -9413.8753      0.36340614     0.055357149    29.132933      3396.4243    
       530   1.06           288.42646      128108.97     -807637.86     -9543.3588      0.36339862     0.056119723    29.133069      3396.4272    
       540   1.08           288.51838      133815.79     -807632.97     -9697.5906      0.36339095     0.057027888    29.223932      3396.2208    
       550   1.1            290.33106      138774.45     -807626.32     -9918.8813      0.36338313     0.058330469    29.215691      3396.0269    
       560   1.12           289.57095      141843.77     -807621.26     -10078.33       0.36337518     0.059269448    29.217021      3395.8249    
       570   1.14           285.85507      140203.69     -807623.05     -10001.892      0.36336707     0.058821236    29.244931      3395.561     
       580   1.16           298.41251      134591.53     -807632.76     -9744.3531      0.36335883     0.057307945    29.216943      3395.3504    
       590   1.18           293.82341      128757.33     -807638.15     -9548.2311      0.36335044     0.056155819    29.245947      3395.0783    
       600   1.2            286.05489      126422.67     -807640.43     -9441.1164      0.36334191     0.055527151    29.220646      3394.8529    
       610   1.22           272.20401      126253.87     -807639.9      -9395.3365      0.36333324     0.055259219    29.141732      3394.7747    
       620   1.24           298.21551      128181.23     -807640.07     -9503.2166      0.36332442     0.055895079    29.141951      3394.6875    
       630   1.26           291.25468      133723.57     -807631.08     -9761.0312      0.36331546     0.057412883    29.208808      3394.4683    
       640   1.28           292.27411      140255.58     -807623.91     -9993.9911      0.36330636     0.05878459     29.208986      3394.2449    
       650   1.3            294.8376       140672.76     -807623.17     -10027.813      0.36329711     0.05898503     29.215173      3394.0068    
       660   1.32           307.54104      139259.58     -807627.88     -9929.7787      0.36328772     0.05840989     29.200861      3393.7908    
       670   1.34           292.82208      134760.07     -807631.16     -9759.0413      0.36327819     0.057407068    29.245242      3393.4939    
       680   1.36           295.47981      129711.34     -807636.74     -9589.094       0.36326851     0.056408864    29.22565       3393.2292    
       690   1.38           283.00412      124970.12     -807641.67     -9375.1155      0.36325869     0.055151604    29.120555      3393.14      
       700   1.4            282.42899      126823.58     -807641.71     -9370.0445      0.36324873     0.055123284    29.129376      3393.0288    
       710   1.42           285.361        128797        -807636.13     -9562.9265      0.36323863     0.05625956     29.174657      3392.8365    
       720   1.44           297.55878      135555.89     -807629.14     -9840.6244      0.36322838     0.057894916    29.230692      3392.5495    
       730   1.46           297.11203      138584.99     -807626.15     -9935.4943      0.36321798     0.058454732    29.22769       3392.2657    
       740   1.48           297.60912      142293        -807623.9      -10005.662      0.36320745     0.058869267    29.212437      3392.0043    
       750   1.5            294.32239      137779.75     -807626.17     -9921.0081      0.36319677     0.058372914    29.241736      3391.6954    
       760   1.52           289.22981      134817.46     -807630.14     -9767.5665      0.36318595     0.057471811    29.257062      3391.3621    
       770   1.54           290.92314      126949.61     -807640.37     -9449.3479      0.36317498     0.055601109    29.218022      3391.0876    
       780   1.56           284.20386      127331        -807640.88     -9398.657       0.36316387     0.05530453     29.193568      3390.8477    
       790   1.58           280.43094      125518.25     -807639.67     -9425.4754      0.36315262     0.055464056    29.245654      3390.5286    
       800   1.6            301.01857      132117.15     -807635.11     -9662.0139      0.36314122     0.056857747    29.247721      3390.206     
       810   1.62           287.31612      135164.05     -807629.85     -9775.287       0.36312968     0.057526149    29.252083      3389.8767    
       820   1.64           295.15285      142013.63     -807624.04     -9992.9194      0.363118       0.058808776    29.249758      3389.5503    
       830   1.66           302.52131      138511.02     -807624.63     -10010.139      0.36310618     0.05891203     29.244859      3389.2304    
       840   1.68           283.92071      138339.02     -807625.11     -9910.6662      0.36309421     0.058328535    29.224761      3388.9378    
       850   1.7            297.60043      130997.58     -807636.24     -9619.029       0.3630821      0.056614013    29.206865      3388.6684    
       860   1.72           288.80005      128205.04     -807639.31     -9481.3931      0.36306984     0.055805823    29.132589      3388.498     
       870   1.74           280.99182      124750.71     -807640.49     -9413.2976      0.36305745     0.055406917    29.137065      3388.3176    
       880   1.76           289.42998      127607.77     -807639.45     -9485.2319      0.3630449      0.055832253    29.190877      3388.0621    
       890   1.78           292.17875      130216.25     -807636.56     -9594.0045      0.36303222     0.056474486    29.206281      3387.7847    
       900   1.8            299.25935      136541.44     -807628.92     -9873.0972      0.36301939     0.058119401    29.243301      3387.4582    
       910   1.82           292.41481      140165.53     -807624.13     -10003.643      0.36300642     0.058889983    29.239049      3387.1366    
       920   1.84           287.14832      140661.23     -807623.36     -10006.856      0.36299331     0.058911025    29.20938       3386.852     
       930   1.86           285.28534      135176.62     -807629.46     -9808.4982      0.36298005     0.057745387    29.174331      3386.61      
       940   1.88           289.38735      132036.52     -807635.06     -9650.897       0.36296665     0.056819643    29.231139      3386.2956    
       950   1.9            277.5006       127033.93     -807637.33     -9530.0627      0.36295311     0.056110324    29.187718      3386.0337    
       960   1.92           281.22905      125966.83     -807641.83     -9404.1427      0.36293942     0.055371031    29.211436      3385.7415    
       970   1.94           284.04203      127585.99     -807641.16     -9442.1498      0.36292559     0.055596933    29.182191      3385.4832    
       980   1.96           287.57258      131779.13     -807634.56     -9673.9732      0.36291162     0.05696414     29.20699       3385.1938    
       990   1.98           289.10842      137489.25     -807627.57     -9909.4527      0.3628975      0.058353005    29.243701      3384.8604    
      1000   2              283.49659      139525.27     -807625.68     -9946.9803      0.36288325     0.058576292    29.219298      3384.5551    
      1010   2.02           282.53879      139113.59     -807626.93     -309.50436      0.36286884     0.058326324    29.323637      3384.1296    
      1020   2.04           279.39586      135511.68     -807629.27     -306.87337      0.3628543      0.05783283     29.313864      3383.7169    
      1030   2.06           287.17297      131974.12     -807634.97     -302.24812      0.36283961     0.05696347     29.318383      3383.3005    
      1040   2.08           283.6194       126344.25     -807641.66     -295.10678      0.36282478     0.055619843    29.326388      3382.8767    
      1050   2.1            274.65495      127336.72     -807641.93     -293.60011      0.3628098      0.055338161    29.312069      3382.4702    
      1060   2.12           279.8807       128381.97     -807639.26     -297.08979      0.36279469     0.055998234    29.310107      3382.067     
      1070   2.14           276.57202      133646.14     -807631.32     -304.56307      0.36277943     0.057409281    29.296979      3381.6791    
      1080   2.16           290.59552      135572.27     -807630.6      -307.29361      0.36276402     0.05792644     29.299935      3381.289     
      1090   2.18           282.30389      139992.4      -807625.52     -311.05853      0.36274848     0.05863866     29.312483      3380.8865    
      1100   2.2            285.25333      137867        -807627.14     -309.83044      0.36273279     0.058409675    29.301866      3380.4961    
      1110   2.22           288.25409      136017.1      -807630.1      -307.10027      0.36271695     0.057897506    29.196556      3380.2164    
      1120   2.24           293.18024      130105.35     -807638.7      -299.08219      0.36270098     0.056388345    29.208331      3379.9233    
      1130   2.26           284.31021      127586.84     -807641.12     -295.21805      0.36268486     0.055662281    29.202207      3379.6357    
      1140   2.28           269.82487      126262.57     -807638.9      -295.26728      0.3626686      0.055674059    29.215989      3379.3331    
      1150   2.3            276.09854      129514.81     -807636.23     -298.59248      0.36265219     0.056303589    29.235843      3379.0098    
      1160   2.32           287.1615       132370.6      -807633.49     -302.63253      0.36263564     0.057067999    29.297543      3378.6248    
      1170   2.34           285.41966      137760.4      -807627.15     -308.39619      0.36261895     0.05815754     29.302345      3378.2358    
      1180   2.36           290.36402      139596.49     -807624.27     -311.62965      0.36260212     0.058770035    29.324088      3377.8265    
      1190   2.38           294.62669      138638.73     -807625.88     -310.25851      0.36258514     0.058514192    29.309939      3377.4319    
      1200   2.4            306.0155       134229.22     -807632.88     -304.46525      0.36256802     0.057424306    29.291933      3377.0556    
      1210   2.42           303.20596      129198.55     -807638.14     -298.57346      0.36255076     0.056315753    29.301542      3376.6706    
      1220   2.44           280.62945      127333.84     -807637.77     -295.5333       0.36253335     0.055745007    29.326592      3376.2628    
      1230   2.46           273.47768      127462.39     -807637.6      -294.50809      0.3625158      0.055554316    29.318347      3375.8638    
      1240   2.48           287.53995      129884.59     -807636.41     -297.42423      0.36249811     0.056107137    29.313587      3375.4701    
      1250   2.5            304.6662       132535.27     -807633.16     -303.01337      0.36248028     0.057164305    29.335864      3375.0568    
      1260   2.52           297.55696      138852.04     -807625.05     -310.01448      0.3624623      0.058487984    29.343481      3374.6377    
      1270   2.54           303.14053      139334.98     -807625.5      -310.21727      0.36244418     0.058529169    29.328232      3374.2336    
      1280   2.56           302.92576      138040.15     -807627.69     -307.88512      0.36242592     0.058092087    29.311493      3373.8455    
      1290   2.58           300.17051      133574.97     -807631.8      -303.39578      0.36240751     0.057247941    29.312399      3373.4573    
      1300   2.6            296.64144      130806.38     -807635.2      -299.45912      0.36238896     0.056508021    29.310767      3373.0713    
      1310   2.62           286.86343      127155.23     -807638.53     -294.73486      0.36237027     0.055619422    29.291879      3372.7026    
      1320   2.64           276.9731       128022.64     -807638.22     -293.63578      0.36235143     0.055414894    29.267193      3372.3558    
      1330   2.66           299.90183      129251.12     -807636.44     -298.65276      0.36233245     0.056364649    29.21202       3372.0569    
      1340   2.68           303.26986      134393.77     -807630.11     -305.44552      0.36231333     0.057649688    29.2246        3371.7466    
      1350   2.7            299.53453      137798.02     -807626.12     -308.94108      0.36229407     0.05831254     29.271261      3371.3959    
      1360   2.72           298.18347      139247.03     -807625.75     -309.16408      0.36227466     0.058357757    29.311955      3371.0109    
      1370   2.74           287.02083      138123.6      -807625.47     -307.96732      0.36225511     0.058134994    29.29457       3370.6412    
      1380   2.76           305.46898      134073.72     -807632        -304.03465      0.36223542     0.057395744    29.330185      3370.2423    
      1390   2.78           284.58484      129690.01     -807635.52     -297.67634      0.36221558     0.056198498    29.311877      3369.8593    
      1400   2.8            293.73668      127520.03     -807640.79     -293.66506      0.3621956      0.055444263    29.328647      3369.4631    
      1410   2.82           288.16083      127872.62     -807638.49     -295.37408      0.36217548     0.055770027    29.324995      3369.0707    
      1420   2.84           304.31313      130127.46     -807636.11     -300.18043      0.36215522     0.056680692    29.318834      3368.684     
      1430   2.86           292.40581      134877.56     -807630.02     -304.76939      0.36213481     0.057550433    29.306346      3368.308     
      1440   2.88           289.98107      138632.85     -807626.38     -308.21491      0.36211426     0.058204362    29.341557      3367.9044    
      1450   2.9            285.79455      138899.44     -807624.56     -309.66163      0.36209357     0.058480907    29.354399      3367.4916    
      1460   2.92           292.543        137723.52     -807627.43     -307.84358      0.36207273     0.058140906    29.322893      3367.1044    
      1470   2.94           289.92062      132663.91     -807632.75     -302.32537      0.36205176     0.057102017    29.306538      3366.7307    
      1480   2.96           284.30002      129118.98     -807637.74     -296.60066      0.36203064     0.056024025    29.329205      3366.3398    
      1490   2.98           289.94985      126660.83     -807642.18     -293.12103      0.36200937     0.055370021    29.306405      3365.9671    
      1500   3              282.83713      128927.18     -807637.57     -296.83907      0.36198796     0.056075668    29.205929      3365.672     
      1510   3.02           292.7296       130260.51     -807636.08     -9598.1891      0.36196642     0.056665479    29.186128      3365.3913    
      1520   3.04           287.40345      135784.15     -807630.17     -9768.0376      0.36194472     0.057671681    29.16178       3365.1283    
      1530   3.06           280.01575      138446.2      -807626.33     -9863.7641      0.36192289     0.058240376    29.190608      3364.8426    
      1540   3.08           281.2639       140518.08     -807623.96     -9946.8096      0.36190091     0.058734282    29.168196      3364.5729    
      1550   3.1            293.91873      135609.8      -807630.28     -9805.2659      0.36187879     0.057902029    29.238277      3364.2501    
      1560   3.12           290.11702      132124.11     -807635.62     -9616.8255      0.36185653     0.056792746    29.19162       3363.9616    
      1570   3.14           281.48297      127501.22     -807639.12     -9467.4643      0.36183412     0.055914146    29.135558      3363.7136    
      1580   3.16           274.7457       126752.88     -807639.26     -9435.4903      0.36181157     0.055728782    29.117238      3363.4779    
      1590   3.18           276.96486      128064.59     -807638.88     -9458.2302      0.36178888     0.055866595    29.192918      3363.1858    
      1600   3.2            287.68463      132274.35     -807636.35     -9587.3581      0.36176605     0.056632884    29.203891      3362.8851    
      1610   3.22           294.02962      136637.94     -807630.37     -9808.2411      0.36174307     0.057941328    29.225601      3362.5683    
      1620   3.24           281.64314      139265.41     -807624.73     -9934.1936      0.36171995     0.058689133    29.244327      3362.238     
      1630   3.26           286.2171       138905.35     -807626.98     -9878.0913      0.36169669     0.058361445    29.231747      3361.9163    
      1640   3.28           297.43487      134111.33     -807632.55     -9750.0196      0.36167329     0.057608503    29.254114      3361.5788    
      1650   3.3            287.56835      131340.79     -807634.44     -9642.732       0.36164974     0.056978299    29.248269      3361.2452    
      1660   3.32           271.87483      127554.76     -807637.89     -9461.0527      0.36162605     0.05590843     29.22797       3360.9256    
      1670   3.34           276.8188       128159.24     -807640.11     -9405.9148      0.36160222     0.055586265    29.216066      3360.614     
      1680   3.36           282.00213      126930.25     -807639.9      -9433.3164      0.36157824     0.055751897    29.253026      3360.2766    
      1690   3.38           292.17953      133510.33     -807633.44     -9676.1066      0.36155413     0.057190627    29.29479       3359.9109    
      1700   3.4            287.26427      135080.72     -807628.72     -9797.8785      0.36152987     0.057914246    29.329036      3359.5225    
      1710   3.42           291.47735      140193.23     -807625.19     -9912.8868      0.36150546     0.058598004    29.30277       3359.1521    
      1720   3.44           292.08464      137229.29     -807627.97     -9813.2915      0.36148092     0.058013205    29.263261      3358.8084    
      1730   3.46           296.16303      137269.92     -807628.07     -9805.7862      0.36145623     0.057972796    29.246973      3358.4756    
      1740   3.48           292.77308      130131.5      -807634.79     -9562.0149      0.3614314      0.056535479    29.240086      3358.1471    
      1750   3.5            294.6977       129682.9      -807638.38     -9438.2931      0.36140643     0.055807829    29.18385       3357.8555    
      1760   3.52           279.13606      125718.04     -807639.12     -9337.4237      0.36138131     0.055215234    29.182315      3357.5644    
      1770   3.54           295.56016      130974.59     -807635.22     -9523.196       0.36135605     0.056317702    29.162766      3357.2854    
      1780   3.56           306.42929      131333.94     -807633.77     -9616.7031      0.36133065     0.056874677    29.140461      3357.0202    
      1790   3.58           300.3742       138690.67     -807626.36     -9818.5594      0.36130511     0.058072592    29.198002      3356.717     
      1800   3.6            296.937        138614.25     -807625.13     -9842.6794      0.36127942     0.05821939     29.243538      3356.3843    
      1810   3.62           310.81137      139082.38     -807625.7      -9880.5277      0.3612536      0.058447441    29.25577       3356.0437    
      1820   3.64           300.73273      134482.79     -807629.24     -9723.8789      0.36122763     0.057524933    29.236755      3355.7151    
      1830   3.66           297.00056      131670.32     -807633.94     -9552.9298      0.36120151     0.056517711    29.228298      3355.3916    
      1840   3.68           297.57754      126663.12     -807639.26     -9387.0103      0.36117526     0.055540124    29.185777      3355.0946    
      1850   3.7            290.64519      128158.89     -807637.59     -9407.7889      0.36114886     0.055667133    29.203165      3354.7862    
      1860   3.72           298.64673      129532.59     -807635.87     -9502.189       0.36112232     0.056229843    29.273187      3354.4343    
      1870   3.74           295.75994      134704.17     -807630.83     -9653.2736      0.36109564     0.057128117    29.265732      3354.087     
      1880   3.76           302.45398      137766.11     -807627.21     -9803.0424      0.36106881     0.05801876     29.199681      3353.7801    
      1890   3.78           303.76202      138670.54     -807625.3      -9873.2894      0.36104184     0.058438878    29.202742      3353.471     
      1900   3.8            302.09971      138214.38     -807626.04     -9847.4078      0.36101474     0.058290064    29.282442      3353.1134    
      1910   3.82           299.98527      133827.22     -807631.27     -9675.6081      0.36098748     0.057277449    29.23081       3352.787     
      1920   3.84           299.93196      130942.73     -807635.85     -9532.9848      0.36096009     0.056437433    29.195233      3352.4817    
      1930   3.86           289.29862      127789.23     -807639.14     -9388.3018      0.36093255     0.055585118    29.198585      3352.1739    
      1940   3.88           282.72523      128688.24     -807637.57     -9414.605       0.36090487     0.055745126    29.228077      3351.8484    
      1950   3.9            295.68604      128960.77     -807637.33     -9486.8582      0.36087705     0.056177277    29.259984      3351.504     
      1960   3.92           299.16634      133857.59     -807632.31     -9668.7854      0.36084909     0.057259012    29.238636      3351.1721    
      1970   3.94           288.4555       137120.55     -807627.5      -9782.8971      0.36082098     0.0579393      29.164922      3350.883     
      1980   3.96           286.85969      140120.96     -807624.29     -9883.1414      0.36079273     0.058537581    29.243174      3350.548     
      1990   3.98           296.87963      136396.71     -807628.92     -9786.0045      0.36076434     0.057966803    29.232218      3350.2193    
      2000   4              296.16855      133881.29     -807632.78     -9662.4273      0.36073581     0.057239328    29.235197      3349.8887    
      2010   4.02           284.62073      130208.93     -807636.49     -296.7434       0.36070713     0.056256649    29.296498      3349.5231    
      2020   4.04           280.30851      127917.03     -807638.59     -294.22741      0.36067831     0.055784124    29.263543      3349.1764    
      2030   4.06           285.07531      127389.47     -807639.59     -293.91975      0.36064935     0.055730267    29.258221      3348.8327    
      2040   4.08           289.99236      129987.21     -807637.38     -296.94646      0.36062025     0.056308707    29.302956      3348.464     
      2050   4.1            291.17595      133708.67     -807631.96     -302.67935      0.36059101     0.057400467    29.31112       3348.091     
      2060   4.12           289.91724      138042.08     -807627.39     -307.16345      0.36056162     0.058255583    29.294251      3347.7277    
      2070   4.14           285.97346      137881.36     -807626.77     -307.29563      0.36053209     0.058285426    29.226263      3347.4021    
      2080   4.16           286.24556      136657.21     -807628.47     -305.60454      0.36050242     0.057969444    29.229873      3347.0745    
      2090   4.18           287.295        133068.13     -807632.42     -301.8569       0.36047261     0.057263299    29.282203      3346.718     
      2100   4.2            285.35215      129286.63     -807636.72     -297.24576      0.36044265     0.056393235    29.292974      3346.3558    
      2110   4.22           280.45109      126937.41     -807640.25     -293.03232      0.36041256     0.055598506    29.32703       3345.9754    
      2120   4.24           284.64599      127370.24     -807640.07     -293.75391      0.36038232     0.055740095    29.31229       3345.6033    
      2130   4.26           289.77448      129809.05     -807636.56     -297.9895       0.36035193     0.05654857     29.303831      3345.2361    
      2140   4.28           295.94582      134619.78     -807632.3      -303.12211      0.36032141     0.057527443    29.271846      3344.8861    
      2150   4.3            287.87617      137392.68     -807628.61     -305.6414       0.36029075     0.058010498    29.22686       3344.5601    
      2160   4.32           288.67347      138455.69     -807627.4      -306.87349      0.36025994     0.058249328    29.23195       3344.2313    
      2170   4.34           284.04159      136331.59     -807628.43     -305.15618      0.36022899     0.057928333    29.241848      3343.8971    
      2180   4.36           286.16494      132936.9      -807633.06     -300.7545       0.36019789     0.057097682    29.23198       3343.568     
      2190   4.38           278.00432      129762.19     -807637.17     -295.37069      0.36016666     0.056080439    29.238152      3343.2356    
      2200   4.4            274.01852      127338.11     -807638.99     -292.81206      0.36013528     0.05559949     29.261288      3342.8911    
      2210   4.42           296.55853      128123.1      -807639.77     -295.01348      0.36010377     0.0560224      29.240928      3342.5572    
      2220   4.44           282.40394      131050.1      -807634.58     -298.11182      0.36007211     0.056615745    29.277886      3342.2041    
      2230   4.46           298.27617      135716.26     -807632.01     -302.64151      0.3600403      0.057481077    29.263931      3341.8583    
      2240   4.48           286.97302      136528.62     -807628.1      -304.83941      0.36000836     0.057903665    29.266498      3341.5113    
      2250   4.5            295.40582      139093.04     -807626.77     -307.00003      0.35997627     0.058319267    29.296367      3341.1491    
      2260   4.52           289.09221      134920.02     -807629.41     -303.29911      0.35994404     0.05762138     29.335971      3340.7672    
      2270   4.54           295.35807      133102.61     -807633.55     -299.69028      0.35991167     0.056940888    29.288798      3340.4093    
      2280   4.56           290.39622      128508.38     -807638.12     -294.09855      0.35987916     0.055883512    29.273797      3340.0591    
      2290   4.58           280.08857      128929.71     -807636.55     -293.87634      0.35984651     0.055846358    29.202224      3339.7446    
      2300   4.6            291.55133      128154.37     -807637.85     -293.88485      0.35981371     0.055853064    29.232941      3339.4146    
      2310   4.62           296.46839      132274.84     -807633.51     -298.58396      0.35978077     0.056751329    29.272415      3339.065     
      2320   4.64           299.98411      134483.42     -807629.83     -302.50374      0.35974769     0.057501643    29.284335      3338.7096    
      2330   4.66           298.14145      138129.36     -807625.6      -306.16994      0.35971447     0.058203909    29.220472      3338.3856    
      2340   4.68           305.42458      137491.46     -807626.39     -306.22552      0.35968111     0.058219875    29.235585      3338.0541    
      2350   4.7            309.74598      136061.47     -807629.98     -303.05289      0.3596476      0.057622059    29.272798      3337.7044    
      2360   4.72           293.80903      132872.96     -807632.04     -298.57469      0.35961396     0.056775892    29.267676      3337.3573    
      2370   4.74           298.33955      129323.68     -807636.47     -294.69908      0.35958017     0.056044186    29.278975      3337.0048    
      2380   4.76           294.05657      128234.68     -807637.89     -292.61308      0.35954624     0.055652735    29.291818      3336.6462    
      2390   4.78           290.73359      129422.12     -807636.86     -293.14077      0.35951216     0.05575838     29.304833      3336.2816    
      2400   4.8            294.9054       132901.2      -807632.28     -298.27117      0.35947795     0.056739635    29.27897       3335.9294    
      2410   4.82           306.02183      135172.03     -807629.7      -302.45898      0.35944359     0.057541775    29.281388      3335.5762    
      2420   4.84           309.14952      137885.6      -807628.05     -304.5356       0.35940909     0.057942406    29.284078      3335.2218    
      2430   4.86           299.30177      136956.76     -807627.52     -303.77369      0.35937446     0.057803012    29.293717      3334.863     
      2440   4.88           306.28218      135601.51     -807630.03     -302.27279      0.35933967     0.057522983    29.303891      3334.4996    
      2450   4.9            292.69383      131226.96     -807632.84     -297.66565      0.35930475     0.056651744    29.287983      3334.1438    
      2460   4.92           293.07509      130216.37     -807636.65     -293.92499      0.35926969     0.055945281    29.20354       3333.8272    
      2470   4.94           286.89357      129185.25     -807637.33     -292.45282      0.35923448     0.055670525    29.24904       3333.4894    
      2480   4.96           293.26606      130830.27     -807635.48     -295.34712      0.35919913     0.056227009    29.280784      3333.137     
      2490   4.98           301.37465      132940.44     -807633.52     -298.51291      0.35916364     0.056835315    29.267975      3332.7905    
      2500   5              296.79365      136388.38     -807629.12     -302.35919      0.35912801     0.057573338    29.293813      3332.4323    
[...]
     98740   197.48         288.96343      132734.69     -807632.3      -9660.7486      0.36236891     0.056971465    28.278019      44.525381    
     98750   197.5          297.99803      134199.49     -807631.21     -9736.6081      0.36238762     0.057415861    28.259919      44.172011    
     98760   197.52         297.74951      132099.69     -807633.09     -9681.8031      0.36240618     0.057089757    28.329324      43.81863     
     98770   197.54         283.95969      133071.4      -807632.41     -9644.216       0.36242459     0.056865231    28.314171      43.465252    
     98780   197.56         285.90358      131993.8      -807634.14     -9602.6036      0.36244287     0.056617017    28.282761      43.111878    
     98790   197.58         286.59867      132795.07     -807633.01     -9645.8758      0.362461       0.056869305    28.239285      42.758511    
     98800   197.6          300.98892      133273.75     -807632.95     -9716.1462      0.36247899     0.057280757    28.259093      42.405141    
     98810   197.62         294.45351      133099.28     -807632.69     -9700.6716      0.36249683     0.057186712    28.266987      42.05177     
     98820   197.64         292.58494      134726.92     -807632.05     -9714.6374      0.36251453     0.057266245    28.260415      41.698399    
     98830   197.66         280.47672      133965.94     -807630.8      -9708.3107      0.36253209     0.057226179    28.271731      41.345027    
     98840   197.68         299.59989      134275.87     -807632.32     -9747.9383      0.36254951     0.057457006    28.338251      40.991645    
     98850   197.7          292.09047      131603.37     -807634.05     -9664.6252      0.36256678     0.056963221    28.388706      40.638255    
     98860   197.72         280.28904      132950.37     -807633.09     -9644.8699      0.36258391     0.056844098    28.385813      40.284867    
     98870   197.74         282.25866      131379.02     -807634.21     -9625.1413      0.3626009      0.056725166    28.300762      39.93149     
     98880   197.76         285.7277       133415.75     -807631.53     -9730.2101      0.36261774     0.057341719    28.306989      39.578113    
     98890   197.78         295.28659      131785.65     -807634.23     -9693.7284      0.36263445     0.057124095    28.355805      39.224729    
     98900   197.8          282.07928      134731.71     -807631.58     -9721.6861      0.362651       0.057286231    28.406064      38.871338    
     98910   197.82         286.58519      133080.48     -807632.72     -9714.51        0.36266742     0.057241354    28.324057      38.517959    
     98920   197.84         291.52041      134600.68     -807631.35     -9786.7631      0.36268369     0.057664507    28.306944      38.164582    
     98930   197.86         279.38798      131641.8      -807632.84     -9695.377       0.36269982     0.057123512    28.407507      37.811191    
     98940   197.88         285.89803      132386.34     -807635.13     -9659.9262      0.36271581     0.056912133    28.395158      37.457803    
     98950   197.9          283.30026      131246.49     -807635.84     -9640.6491      0.36273165     0.05679608     28.342233      37.104422    
     98960   197.92         273.83245      133179.07     -807632.27     -9726.2706      0.36274735     0.057298023    28.260409      36.751051    
     98970   197.94         270.26783      132764.75     -807633.82     -9677.2535      0.36276291     0.057006816    28.231273      36.397684    
     98980   197.96         279.53966      133522.55     -807635.26     -9685.9337      0.36277832     0.057055525    28.248026      36.044315    
     98990   197.98         278.07533      132437.56     -807633.99     -9732.4568      0.36279359     0.057327159    28.294649      35.69094     
     99000   198            275.64833      133526.43     -807632.19     -9788.6777      0.36280872     0.057655913    28.334028      35.33756     
     99010   198.02         269.78836      132315.04     -807633.69     -303.78571      0.3628237      0.057255763    28.410584      34.984171    
     99020   198.04         278.25755      132810.32     -807636.29     -302.39716      0.36283855     0.056991726    28.4642        34.630775    
     99030   198.06         269.07193      131913.21     -807634.75     -302.7727       0.36285324     0.057060192    28.481996      34.277377    
     99040   198.08         275.19106      132050.53     -807634.1      -304.29142      0.3628678      0.057344106    28.468818      33.923982    
     99050   198.1          267.71355      132068.13     -807635.07     -302.24788      0.36288221     0.056956736    28.444539      33.57059     
     99060   198.12         277.46038      132289.34     -807636.58     -302.00896      0.36289648     0.056909477    28.425954      33.2172      
     99070   198.14         270.70411      132774.45     -807633.36     -304.24548      0.36291061     0.057328687    28.434032      32.86381     
     99080   198.16         275.39794      133888.64     -807632.81     -305.38276      0.36292459     0.057540766    28.43637       32.510419    
     99090   198.18         278.97975      133627.67     -807634.69     -303.76728      0.36293843     0.057234192    28.483226      32.157024    
     99100   198.2          273.18097      132621.85     -807634.8      -302.66643      0.36295213     0.057024623    28.510847      31.803626    
     99110   198.22         277.73554      132281.21     -807634.69     -303.20968      0.36296568     0.057124843    28.487029      31.450232    
     99120   198.24         274.37718      132380.71     -807633.23     -303.93502      0.36297909     0.057259382    28.508928      31.096835    
     99130   198.26         273.8239       132209.63     -807635.07     -301.84798      0.36299236     0.056864118    28.418231      30.743449    
     99140   198.28         278.91403      131728.79     -807635.37     -301.96802      0.36300548     0.056884676    28.357771      30.39007     
     99150   198.3          273.51321      133972.43     -807631.98     -304.37214      0.36301846     0.057335512    28.29702       30.036697    
     99160   198.32         278.7247       133622.69     -807631.66     -305.2507       0.3630313      0.057498977    28.32738       29.683321    
     99170   198.34         291.1937       133666.73     -807634.12     -304.22406      0.36304399     0.057303588    28.34248       29.329944    
     99180   198.36         282.82038      133213.11     -807634.42     -302.5809       0.36305655     0.056992112    28.347064      28.976566    
     99190   198.38         285.35661      133878.86     -807632.83     -304.35103      0.36306895     0.057323563    28.426361      28.62318     
     99200   198.4          282.34693      132372.47     -807632.83     -303.77561      0.36308122     0.057213252    28.432677      28.269794    
     99210   198.42         288.94686      132208.32     -807634.85     -302.42209      0.36309334     0.056956429    28.390552      27.916413    
     99220   198.44         284.50538      131748.23     -807635.42     -301.06944      0.36310532     0.056699808    28.329537      27.563037    
     99230   198.46         286.33471      133502.08     -807633.27     -303.29326      0.36311715     0.057116752    28.332733      27.209662    
     99240   198.48         285.77527      132552.96     -807631.88     -304.45649      0.36312885     0.057333968    28.368053      26.856283    
     99250   198.5          293.13048      132935.38     -807633.52     -303.66095      0.3631404      0.057182337    28.355429      26.502905    
     99260   198.52         294.78518      132566.92     -807634.87     -302.43221      0.3631518      0.056949164    28.358349      26.149528    
     99270   198.54         286.89317      134400.04     -807630.78     -305.24432      0.36316306     0.057476913    28.40785       25.796146    
     99280   198.56         283.24929      132914.47     -807630.49     -304.92362      0.36317418     0.057414768    28.415168      25.442764    
     99290   198.58         291.62468      134349.62     -807633.41     -302.97452      0.36318516     0.057046044    28.414678      25.089381    
     99300   198.6          292.13478      132459.38     -807634.62     -301.76358      0.36319599     0.056816345    28.369531      24.736004    
     99310   198.62         286.67092      133924.21     -807630.88     -304.62721      0.36320668     0.057353825    28.383264      24.382625    
     99320   198.64         286.71853      132528.63     -807631.9      -303.50861      0.36321723     0.057141561    28.370588      24.029247    
     99330   198.66         287.47265      133472.74     -807632.49     -302.82988      0.36322763     0.057012142    28.376986      23.67587     
     99340   198.68         297.52295      132504.33     -807634.67     -302.0279       0.36323789     0.056859553    28.409897      23.322489    
     99350   198.7          291.95299      134323.59     -807630.66     -305.11118      0.36324801     0.057438408    28.39919       22.96911     
     99360   198.72         292.96007      133083.34     -807631.84     -303.98757      0.36325798     0.057225313    28.417339      22.61573     
     99370   198.74         307.1847       133254.84     -807635        -302.70144      0.36326781     0.056981659    28.462169      22.262346    
     99380   198.76         291.93938      132682.47     -807632.83     -302.72058      0.3632775      0.056983743    28.425819      21.908966    
     99390   198.78         293.94277      133896.75     -807631        -304.732        0.36328704     0.057360862    28.407157      21.555587    
     99400   198.8          292.53527      132918.74     -807631.63     -303.84437      0.36329644     0.0571923      28.366957      21.202211    
     99410   198.82         292.24682      132839.96     -807632.97     -302.42044      0.3633057      0.056922826    28.393925      20.848834    
     99420   198.84         296.66152      133127.71     -807632.63     -303.32673      0.36331481     0.057091978    28.385481      20.495458    
     99430   198.86         285.37001      133245.54     -807629.45     -304.93473      0.36332378     0.057393218    28.357799      20.142084    
     99440   198.88         297.87168      132755.6      -807631.72     -304.35486      0.36333261     0.057282686    28.361849      19.788709    
     99450   198.9          291.85669      131964.08     -807632.83     -302.35596      0.36334129     0.056905113    28.339771      19.435337    
     99460   198.92         293.0287       134063.9      -807632.06     -303.25173      0.36334983     0.057072362    28.348333      19.081964    
     99470   198.94         294.64987      133393.88     -807631.58     -304.0365       0.36335823     0.057218734    28.354705      18.72859     
     99480   198.96         298.78645      133738.31     -807632.68     -303.50041      0.36336648     0.057116545    28.325373      18.375219    
     99490   198.98         294.3419       132431.78     -807634.1      -301.52855      0.3633746      0.05674419     28.335082      18.021847    
     99500   199            297.91364      133588.62     -807632.87     -303.26507      0.36338256     0.05706973     28.396262      17.668471    
     99510   199.02         297.48168      132800.41     -807631.89     -9739.2521      0.36339039     0.057272971    28.334224      17.3151      
     99520   199.04         281.8256       134359.07     -807629.31     -9752.995       0.36339807     0.057352576    28.320157      16.961729    
     99530   199.06         294.29496      132820.69     -807632.9      -9697.0142      0.3634056      0.057022197    28.343995      16.608357    
     99540   199.08         292.19446      133846.5      -807631.19     -9746.8791      0.363413       0.057314256    28.356434      16.254985    
     99550   199.1          291.92321      133504.81     -807631.26     -9749.0628      0.36342025     0.057325953    28.355839      15.901612    
     99560   199.12         285.21182      133369        -807630.91     -9735.8901      0.36342736     0.057247376    28.320802      15.548242    
     99570   199.14         290.97904      131290.41     -807634.03     -9668.3174      0.36343432     0.056848957    28.327581      15.194871    
     99580   199.16         298.43286      132000.67     -807634.98     -9678.9101      0.36344114     0.056910173    28.322028      14.841501    
     99590   199.18         280.39889      132897.62     -807631.14     -9731.782       0.36344782     0.057219999    28.34574       14.488129    
     99600   199.2          282.10292      133108.71     -807632.01     -9718.5172      0.36345435     0.057140979    28.309188      14.13476     
     99610   199.22         291.15375      132716.59     -807633.79     -9710.7629      0.36346074     0.057094382    28.280616      13.781392    
     99620   199.24         281.20246      133707.86     -807631.65     -9743.4202      0.36346699     0.057285406    28.283811      13.428023    
     99630   199.26         288.7322       133883.94     -807631.72     -9785.7585      0.3634731      0.057533363    28.331488      13.074653    
     99640   199.28         276.1233       133762.55     -807631.17     -9754.1219      0.36347906     0.057346422    28.318225      12.721283    
     99650   199.3          284.22417      132435.72     -807634.14     -9700.3175      0.36348487     0.057029183    28.293553      12.367914    
     99660   199.32         287.26073      132499.45     -807634.23     -9717.4252      0.36349055     0.057128869    28.333506      12.014544    
     99670   199.34         279.07267      131916.92     -807633.16     -9720.1408      0.36349608     0.057143964    28.376064      11.661172    
     99680   199.36         280.66827      132393.77     -807633.78     -9709.2188      0.36350147     0.057078909    28.371532      11.3078      
     99690   199.38         290.15619      131529.39     -807635.8      -9689.6331      0.36350671     0.056962946    28.373483      10.954428    
     99700   199.4          284.09631      133587.58     -807633.15     -9749.3508      0.36351181     0.057313207    28.368587      10.601057    
     99710   199.42         274.15999      133059.04     -807631.36     -9765.1645      0.36351677     0.057405388    28.377959      10.247686    
     99720   199.44         287.16565      133381.59     -807633.38     -9756.3559      0.36352158     0.057352846    28.33617       9.8943159    
     99730   199.46         284.80909      131218.73     -807634.88     -9699.4657      0.36352625     0.057017684    28.342491      9.540946     
     99740   199.48         282.10022      133486.99     -807632.67     -9754.9454      0.36353078     0.057343104    28.383005      9.1875749    
     99750   199.5          270.63205      131784.84     -807632.02     -9724.7371      0.36353516     0.057164839    28.388537      8.8342039    
     99760   199.52         285.70476      133525.86     -807634.13     -9719.3963      0.3635394      0.057132778    28.339058      8.4808345    
     99770   199.54         286.97394      130992.32     -807635.46     -9680.5053      0.3635435      0.056903527    28.272178      8.1274672    
     99780   199.56         276.84112      134024.03     -807630.61     -9785.8641      0.36354745     0.057522217    28.311595      7.7740987    
     99790   199.58         285.23377      132099.65     -807633.24     -9737.6116      0.36355126     0.057237984    28.314137      7.4207302    
     99800   199.6          291.04426      133331.45     -807633.95     -9733.2308      0.36355493     0.057211657    28.273183      7.0673627    
     99810   199.62         291.71765      131686.54     -807634.49     -9716.5969      0.36355845     0.05711333     28.286337      6.7139949    
     99820   199.64         276.14391      134597.14     -807630        -9783.7721      0.36356183     0.057507645    28.290389      6.3606269    
     99830   199.66         292.62408      131858.95     -807634.52     -9709.3611      0.36356507     0.05706976     28.322858      6.0072583    
     99840   199.68         277.37567      132888.48     -807633.33     -9670.9089      0.36356816     0.056843261    28.33174       5.6538895    
     99850   199.7          288.41285      132151.45     -807634.4      -9682.0649      0.36357111     0.056908371    28.334286      5.3005207    
     99860   199.72         284.04524      132943.5      -807631.3      -9756.7828      0.36357392     0.057347099    28.350213      4.9471518    
     99870   199.74         294.89312      133578.25     -807633.33     -9735.1894      0.36357658     0.057219761    28.339283      4.5937832    
     99880   199.76         286.14607      133398.01     -807632.28     -9725.3614      0.3635791      0.0571616      28.330866      4.2404147    
     99890   199.78         289.24828      133659.29     -807631.68     -9754.0291      0.36358148     0.057329722    28.338481      3.8870463    
     99900   199.8          291.71416      133572.38     -807631.66     -9764.4881      0.36358371     0.057390843    28.361989      3.5336777    
     99910   199.82         287.35924      133966.67     -807631.25     -9755.2094      0.3635858      0.057335977    28.359529      3.1803092    
     99920   199.84         281.7404       132248.83     -807632.82     -9678.2402      0.36358775     0.056883289    28.368362      2.8269408    
     99930   199.86         279.90603      133519.72     -807631.5      -9707.8621      0.36358955     0.057057107    28.365557      2.4735727    
     99940   199.88         298.64847      131439.47     -807634.49     -9697.2241      0.36359121     0.056994322    28.33894       2.1202048    
     99950   199.9          291.04885      134003.43     -807632        -9738.9036      0.36359273     0.05723905     28.324398      1.7668372    
     99960   199.92         296.90901      131522.98     -807634.81     -9676.3951      0.3635941      0.05687145     28.330597      1.4134696    
     99970   199.94         289.96796      134737.16     -807630.65     -9775.3532      0.36359533     0.057452867    28.326937      1.0601021    
     99980   199.96         296.85075      132005.67     -807632.75     -9741.2332      0.36359641     0.057252162    28.331701      0.70673466   
     99990   199.98         294.94505      135068.85     -807630.28     -9809.2909      0.36359736     0.057652008    28.331628      0.35336729   
    100000   200            289.76132      131930.58     -807633.89     -9673.6844      0.36359816     0.056854885    28.28404       0            
Loop time of 3533.67 on 32 procs for 100000 steps with 1080 atoms

Performance: 4.890 ns/day, 4.908 hours/ns, 28.299 timesteps/s, 30.563 katom-step/s
71.6% CPU use with 32 MPI tasks x 1 OpenMP threads

MPI task timing breakdown:
Section |  min time  |  avg time  |  max time  |%varavg| %total
---------------------------------------------------------------
Pair    | 2475.2     | 2806.6     | 3159.9     | 310.7 | 79.42
Neigh   | 0.0016241  | 0.0017533  | 0.0019322  |   0.2 |  0.00
Comm    | 294.11     | 647.96     | 978.92     | 646.3 | 18.34
Output  | 2.3237     | 2.3354     | 2.3494     |   0.4 |  0.07
Modify  | 66.334     | 67.651     | 72.23      |  12.8 |  1.91
Other   |            | 9.148      |            |       |  0.26

Nlocal:          33.75 ave          43 max          27 min
Histogram: 2 4 3 5 2 9 5 1 0 1
Nghost:        1021.91 ave        1038 max         999 min
Histogram: 1 1 1 2 7 6 3 4 4 3
Neighs:              0 ave           0 max           0 min
Histogram: 32 0 0 0 0 0 0 0 0 0
FullNghs:      5356.06 ave        6892 max        4257 min
Histogram: 2 4 4 3 7 6 4 1 0 1

Total # of neighbors = 171394
Ave neighs/atom = 158.69815
Neighbor list builds = 4
Dangerous builds = 0

Total wall time: 1:02:22
