
units		metal
atom_style	atomic

read_data ${STRUCTURE}.data
read_data BaTiO3-sc333.data
Reading data file ...
  orthogonal box = (0 0 0) to (11.898253 11.898253 12.912076)
  2 by 4 by 4 MPI processor grid
  reading atoms ...
  135 atoms
  read_data CPU = 0.093 seconds
replicate $L $L $L
replicate 2 $L $L
replicate 2 2 $L
replicate 2 2 2
Replication is creating a 2x2x2 = 8 times larger system...
  orthogonal box = (0 0 0) to (23.796507 23.796507 25.824152)
  2 by 4 by 4 MPI processor grid
  1080 atoms
  replicate CPU = 0.004 seconds

pair_style allegro
pair_coeff	* * ${MODEL}.pth Ba Ti O
pair_coeff	* * BaTiO3-E0.pth Ba Ti O
mass 1 137.3
mass 2 47.9
mass 3 15.9994

timestep 0.002
compute polarization all allegro polarization 3
compute allegro will evaluate the quantity polarization of length 3 (src/compute_allegro.cpp:53)
compute polarizability all allegro polarizability 9
compute allegro will evaluate the quantity polarizability of length 9 (src/compute_allegro.cpp:53)

thermo_style custom pe fmax fnorm spcpu cpuremain

variable efield equal 1e-2*36.36
fix born all addbornforce 0.0 0.0 ${efield}
fix born all addbornforce 0.0 0.0 0.3636

thermo 10
min_style fire
#minimize 0.0 1e-6 100 100
velocity all create ${TEMP} ${SEED} dist gaussian rot yes mom yes
velocity all create 300 ${SEED} dist gaussian rot yes mom yes
velocity all create 300 10001 dist gaussian rot yes mom yes
fix nvt all nvt temp ${TEMP} ${TEMP} $(100*dt)
fix nvt all nvt temp 300 ${TEMP} $(100*dt)
fix nvt all nvt temp 300 300 $(100*dt)
fix nvt all nvt temp 300 300 0.2000000000000000111
run 5000
Neighbor list info ...
  update: every = 1 steps, delay = 0 steps, check = yes
  max neighbors/atom: 2000, page size: 100000
  master list distance cutoff = 8
  ghost atom cutoff = 8
  binsize = 8, bins = 3 3 4
  1 neighbor lists, perpetual/occasional/extra = 1 0 0
  (1) pair allegro/kk, perpetual
      attributes: full, newton on, kokkos_device
      pair build: full/bin/kk/device
      stencil: full/bin/3d
      bin: kk/device
Per MPI rank memory allocation (min/avg/max) = 3.516 | 3.516 | 3.516 Mbytes
    PotEng          Fmax          Fnorm          S/CPU         CPULeft    
-807708.29      1.5957854      37.043217      0              0            
-807647.57      3.7381619      44.574988      2.3217822      2149.212     
-807636.17      2.5392536      35.016146      25.918746      1168.522     
-807606.17      2.9960842      37.227216      25.907608      841.39554    
-807603.14      3.9773322      50.243739      25.838382      677.76756    
-807570.18      3.9460581      39.518563      25.800083      579.49284    
-807604.48      2.9391895      38.406254      25.89286       513.73282    
-807646.76      4.5198142      33.96923       25.900171      466.64336    
-807684.43      3.0093994      33.559825      25.859928      431.26669    
-807669.7       2.5969699      33.089949      25.851785      403.67221    
-807654.14      2.991089       33.50463       25.925664      381.46525    
-807659.67      2.3125526      26.669376      25.919394      363.22994    
-807628.21      2.4109381      29.844721      25.881884      347.99228    
-807587.34      3.2535409      39.437292      25.871324      335.04536    
-807570.29      2.9785989      37.476199      25.924476      323.86523    
-807633.42      2.9958767      32.838259      25.904238      314.13415    
-807655.48      3.2675354      30.15974       25.902518      305.57193    
-807668.03      2.5773645      33.188295      25.892415      297.97591    
-807646.95      4.220254       44.393068      25.900705      291.17767    
-807680.53      2.7504638      35.631637      25.876051      285.0637     
-807642.05      4.2267079      39.14248       25.866221      279.52601    
-807619.55      3.0694484      38.49131       25.931744      274.45662    
-807561.71      4.4696439      45.241362      25.925903      269.81491    
-807606.67      4.0575981      48.494704      25.831381      265.57256    
-807614.66      3.8319618      37.973755      25.844814      261.64749    
-807645.84      2.7199223      34.457434      25.896761      257.99072    
-807643.63      4.1238305      44.400207      25.927791      254.57712    
-807682.5       2.572125       37.141353      25.873105      251.40209    
-807662.81      3.1868882      34.469038      25.817994      248.44014    
-807640.75      2.6808646      30.98523       25.91119       245.63313    
-807606.18      3.5921846      33.257345      25.927701      242.98366    
-807606.89      3.7139832      41.764281      25.914961      240.48313    
-807598.93      4.1746926      34.606777      25.824108      238.13461    
-807614.42      3.304802       31.399557      25.852905      235.89885    
-807643.85      2.8400174      29.198375      25.911448      233.75988    
-807674.52      3.0368902      31.091967      25.912794      231.72081    
-807677.92      2.2955512      30.887183      25.834844      229.7886     
-807647.13      3.8848175      35.968133      25.881037      227.93126    
-807647.49      2.3659776      29.738557      25.892466      226.14926    
-807622.48      3.2835972      32.77084       25.9219        224.43366    
-807603.36      3.8037822      42.305675      25.868838      222.79365    
-807574.03      3.6980549      39.888052      25.920023      221.20625    
-807627.53      3.3666466      33.956364      25.923791      219.67544    
-807652.18      3.468661       33.686357      25.926847      218.19741    
-807675.91      2.8528951      33.920047      25.889704      216.77478    
-807643.7       5.4935656      45.337963      25.889947      215.39816    
-807668.2       2.9298664      34.143095      25.901366      214.06292    
-807643.33      4.3120767      35.992575      25.877436      212.77152    
-807626.23      3.3845319      37.648532      25.87592       211.51802    
-807565.89      4.1887293      42.766267      25.891071      210.29785    
-807602.86      4.0038121      43.260758      25.868889      209.114      
-807625.75      3.7111491      35.319518      25.837244      207.9656     
-807658.83      2.8105575      32.366401      25.845425      206.84542    
-807642.33      4.5600809      42.571228      25.898873      205.74618    
-807673.57      2.3818401      33.907886      25.871708      204.67669    
-807665.39      2.5294572      32.676983      25.835473      203.63643    
-807645.09      2.7593102      30.07562       25.868328      202.6156     
-807598.98      2.7680258      34.820352      25.909399      201.61226    
-807600.18      3.1716488      37.672874      25.916631      200.62939    
-807607.88      3.9464447      37.137424      25.848084      199.67441    
-807625.49      3.1324658      30.331135      25.868216      198.73615    
-807641.14      3.1572349      31.066871      25.928011      197.80957    
-807666.73      2.8817382      32.067375      25.920196      196.90126    
-807676.35      2.5259427      33.272717      25.817738      196.02015    
-807649.31      3.3939101      35.054121      25.855328      195.15064    
-807635.3       2.6337975      31.499371      25.90519       194.291      
-807613.88      3.2417959      33.686104      25.923157      193.44395    
-807606.32      3.9099504      44.02591       25.8658        192.6162     
-807585.6       3.7612574      39.305259      25.852159      191.80272    
-807619.34      4.0167457      35.328151      25.916504      190.99561    
-807646.79      3.4477056      36.162363      25.894522      190.20255    
-807675.69      2.8231318      35.73378       25.84772       189.42518    
-807649.47      4.5549142      41.788836      25.856197      188.65789    
-807653.21      2.8003942      34.660905      25.899187      187.89728    
-807639.27      3.5618659      34.486584      25.890907      187.1475     
-807626.07      3.5772609      37.686805      25.783795      186.41651    
-807578.15      3.4994874      38.696399      25.862399      185.68797    
-807595.08      3.7588868      39.697562      25.869001      184.96777    
-807628.75      3.1197955      32.425566      25.86666       184.25631    
-807662.49      2.9963019      31.683419      25.854516      183.55405    
-807651.52      3.7260073      36.532785      25.885066      182.85727    
-807659.12      3.2814401      34.180198      25.789971      182.17553    
-807663.35      2.7632261      31.74003       25.875093      181.49446    
-807646.12      3.4377907      30.503226      25.884125      180.81981    
-807603.2       2.9521656      34.89221       25.927335      180.14883    
-807589.18      2.8731657      36.502322      25.957234      179.4824     
-807610.45      3.043831       37.080823      25.839842      178.83093    
-807633.7       3.2958017      30.241724      25.906305      178.18083    
-807642.98      2.9730914      32.27016       25.921834      177.53565    
-807654.98      3.0389515      34.406518      25.92228       176.89627    
-807672.57      2.8221351      34.282731      25.85039       176.26741    
-807652.75      3.1460312      34.238024      25.827457      175.64542    
-807632.18      2.672502       32.66312       25.897716      175.02387    
-807602.42      4.1521703      35.975959      25.931059      174.40521    
-807607.97      3.5363457      42.695679      25.907969      173.79299    
-807600.05      3.6839043      36.731488      25.901675      173.18593    
-807622.15      2.6087814      34.191273      25.941343      172.581      
-807640.27      3.5932049      36.54557       25.934412      171.98101    
-807672.88      2.8003636      34.959044      25.860675      171.38991    
-807655.79      3.4156343      37.343043      25.817882      170.80554    
-807648.42      2.9605325      33.283044      25.841259      170.22371    
-807630.78      4.293785       34.425459      25.919136      169.64114    
-807624.92      3.3283249      36.536937      25.922209      169.06226    
-807593.67      3.1652038      37.362753      25.925472      168.48693    
-807597.58      3.0661517      36.834843      25.938387      167.91452    
-807627.81      3.0571023      32.225024      25.924969      167.34642    
-807662.42      2.6560725      31.012323      25.911003      166.78253    
-807660.89      3.4383381      33.217479      25.926443      166.22113    
-807651.62      3.4541478      34.783261      25.899478      165.66444    
-807655.24      2.8124022      30.951402      25.918685      165.10985    
-807641.39      2.5755253      30.82492       25.926833      164.5579     
-807611.24      2.5819967      34.706924      25.928903      164.00883    
-807582.84      2.8158166      38.528289      25.93991       163.46212    
-807612.49      3.2228684      36.543394      25.953263      162.91758    
-807636.76      3.1263029      33.267898      25.905775      162.37823    
-807654.33      2.5531038      32.947867      25.903432      161.84166    
-807647.38      3.7884374      38.846561      25.931265      161.30631    
-807666.7       2.6163169      34.025684      25.908077      160.77466    
-807651.42      4.3080107      34.578822      25.860587      160.24776    
-807631.28      2.9592764      33.433818      25.87955       159.72232    
-807593.79      4.0912401      36.770196      25.884471      159.19896    
-807605.42      3.8114835      39.737099      25.909446      158.6767     
-807610.38      3.2769962      35.293028      25.852775      158.15929    
-807634.73      2.4350865      31.976034      25.897936      157.64194    
-807638.76      3.3095167      36.476717      25.899576      157.12663    
-807667.82      2.7336005      33.447961      25.877066      156.6144     
-807659.73      3.4384134      34.343232      25.761536      156.10931    
-807647.74      4.2656074      32.126066      25.855716      155.60191    
-807619.98      3.1827275      33.440235      25.912494      155.09393    
-807617.05      3.2766022      35.908872      25.912128      154.58785    
-807602.85      3.2596779      37.000418      25.85905       154.08588    
-807606.45      2.9447834      35.890005      25.895922      153.58412    
-807626.92      3.1848078      33.484169      25.894213      153.08418    
-807657         4.2351091      33.578121      25.866225      152.58711    
-807662.87      3.2758516      34.602324      25.834914      152.09296    
-807650.52      3.5497533      35.712944      25.868539      151.59904    
-807643.21      3.2451393      33.055205      25.897309      151.10555    
-807633.15      3.6129873      32.639139      25.90795       150.61321    
-807613.36      3.5109817      36.75987       25.866342      150.12403    
-807589.9       3.9469877      36.679339      25.898873      149.63507    
-807611.34      3.2360499      34.862999      25.857303      149.14918    
-807639.27      3.1087456      32.326515      25.922134      148.66223    
-807659.26      3.0683396      32.970212      25.80871       148.18098    
-807648.07      3.8965904      37.340811      25.878759      147.69842    
-807656.37      2.5421889      33.856065      25.889971      147.21679    
-807647.54      3.1315146      33.421907      25.824616      146.73886    
-807631.92      2.8605197      34.424935      25.869857      146.26053    
-807593.56      3.6244425      37.550114      25.831087      145.78485    
-807599.88      3.0600066      39.364011      25.902996      145.3078     
-807616.64      4.055925       35.886787      25.880925      144.83276    
-807645.32      3.283682       32.554596      25.864595      144.35946    
-807641.74      3.4066395      36.557274      25.903048      143.88599    
-807659.37      3.1621706      33.971422      25.912391      143.41334    
-807658.74      2.6072518      33.677875      25.822222      142.94489    
-807646.92      2.4043928      31.586496      25.83221       142.47716    
-807615.87      4.0507614      32.969779      25.898606      142.00825    
-807606.18      3.2718358      35.206442      25.883554      141.54091    
-807607.54      3.7403161      36.625071      25.856351      141.07548    
-807620.41      3.4138566      33.450318      25.889217      140.60998    
-807630.34      4.1895293      33.495518      25.908157      140.14488    
-807653.06      4.0787406      33.495074      25.87506       139.68182    
-807664.58      2.6235105      33.884355      25.896456      139.21903    
-807653.38      3.2691604      33.801108      25.86694       138.75811    
-807635.34      2.8714116      33.5339        25.907711      138.29685    
-807622.53      4.1143446      33.456693      25.821533      137.83914    
-807614.05      4.315739       38.025482      25.842258      137.38165    
-807600.05      3.7022513      36.777606      25.811069      136.92596    
-807614.47      3.1018501      34.792053      25.871451      136.46928    
-807638.22      3.6719802      33.330934      25.840537      136.01434    
-807662.8       2.4360859      32.348493      25.849209      135.55996    
-807653.43      3.4497057      34.801503      25.79828       135.10786    
-807649.65      2.9832579      32.967534      25.853484      134.65491    
-807640.3       3.1461141      31.859506      25.902233      134.20135    
-807631.53      2.8193395      33.155223      25.927204      133.74787    
-807599.82      3.3970807      34.949795      25.868604      133.2968     
-807602.03      3.6487499      35.969849      25.922726      132.84497    
-807623.07      3.4347832      32.824314      25.918418      132.39401    
-807650.57      2.6986373      31.336505      25.875149      131.94496    
-807649.66      3.3644136      34.102144      25.85418       131.49718    
-807652.89      3.9175406      34.184549      25.854376      131.05008    
-807653.98      3.2356053      33.050252      25.846335      130.60386    
-807642.7       3.7767838      32.479505      25.838979      130.15849    
-807616.36      3.2780167      33.990987      25.82974       129.71401    
-807598.19      3.4502057      36.283473      25.873653      129.26901    
-807611.86      3.1147554      35.471877      25.891202      128.8242     
-807628.91      3.1616667      33.291262      25.856183      128.38091    
-807639.2       3.1685554      32.588958      25.868511      127.93792    
-807648.28      4.4410197      34.481917      25.895023      127.49487    
-807660.48      3.242082       33.203208      25.848546      127.05358    
-807651.8       3.2027088      33.087315      25.828459      126.61336    
-807633.5       3.0576004      31.8689        25.850455      126.17316    
-807609.97      3.4239951      34.529204      25.933318      125.73152    
-807610.25      3.1731885      37.016015      25.918864      125.29081    
-807608.85      2.8510159      35.977668      25.875224      124.8517     
-807622.24      2.6057039      34.021376      25.886526      124.41287    
-807636.08      3.6996394      34.706499      25.908893      123.97406    
-807658.22      3.1720806      34.171835      25.886011      123.53631    
-807654.52      3.5218788      35.086571      25.81906       123.10063    
-807643.79      2.6034391      33.6592        25.828715      122.66521    
-807627.55      3.3314675      33.384212      25.891712      122.22886    
-807621.72      2.7998711      34.974045      25.862843      121.79365    
-807605.48      3.3429904      36.584851      25.88888       121.35835    
-807605.28      2.6008205      35.69278       25.896915      120.92335    
-807623.61      3.3303727      33.156316      25.931082      120.4881     
-807650.75      2.9509301      31.758065      25.876655      120.0545     
-807654.66      2.7660518      33.664196      25.797978      119.62306    
-807648.18      3.8734049      33.907078      25.802859      119.19195    
-807643.81      3.7430456      33.297239      25.828972      118.7607     
-807637.86      3.5643766      31.346566      25.837119      118.3297     
-807615.53      3.9870526      35.234844      25.830831      117.89925    
-807596.18      3.2000804      37.052286      25.887532      117.46805    
-807611.44      2.9624871      35.105524      25.89212       117.03717    
-807633.75      3.2899127      34.048256      25.867992      116.60721    
-807648.19      3.5258986      33.030961      25.845873      116.1781     
-807645.44      3.5270158      35.794691      25.837063      115.74957    
-807653.93      2.7642179      33.690114      25.84703       115.32122    
-807648.4       2.6674642      32.460666      25.848         114.89323    
-807632.28      2.5099713      32.255102      25.87059       114.46518    
-807606.54      2.9728671      34.378804      25.903259      114.03689    
-807607.83      3.1638449      35.810722      25.919929      113.60866    
-807618.45      2.7681819      33.641891      25.876561      113.18164    
-807634.62      2.4460301      31.724944      25.873077      112.75505    
-807640.1       2.9489647      32.977898      25.905302      112.32822    
-807656.06      3.0761032      33.019383      25.896002      111.90193    
-807654.8       2.8576574      32.998123      25.820648      111.47738    
-807644.98      3.1682051      31.90572       25.827373      111.05305    
-807620.33      4.1729669      33.998667      25.901178      110.6277     
-807613.75      2.8036473      35.482021      25.894672      110.20282    
-807609.18      3.7104509      36.816319      25.86324       109.77884    
-807616.94      3.2419087      35.379655      25.878928      109.3549     
-807628.04      4.0272989      34.32321       25.884607      108.9312     
-807649.59      2.7586478      33.486165      25.886563      108.50778    
-807657.18      4.17677        33.711613      25.828529      108.08568    
-807650.08      3.4799927      33.160823      25.810897      107.66419    
-807636.86      2.772078       32.30155       25.891347      107.24162    
-807628         4.2569383      32.794251      25.905822      106.81912    
-807616.56      3.1091594      33.999624      25.855641      106.39776    
-807604.23      3.4786575      35.326242      25.842253      105.97692    
-807616.49      2.7406075      32.801901      25.881079      105.55572    
-807637.42      3.3323887      32.143923      25.881355      105.13481    
-807653.67      2.8335898      32.03385       25.848868      104.71472    
-807649.09      3.671785       34.776274      25.873971      104.29449    
-807646.36      3.197256       33.785124      25.880298      103.87445    
-807641.37      3.5749979      32.678331      25.857028      103.45505    
-807628.85      3.6916263      33.893453      25.887073      103.03544    
-807606.04      3.184478       35.242238      25.879367      102.61623    
-807606.21      3.137833       35.454123      25.87275       102.19739    
-807622.62      3.2966146      33.543524      25.90444       101.77832    
-807642.4       3.477789       32.069003      25.92496       101.35921    
-807644.06      3.8779156      34.011409      25.931162      100.94028    
-807650.48      3.5715339      33.939832      25.923693      100.52172    
-807651.5       3.499912       33.246815      25.914131      100.10356    
-807640.83      2.8603026      33.251409      25.895131      99.685944    
-807617.81      2.7707257      34.519065      25.92788       99.268096    
-807608.01      3.5332945      36.125791      25.944539      98.850262    
-807612.58      3.0068728      35.130649      25.883751      98.433551    
-807626.75      2.741551       33.598304      25.864739      98.017349    
-807634.88      3.4263033      33.192114      25.864113      97.601385    
-807646.03      2.8214156      33.46358       25.898555      97.185167    
-807654.88      3.1744994      32.996674      25.842827      96.769955    
-807648.83      2.6650981      33.356995      25.83263       96.355102    
-807631.27      3.0772297      33.067161      25.860745      95.940076    
-807618.51      2.5504201      33.758808      25.894742      95.524806    
-807613.32      2.9398769      35.526623      25.875083      95.110021    
-807613.11      3.2819662      35.45889       25.831949      94.696027    
-807622.44      2.6943408      32.891512      25.864786      94.2818      
-807639.65      3.6047854      32.785845      25.91823       93.86708     
-807651.76      3.1019162      33.593505      25.867968      93.45323     
-807651.55      2.9606022      33.851708      25.796267      93.040514    
-807641.78      3.2367203      33.604771      25.831982      92.627524    
-807631.87      3.4323253      32.820316      25.831791      92.214729    
-807622.79      3.5168152      34.244266      25.863702      91.801718    
-807609.93      3.2753034      35.263911      25.850455      91.389068    
-807609.89      3.6560024      35.351761      25.86644       90.976408    
-807625.51      3.1663637      33.841745      25.909624      90.563407    
-807643.98      3.675987       33.510915      25.874373      90.151033    
-807648.42      2.88926        34.296488      25.880654      89.73877     
-807648.21      3.2740044      34.540641      25.910717      89.326334    
-807642.83      3.4061065      33.900906      25.905841      88.914146    
-807635.01      3.5147038      34.07704       25.893557      88.50229     
-807618.9       3.448352       34.198756      25.909634      88.09043     
-807605.5       2.9844745      35.371443      25.933407      87.678478    
-807613.82      2.9397223      34.547542      25.903142      87.267061    
-807631.6       2.8197625      32.956768      25.894826      86.855919    
-807642.31      2.9822458      32.179946      25.882165      86.445096    
-807647.63      3.1570367      33.413659      25.873816      86.034539    
-807648.05      3.497919       34.360598      25.909099      85.623756    
-807645.97      2.7812516      32.995967      25.83827       85.213931    
-807632.01      3.0157227      32.262801      25.903109      84.803552    
-807611.93      3.1578642      34.537047      25.887303      84.393513    
-807610.9       2.9606518      35.31353       25.84702       83.984074    
-807620.09      3.7409789      34.798555      25.853685      83.574718    
-807630.75      2.8775957      33.178139      25.817515      83.165903    
-807637.59      3.846485       34.143238      25.844109      82.756953    
-807650.41      2.9906283      33.874823      25.838228      82.348214    
-807650.17      3.1199027      34.187626      25.842901      81.939574    
-807640.43      2.9812283      33.40968       25.859933      81.530905    
-807622.68      3.4960606      34.555721      25.857784      81.122405    
-807617.11      3.3867887      35.767502      25.880677      80.71382     
-807611.96      3.5206379      36.797205      25.84556       80.305736    
-807617.99      3.1489409      34.858721      25.849536      79.897754    
-807628.49      2.9415378      33.865494      25.873933      79.489671    
-807645.89      2.9597624      33.187462      25.903423      79.081442    
-807652.22      2.6126051      33.297638      25.904843      78.673347    
-807647.22      2.9044085      33.41183       25.886914      78.265568    
-807635.84      3.2647314      33.284827      25.902715      77.85778     
-807629.74      3.5730636      32.95407       25.918648      77.449984    
-807615.69      3.1623076      34.945623      25.9016        77.04249     
-807610.6       3.6930437      35.899444      25.925349      76.634915    
-807617.4       3.7767603      34.91487       25.907627      76.227644    
-807636.13      3.8460064      33.627943      25.899225      75.820587    
-807647.08      3.7677929      33.76838       25.899356      75.413664    
-807648.92      3.1682426      33.646396      25.912208      75.006759    
-807645.45      4.4781293      33.470146      25.898648      74.600109    
-807639.6       3.1877096      32.597295      25.861203      74.193921    
-807628.49      2.8559922      33.12186       25.867459      73.787801    
-807611.91      2.712826       34.613209      25.916828      73.381377    
-807611.58      3.1228406      35.312649      25.934661      72.974929    
-807622.7       2.8650623      33.853257      25.974723      72.568272    
-807640.91      2.8150651      32.583142      25.980807      72.1617      
-807643.71      3.8145909      33.577757      25.946114      71.755552    
-807648.17      3.3463292      34.191108      25.987489      71.349192    
-807647.16      3.0128703      33.160894      25.958039      70.943207    
-807640.42      3.1953827      33.451253      25.89072       70.537899    
-807619.37      3.0975412      33.890029      25.862488      70.132938    
-807612.69      2.6903383      34.8632        25.885618      69.727904    
-807614.68      3.2947083      35.18341       25.846922      69.323293    
-807628.18      3.7285065      33.594651      25.884256      68.918495    
-807633.83      3.7484287      32.926854      25.877305      68.513864    
-807647.3       2.748945       32.131994      25.914243      68.109058    
-807649.75      3.6575617      33.323624      25.899164      67.704482    
-807648.08      2.6314761      32.802303      25.905897      67.299966    
-807631.85      4.1737051      33.454292      25.89315       66.895658    
-807620.93      3.0832791      33.656884      25.915965      66.491288    
-807612.91      4.0604567      36.01769       25.891464      66.08721     
-807617.98      3.7137787      34.726983      25.923589      65.683003    
-807620.16      4.1671855      34.385351      25.910477      65.279002    
-807639.12      3.2412369      32.9175        25.971868      64.874666    
-807649.49      3.2686761      33.519313      25.941202      64.470663    
-807650.72      2.9554784      33.544224      25.934511      64.066816    
-807640.27      3.0140788      33.869864      25.890018      63.663389    
-807633.26      2.8906568      33.278941      25.907027      63.259943    
-807622.6       2.6569874      34.546963      25.897622      62.856665    
-807610.74      3.368237       35.391438      25.898344      62.453482    
-807613.04      2.4687856      34.578142      25.968876      62.049922    
-807624.2       2.9553496      33.090996      25.895983      61.646957    
-807643.21      2.7487506      32.746976      25.937738      61.243811    
-807646.09      3.1731187      33.637843      25.858938      60.841286    
-807648.1       3.6069777      32.86607       25.879353      60.438718    
-807640.24      3.087442       34.462154      25.890078      60.036173    
-807637.29      2.846794       32.463658      25.816551      59.634193    
-807614.42      3.4678159      35.061104      25.843708      59.232124    
-807610.1       3.3620792      35.499666      25.914796      58.829694    
-807613.29      3.4419777      35.766448      25.900307      58.427448    
-807630.17      3.0996817      34.235958      25.853358      58.025582    
-807638.03      3.980871       34.819875      25.898039      57.623529    
-807646.57      4.015509       33.814509      25.866407      57.221756    
-807646.74      3.7624372      34.141088      25.869183      56.820051    
-807644.92      3.0280142      33.813495      25.890242      56.418307    
-807627.68      3.1090335      33.754302      25.887799      56.016663    
-807615.6       2.835149       34.272297      25.924274      55.614893    
-807612.56      2.5116841      34.409008      25.908738      55.2133      
-807619.57      3.0705163      35.06016       25.922632      54.811716    
-807630.89      2.6367729      31.708982      25.936197      54.410142    
-807639.23      3.6146414      32.673637      25.923171      54.008729    
-807649.09      3.0117686      32.922738      25.912738      53.607459    
-807648.31      3.3179264      33.302211      25.829148      53.20673     
-807639.71      3.3245434      32.503077      25.846829      52.805979    
-807625.74      3.3207003      32.848654      25.898733      52.405025    
-807619.2       3.0806372      34.229578      25.890561      52.004195    
-807615.01      3.5243919      35.28872       25.943763      51.603166    
-807619.08      2.4835787      34.242458      25.913122      51.202379    
-807631.49      3.0927779      32.764383      25.897744      50.801751    
-807644.51      2.8253622      32.668128      25.941117      50.40098     
-807647.95      3.085608       33.647555      25.908855      50.000453    
-807645.5       2.7312008      32.805916      25.938683      49.599856    
-807636.58      3.14687        32.8926        25.890841      49.199574    
-807630.43      3.1598134      32.43174       25.943834      48.799109    
-807618.02      3.3531396      34.505146      25.918662      48.398845    
-807613.65      3.1550044      35.211713      25.923495      47.998633    
-807619.01      3.4996871      33.809149      25.92803       47.598477    
-807636.02      2.5615383      32.20425       25.90092       47.198522    
-807645.62      2.5052916      31.938612      25.857186      46.798842    
-807645.6       3.0636959      32.995722      25.892569      46.399068    
-807644.72      2.9572872      32.432729      25.844632      45.999581    
-807639.41      2.4846351      31.888495      25.847786      45.600145    
-807627.26      2.9318625      33.377615      25.873269      45.200662    
-807613.68      3.0325633      34.606432      25.90961       44.801087    
-807613.02      2.8163996      34.972065      25.912226      44.401571    
-807623.15      2.7737245      34.010426      25.902064      44.002169    
-807637.27      2.6736583      32.286601      25.921332      43.602754    
-807642.68      3.5999791      33.325733      25.897027      43.203509    
-807647.69      2.6445399      32.878735      25.902776      42.804308    
-807645.98      3.5065214      32.778555      25.923777      42.405089    
-807637.46      2.6117637      32.581464      25.919403      42.005955    
-807623.02      3.5101699      33.352867      25.934088      41.606831    
-807613.3       3.6701153      35.557501      25.916457      41.207844    
-807615.07      3.1915208      34.569783      25.95363       40.80878     
-807625.56      2.7405421      33.957829      25.965236      40.409741    
-807633.78      3.7865248      34.021795      25.980774      40.010713    
-807643.71      2.9887164      34.286509      25.969635      39.611797    
-807646.92      3.248246       33.872291      25.953639      39.213009    
-807645.8       3.8639975      32.699687      25.93849       38.814343    
-807633.18      3.013362       32.536447      25.967327      38.415639    
-807620.35      3.0228837      33.842672      25.926837      38.017145    
-807615.71      3.1167193      34.514242      25.874578      37.618897    
-807617.46      2.608807       33.895925      25.893979      37.22064     
-807622.2       3.2168549      34.306242      25.863394      36.822547    
-807637.27      2.6943057      32.602518      25.853227      36.424544    
-807645.31      3.6338624      33.501895      25.865903      36.026554    
-807647.32      3.7402638      33.448939      25.847632      35.628679    
-807638.38      4.0756832      33.949394      25.81502       35.230964    
-807631.93      3.4775134      33.186433      25.836442      34.83323     
-807621.5       3.9268738      34.183803      25.805728      34.435645    
-807614.05      4.0617253      34.998392      25.78177       34.038183    
-807615.74      3.2693777      34.317764      25.849223      33.64056     
-807626.33      3.4329277      34.191467      25.88318       33.242887    
-807641.99      3.000553       33.38824       25.902354      32.845211    
-807644.56      4.6762839      34.005971      25.926636      32.44752     
-807645.05      2.9109344      32.814102      25.903329      32.049952    
-807638.6       3.5647642      33.946585      25.890509      31.652477    
-807633.45      3.2931475      33.878945      25.863954      31.255129    
-807617.49      2.8979209      34.174833      25.917081      30.857685    
-807613.84      2.9513974      34.995146      25.936677      30.460243    
-807616.39      2.8437011      34.378878      25.937602      30.062854    
-807632.28      2.5675486      32.531811      25.944088      29.665505    
-807637.87      2.968921       33.496429      25.947595      29.268202    
-807644.38      3.4660102      32.949973      25.935615      28.870985    
-807645.99      3.6566796      33.364389      25.91126       28.473884    
-807641.6       3.298652       33.306398      25.891951      28.076882    
-807629.63      2.9552893      33.06148       25.95514       27.679778    
-807617.73      2.4931641      34.437467      25.918986      27.282814    
-807615.93      3.3227547      34.124265      25.894475      26.88596     
-807621.28      3.3240173      34.214146      25.890518      26.489164    
-807629.79      3.2930639      33.238798      25.873082      26.092456    
-807638.32      3.2632726      33.239451      25.872633      25.695796    
-807646.57      2.7955231      33.406866      25.853447      25.299225    
-807646.21      3.5174504      33.159464      25.851374      24.902703    
-807638.63      2.5493778      32.510868      25.875499      24.506174    
-807628.35      2.7377684      32.632935      25.895112      24.109651    
-807621.66      3.0108506      33.999389      25.922087      23.713119    
-807617.17      2.7780419      33.798833      25.902228      23.316676    
-807622.67      3.3177504      33.074189      25.894086      22.920296    
-807630.32      2.936383       32.188477      25.909483      22.523932    
-807643.54      3.2419077      32.496214      25.867048      22.127695    
-807646.2       2.8923311      32.716613      25.882239      21.731474    
-807644.19      3.2748248      33.048997      25.919614      21.335229    
-807636.04      2.6865677      33.453232      25.902931      20.93906     
-807629.24      2.9168193      33.47803       25.925077      20.542899    
-807619.32      3.3120932      34.672898      25.927748      20.146779    
-807617.28      3.1378         34.269245      25.934168      19.750694    
-807621.29      3.8055765      33.371744      25.946627      19.354637    
-807635.84      3.070483       32.442786      25.943514      18.958631    
-807643.42      3.1012021      32.736178      25.935136      18.562685    
-807644         3.3878092      33.287382      25.884158      18.166861    
-807641.84      3.3372988      32.815089      25.888964      17.771072    
-807638.79      2.9071429      32.552936      25.912175      17.375292    
-807626.5       3.150557       33.791167      25.960599      16.979487    
-807615.97      2.8372032      34.812336      25.920135      16.583783    
-807616.46      2.7526417      34.045335      25.989423      16.188031    
-807625.34      3.265804       33.778412      26.002242      15.79231     
-807633.03      3.5786929      33.948481      25.905391      15.396758    
-807640.49      3.2931154      34.423189      25.92135       15.001229    
-807644.37      3.3977045      33.52626       25.931463      14.60573     
-807641.85      4.2141315      34.148548      25.920877      14.210285    
-807636.87      2.8804645      33.033193      25.966295      13.814831    
-807623.34      3.5904394      34.410189      25.990598      13.419395    
-807615.56      2.6139371      34.759656      26.027345      13.023967    
-807617.31      2.8611504      34.351265      25.993915      12.62862     
-807625.12      2.8713175      34.123465      26.013462      12.2333      
-807632.17      2.9940715      33.656452      25.915706      11.838118    
-807642.02      2.9151215      33.057509      25.92711       11.442966    
-807644.25      3.2935987      33.692167      25.924805      11.047856    
-807640.76      2.6367426      33.785818      25.900606      10.652806    
-807630.33      2.7071338      33.467477      25.990079      10.25772     
-807623.97      3.4149243      34.571004      26.008141      9.8626647    
-807615.74      2.6949157      35.236561      25.960015      9.4676893    
-807620.35      3.4031616      35.202725      25.956415      9.0727574    
-807625.39      3.3670215      33.824968      25.914726      8.6778945    
-807635.16      3.2496764      33.826294      25.962844      8.2830377    
-807642.23      3.1389642      34.12843       25.968349      7.8882179    
-807643.47      3.3878884      34.052748      26.011718      7.4934132    
-807637.32      3.2551512      34.189169      25.981675      7.0986682    
-807632.24      2.5431659      32.67868       26.016822      6.7039456    
-807623.18      2.6677381      32.90205       26.062152      6.3092437    
-807616.66      3.1246311      34.218525      26.029711      5.9146021    
-807619.25      2.6834692      33.380961      25.992712      5.5200192    
-807627.92      2.6497129      33.558211      25.956881      5.125491     
-807636.45      3.6769168      33.267456      25.994392      4.7309871    
-807644.34      3.4424128      33.004944      25.944699      4.3365399    
-807641.17      3.3998434      33.689231      25.934774      3.9421325    
-807639.35      2.5357563      32.730646      25.956175      3.5477553    
-807630.99      3.2222101      33.303298      26.028149      3.1533977    
-807621.83      2.6530015      33.381869      25.963692      2.7590949    
-807615.55      3.3642494      34.594446      25.867795      2.3648465    
-807621.43      3.0501479      33.870285      25.88661       1.9706262    
-807630.28      3.6822619      33.330923      25.902471      1.5764359    
-807637.07      2.7236037      33.700635      25.941042      1.1822749    
-807643.8       2.4172487      32.58125       25.984674      0.78814613   
-807641.94      2.6667126      33.255402      26.017527      0.39405359   
-807638.13      3.2343081      32.949839      25.982509      0            
Loop time of 197.018 on 32 procs for 5000 steps with 1080 atoms

Performance: 4.385 ns/day, 5.473 hours/ns, 25.378 timesteps/s, 27.409 katom-step/s
67.2% CPU use with 32 MPI tasks x 1 OpenMP threads

MPI task timing breakdown:
Section |  min time  |  avg time  |  max time  |%varavg| %total
---------------------------------------------------------------
Pair    | 101.21     | 144.55     | 192.65     | 314.3 | 73.37
Neigh   | 0          | 0          | 0          |   0.0 |  0.00
Comm    | 2.0915     | 50.191     | 93.526     | 533.3 | 25.48
Output  | 0.025917   | 0.027209   | 0.028748   |   0.3 |  0.01
Modify  | 1.9269     | 1.9378     | 1.9493     |   0.3 |  0.98
Other   |            | 0.3146     |            |       |  0.16

Nlocal:          33.75 ave          48 max          21 min
Histogram: 8 8 0 0 0 0 0 8 0 8
Nghost:        1106.25 ave        1119 max        1092 min
Histogram: 8 0 8 0 0 0 0 0 8 8
Neighs:              0 ave           0 max           0 min
Histogram: 32 0 0 0 0 0 0 0 0 0
FullNghs:       5494.5 ave        7896 max        3378 min
Histogram: 8 8 0 0 0 0 0 8 0 8

Total # of neighbors = 175824
Ave neighs/atom = 162.8
Neighbor list builds = 0
Dangerous builds = 0

reset_timestep 0


variable interval equal 1000
thermo 10

variable nintervals equal $(v_PERIOD/v_interval)
variable nintervals equal 100
variable efield equal 1e-2*36.36*cos((step/${PERIOD})*2*3.14)
variable efield equal 1e-2*36.36*cos((step/100000)*2*3.14)
fix born all addbornforce 0.0 0.0 v_efield

variable Px equal f_born[1]+c_polarization[1]
variable Py equal f_born[2]+c_polarization[2]
variable Pz equal (f_born[3]+c_polarization[3])/vol
variable pe equal pe

fix aveP all ave/time 1 $(v_interval/2) ${interval} v_efield v_Pz v_pe f_born file Pz.${MODEL}.${STRUCTURE}.${TEMP}.$L.${ITER}
fix aveP all ave/time 1 500 ${interval} v_efield v_Pz v_pe f_born file Pz.${MODEL}.${STRUCTURE}.${TEMP}.$L.${ITER}
fix aveP all ave/time 1 500 1000 v_efield v_Pz v_pe f_born file Pz.${MODEL}.${STRUCTURE}.${TEMP}.$L.${ITER}
fix aveP all ave/time 1 500 1000 v_efield v_Pz v_pe f_born file Pz.BaTiO3-E0.${STRUCTURE}.${TEMP}.$L.${ITER}
fix aveP all ave/time 1 500 1000 v_efield v_Pz v_pe f_born file Pz.BaTiO3-E0.BaTiO3-sc333.${TEMP}.$L.${ITER}
fix aveP all ave/time 1 500 1000 v_efield v_Pz v_pe f_born file Pz.BaTiO3-E0.BaTiO3-sc333.300.$L.${ITER}
fix aveP all ave/time 1 500 1000 v_efield v_Pz v_pe f_born file Pz.BaTiO3-E0.BaTiO3-sc333.300.2.${ITER}
fix aveP all ave/time 1 500 1000 v_efield v_Pz v_pe f_born file Pz.BaTiO3-E0.BaTiO3-sc333.300.2.5

thermo_style custom step time temp press pe f_born v_efield v_Pz spcpu cpuremain

# dump 4a all custom 1000 dump.hyst.${MODEL}.${STRUCTURE}.${TEMP}.$L.${ITER}.bin id type xu yu zu fx fy fz
# dump_modify 4a sort id

fix nvt all nvt temp ${TEMP} ${TEMP} $(100*dt)
fix nvt all nvt temp 300 ${TEMP} $(100*dt)
fix nvt all nvt temp 300 300 $(100*dt)
fix nvt all nvt temp 300 300 0.2000000000000000111

run $(v_PERIOD)
run 100000
WARNING: non-constant efield is experimental, strongly distrust scalar/vector output (src/fix_addbornforce.cpp:193)
Per MPI rank memory allocation (min/avg/max) = 3.516 | 3.516 | 3.516 Mbytes
   Step          Time           Temp          Press          PotEng         f_born        v_efield         v_Pz          S/CPU         CPULeft    
         0   0              294.59403      128393.03     -807638.13     -296.33622      0.3636         0.055732481    0              0            
        10   0.02           308.40375      137176.01     -807628.94     -307.47871      0.36359993     0.057828081    25.66022       3896.7118    
        20   0.04           313.3678       140854.17     -807623.06     -314.14491      0.36359971     0.05908184     25.637661      3898.029     
        30   0.06           286.17012      145226.5      -807616.56     -316.74518      0.36359935     0.059570937    27.142071      3826.162     
        40   0.08           303.75398      139177.19     -807625.3      -310.59058      0.36359885     0.058413508    27.168089      3789.1636    
        50   0.1            302.01438      135392.13     -807630.13     -305.43238      0.36359821     0.057443496    27.154363      3767.1892    
        60   0.12           303.8642       126077.24     -807640.26     -295.62532      0.36359742     0.055599177    27.162338      3752.2369    
        70   0.14           298.75778      125119.18     -807643.38     -291.69915      0.36359649     0.054860909    27.201995      3740.6852    
        80   0.16           286.75742      123509.67     -807643.09     -290.45321      0.36359541     0.054626743    27.176758      3732.3559    
        90   0.18           302.14397      131064.28     -807635.39     -300.30178      0.36359419     0.056479194    27.186934      3725.6428    
       100   0.2            303.44758      135430.28     -807628.15     -307.89116      0.36359283     0.057906781    27.191885      3720.132     
       110   0.22           297.6731       143469.46     -807620.28     -314.83809      0.36359132     0.059213574    27.187032      3715.6158    
       120   0.24           286.92612      142906.62     -807619.48     -314.24424      0.36358968     0.059102153    27.197324      3711.6752    
       130   0.26           303.13045      140770.97     -807624.46     -311.45064      0.36358788     0.05857703     27.208513      3708.1681    
       140   0.28           308.55301      131900.99     -807633.06     -303.63798      0.36358595     0.057107943    27.175876      3705.4247    
       150   0.3            301.73846      127673.72     -807639.69     -295.92792      0.36358387     0.05565816     27.18999       3702.8703    
       160   0.32           286.02012      123421.43     -807642.9      -290.54254      0.36358165     0.054645613    27.20874       3700.4313    
       170   0.34           295.37825      125784.56     -807641.37     -293.297        0.36357928     0.055164033    27.201907      3698.2902    
       180   0.36           303.92461      130619.92     -807634.3      -301.65646      0.36357677     0.056736693    27.192562      3696.4162    
       190   0.38           304.11795      137171.39     -807626.89     -309.04129      0.36357412     0.058126084    27.167244      3694.8809    
       200   0.4            296.11476      142231.34     -807620.95     -313.84376      0.36357132     0.059029812    27.131204      3693.7064    
       210   0.42           290.39648      142383.61     -807619.66     -314.33058      0.36356838     0.059121854    27.151696      3692.4761    
       220   0.44           311.28859      138118.33     -807625.72     -311.06539      0.3635653      0.058508207    27.204362      3691.001     
       230   0.46           295.63697      131659.05     -807632.16     -302.39569      0.36356207     0.056878031    27.215955      3689.5545    
       240   0.48           298.25693      127160.55     -807640.89     -293.88478      0.3635587      0.055277713    27.222056      3688.1633    
       250   0.5            283.13286      125004.54     -807641.58     -290.98022      0.36355519     0.054731914    27.249887      3686.7045    
       260   0.52           299.78928      126795.36     -807639.56     -295.21413      0.36355153     0.05552885     27.231499      3685.4247    
       270   0.54           305.64958      131300.39     -807633.74     -301.80201      0.36354773     0.056768603    27.197004      3684.3847    
       280   0.56           314.10044      137668.62     -807628.36     -308.22007      0.36354379     0.05797646     27.214688      3683.3074    
       290   0.58           299.23486      142751.5      -807619.88     -314.43149      0.3635397      0.0591455      27.230468      3682.2059    
       300   0.6            307.42548      142029        -807620.64     -314.78784      0.36353547     0.059213218    27.208079      3681.2538    
       310   0.62           311.71991      137854.51     -807627.05     -308.77564      0.3635311      0.058082992    27.213395      3680.3165    
       320   0.64           307.88572      131112.87     -807634.79     -300.3614       0.36352658     0.056500912    27.217714      3679.3962    
       330   0.66           302.88247      127569.76     -807638.77     -295.50605      0.36352192     0.055588286    27.220022      3678.5006    
       340   0.68           285.33024      125050.24     -807639.09     -292.66276      0.36351712     0.055054156    27.180637      3677.7918    
       350   0.7            296.99718      128672.18     -807637.52     -295.72047      0.36351217     0.055630114    27.163286      3677.1693    
       360   0.72           311.80932      132096.21     -807633.49     -301.79352      0.36350708     0.056773354    27.1724        3676.5268    
       370   0.74           313.06355      140221.4      -807623.85     -311.48768      0.36350185     0.058597861    27.22703       3675.7003    
       380   0.76           296.74993      142557.1      -807618.48     -314.51812      0.36349647     0.059168831    27.218666      3674.9276    
       390   0.78           302.70847      142678.51     -807621.13     -312.577        0.36349095     0.058804549    27.214729      3674.1893    
       400   0.8            313.31925      136125.2      -807629.3      -305.921        0.36348529     0.057553266    27.221807      3673.4457    
       410   0.82           313.00393      131092.61     -807634.17     -300.87768      0.36347948     0.056605364    27.192252      3672.8174    
       420   0.84           293.3383       126595.74     -807637.53     -294.72373      0.36347353     0.055448504    27.178429      3672.2461    
       430   0.86           300.33442      125646.47     -807641.1      -292.0576       0.36346744     0.054947827    27.185643      3671.6613    
       440   0.88           307.63025      128711        -807638.63     -295.56407      0.3634612      0.05560849     27.167316      3671.1428    
       450   0.9            316.13757      134419.35     -807630.26     -305.26285      0.36345482     0.057434261    27.196131      3670.5446    
       460   0.92           306.49175      140046.34     -807622.38     -311.84289      0.3634483      0.058673329    27.212267      3669.9091    
       470   0.94           299.96395      142600.02     -807620.76     -312.59952      0.36344163     0.058816768    27.19407       3669.3372    
       480   0.96           305.24275      140048.01     -807623.18     -311.01622      0.36343482     0.05851996     27.159581      3668.8707    
       490   0.98           311.24495      136022.29     -807627.61     -307.52382      0.36342786     0.057863947    27.165971      3668.3904    
       500   1              307.48581      130817.27     -807635.16     -299.57251      0.36342077     0.056368923    27.149431      3667.9594    
       510   1.02           294.74343      126899.31     -807640.61     -9359.0022      0.36341353     0.055033357    27.095301      3667.6744    
       520   1.04           295.98773      125822.47     -807640.79     -9363.6847      0.36340614     0.055062009    27.132669      3667.2889    
       530   1.06           300.26246      129139.47     -807635.15     -9573.3917      0.36339862     0.056296332    27.142133      3666.8799    
       540   1.08           309.37099      134388.19     -807630.11     -9783.4331      0.36339095     0.057532695    27.169677      3666.4036    
       550   1.1            294.89736      139133.35     -807623.99     -9922.328       0.36338313     0.058350738    27.16644       3665.9392    
       560   1.12           303.02642      141336.04     -807622.43     -10016.474      0.36337518     0.058905675    27.183274      3665.4377    
       570   1.14           299.01084      139336.14     -807622.36     -10010.077      0.36336707     0.058869367    27.208358      3664.8819    
       580   1.16           302.14424      135792.94     -807629.86     -9789.8507      0.36335883     0.057575523    27.209857      3664.3289    
       590   1.18           299.40616      128482.54     -807639.17     -9486.0967      0.36335044     0.055790389    27.151011      3663.9165    
       600   1.2            283.09702      126787.25     -807639.57     -9405.3202      0.36334191     0.055316619    27.089861      3663.6433    
       610   1.22           280.94597      125260.65     -807639.81     -9396.8045      0.36333324     0.055267854    27.096105      3663.3531    
       620   1.24           293.44732      130484.45     -807635.39     -9596.1852      0.36332442     0.056441892    27.090389      3663.0728    
       630   1.26           303.3215       133931.46     -807632.52     -9738.598       0.36331546     0.057280934    27.053904      3662.8683    
       640   1.28           292.84996      141269.45     -807623.68     -9975.0965      0.36330636     0.058673452    27.105775      3662.5487    
       650   1.3            300.74655      140819.39     -807622.66     -10047.8        0.36329711     0.059102601    27.139751      3662.157     
       660   1.32           292.37487      140655.67     -807624.42     -9953.9819      0.36328772     0.05855226     27.136469      3661.7727    
       670   1.34           313.83042      132321.82     -807636.14     -9674.8097      0.36327819     0.05691158     27.099131      3661.4642    
       680   1.36           281.69775      128860.64     -807636.44     -9520.3079      0.36326851     0.056004223    27.048583      3661.2547    
       690   1.38           285.59979      125164.5      -807641.17     -9388.4346      0.36325869     0.055229957    27.019591      3661.0976    
       700   1.4            286.26162      126877.5      -807640.48     -9410.7706      0.36324873     0.055362873    27.005261      3660.9622    
       710   1.42           294.66006      129862.01     -807637.15     -9555.3764      0.36323863     0.056215142    27.021238      3660.7897    
       720   1.44           296.82294      136879.42     -807628.72     -9833.2838      0.36322838     0.057851729    27.059344      3660.5397    
       730   1.46           296.57696      140291.53     -807622.85     -10020.129      0.36321798     0.058952676    27.114604      3660.1842    
       740   1.48           296.68464      141647.48     -807622.51     -10025.216      0.36320745     0.058984315    27.113366      3659.8304    
       750   1.5            297.33996      138321.55     -807626.84     -9886.9122      0.36319677     0.058172301    27.120392      3659.4636    
       760   1.52           301.4455       133164.82     -807633.05     -9702.8919      0.36318595     0.057091269    27.112704      3659.1105    
       770   1.54           283.40067      128986.38     -807636.1      -9519.0872      0.36317498     0.056011464    27.127529      3658.731     
       780   1.56           300.77976      124833.53     -807643.48     -9356.476       0.36316387     0.055056324    27.127097      3658.3524    
       790   1.58           293.63862      127181.01     -807641.23     -9390.8301      0.36315262     0.055260186    27.114629      3657.9955    
       800   1.6            294.02202      130890.64     -807634.14     -9618.9456      0.36314122     0.056604304    27.106575      3657.6518    
       810   1.62           299.64453      137213.7      -807626.95     -9869.9104      0.36312968     0.058082994    27.140759      3657.2506    
       820   1.64           296.52362      139911.13     -807623.76     -9952.6127      0.363118       0.05857157     27.198311      3656.7559    
       830   1.66           302.66772      141610.14     -807623.45     -9985.393       0.36310618     0.058766397    27.189618      3656.2782    
       840   1.68           290.9391       138376.82     -807624.24     -9904.0259      0.36309421     0.058289453    27.147696      3655.8703    
       850   1.7            302.00317      132802.66     -807632.46     -9683.9904      0.3630821      0.056996351    27.149987      3655.4596    
       860   1.72           303.08462      127095.71     -807640.38     -9430.1136      0.36306984     0.055504       27.138357      3655.0682    
       870   1.74           292.93234      125917.62     -807641.17     -9355.1043      0.36305745     0.055064389    27.092419      3654.7485    
       880   1.76           295.11726      127439.64     -807637.92     -9466.3179      0.3630449      0.05572092     27.142833      3654.3504    
       890   1.78           295.64641      132426.66     -807632.27     -9648.0686      0.36303222     0.05679273     27.151748      3653.9395    
       900   1.8            319.38608      136805.18     -807629.5      -9839.0966      0.36301939     0.057919251    27.173044      3653.4978    
       910   1.82           299.63166      140774.76     -807621.8      -9996.2963      0.36300642     0.058846732    27.152988      3653.0873    
       920   1.84           297.28165      141972.6      -807621.25     -10001.758      0.36299331     0.058881009    27.156393      3652.6727    
       930   1.86           311.00325      136818.88     -807627.8      -9851.33        0.36298005     0.05799755     27.122914      3652.3075    
       940   1.88           307.67874      131325.45     -807634.69     -9615.2098      0.36296665     0.056609534    27.073639      3652.0131    
       950   1.9            293.76811      127101.1      -807638.47     -9430.7139      0.36295311     0.055525386    27.056695      3651.7411    
       960   1.92           287.99916      126077.72     -807638.46     -9405.3722      0.36293942     0.05537827     27.091312      3651.4184    
       970   1.94           304.51936      127810.53     -807639.15     -9455.9973      0.36292559     0.055678469    27.133163      3651.0366    
       980   1.96           293.91832      133165.13     -807631.61     -9649.9179      0.36291162     0.056822493    27.130577      3650.6587    
       990   1.98           308.24259      137693.44     -807626.31     -9882.6929      0.3628975      0.058195427    27.116694      3650.2997    
      1000   2              303.52427      141366.86     -807621.45     -10017.998      0.36288325     0.058994502    27.033319      3650.0532    
      1010   2.02           306.45352      140467.94     -807623.39     -311.49287      0.36286884     0.058701061    27.210468      3649.5682    
      1020   2.04           308.63874      136268.78     -807629.65     -305.51202      0.3628543      0.057576273    27.198218      3649.1015    
      1030   2.06           309.68439      130548.45     -807635.12     -300.18596      0.36283961     0.056574823    27.180245      3648.6602    
      1040   2.08           287.68326      127130.6      -807636.99     -295.21892      0.36282478     0.055640979    27.182531      3648.2173    
      1050   2.1            300.23994      126164.59     -807641.66     -292.26073      0.3628098      0.055085712    27.184946      3647.7728    
      1060   2.12           289.31792      129551.12     -807637.01     -295.45337      0.36279469     0.055689786    27.215893      3647.2907    
      1070   2.14           304.43274      134399.55     -807630.8      -303.83128      0.36277943     0.05727134     27.228366      3646.7951    
      1080   2.16           317.70084      138332.69     -807626.53     -309.96341      0.36276402     0.058429711    27.249047      3646.2764    
      1090   2.18           301.4307       141180.55     -807622.56     -311.63758      0.36274848     0.058747818    27.211114      3645.807     
      1100   2.2            299.86154      139255.42     -807624.49     -309.58249      0.36273279     0.058362932    27.170255      3645.3891    
      1110   2.22           301.32082      136260.88     -807628.29     -305.95313      0.36271695     0.057681236    27.239804      3644.8882    
      1120   2.24           299.25001      130221.83     -807634.84     -299.12404      0.36270098     0.056396235    27.23326       3644.3977    
      1130   2.26           285.07231      126962.75     -807638.76     -293.23798      0.36268486     0.055288946    24.332254      3647.7397    
      1140   2.28           290.501        125490.78     -807639.98     -292.83651      0.3626686      0.055215725    27.122739      3647.3492    
      1150   2.3            297.8793       129362.01     -807635.97     -297.92061      0.36265219     0.056176899    27.240908      3646.8216    
      1160   2.32           308.40482      133663.3      -807631.06     -304.34013      0.36263564     0.057390004    27.232768      3646.3061    
      1170   2.34           305.21608      138574.85     -807625.81     -309.16228      0.36261895     0.05830201     27.201617      3645.8287    
      1180   2.36           300.2672       140779.4      -807623.45     -310.89435      0.36260212     0.058631365    27.202677      3645.3519    
      1190   2.38           299.44612      139837.17     -807623.93     -310.32945      0.36258514     0.058527571    27.188932      3644.8924    
      1200   2.4            305.89882      134460.98     -807630.41     -304.7648       0.36256802     0.057480803    27.20492       3644.4167    
      1210   2.42           289.4217       130987.55     -807634.86     -298.03295      0.36255076     0.056213805    27.181298      3643.9687    
      1220   2.44           298.79101      126376.41     -807641.76     -292.50116      0.36253335     0.055173069    27.174808      3643.5293    
      1230   2.46           292.30247      127573.4      -807638.75     -294.59885      0.3625158      0.055571436    27.189313      3643.0752    
      1240   2.48           301.50758      128823.86     -807636.8      -297.97561      0.36249811     0.056211152    27.170837      3642.6424    
      1250   2.5            293.39431      136210.28     -807628.93     -304.74843      0.36248028     0.057491628    27.151856      3642.2311    
      1260   2.52           305.11761      137709.5      -807627.08     -308.35527      0.3624623      0.058174954    27.163255      3641.8082    
      1270   2.54           291.92782      141691.11     -807621        -312.56673      0.36244418     0.058972445    27.203638      3641.3437    
      1280   2.56           293.44447      138182.86     -807625.34     -308.64316      0.36242592     0.058235114    27.213224      3640.8707    
      1290   2.58           303.56297      134792.37     -807632.16     -303.28325      0.36240751     0.057226708    27.163172      3640.4513    
      1300   2.6            292.71299      128417.48     -807636.78     -297.17835      0.36238896     0.056077639    27.162157      3640.0336    
      1310   2.62           296.5808       125982.84     -807640.2      -294.35526      0.36237027     0.055547788    27.171874      3639.6068    
      1320   2.64           285.18025      127714.31     -807638.69     -294.42489      0.36235143     0.055563815    27.182428      3639.1702    
      1330   2.66           302.68725      129710.39     -807637.07     -298.61137      0.36233245     0.056356839    27.17275       3638.7443    
      1340   2.68           293.42703      135502.73     -807629.02     -305.48719      0.36231333     0.057657552    27.183222      3638.3089    
      1350   2.7            294.31341      138777.52     -807625.13     -309.61783      0.36229407     0.058440275    27.194354      3637.8635    
      1360   2.72           294.37092      140828.36     -807623.22     -311.53681      0.36227466     0.058805633    27.197505      3637.4161    
      1370   2.74           299.41829      135851.22     -807628.67     -306.9297       0.36225511     0.057939122    27.214802      3636.9531    
      1380   2.76           292.48737      134306.65     -807631.8      -302.78626      0.36223542     0.057160072    27.239767      3636.4673    
      1390   2.78           284.60214      128248.85     -807637.48     -296.13542      0.36221558     0.055907587    27.250188      3635.9734    
      1400   2.8            293.84668      127471.51     -807640.64     -294.14256      0.3621956      0.055534416    27.21491       3635.5147    
      1410   2.82           292.9575       125535.5      -807641.58     -293.15283      0.36217548     0.055350629    27.217844      3635.0546    
      1420   2.84           296.30891      132648.4      -807634.34     -300.81731      0.36215522     0.056800948    27.217016      3634.5965    
      1430   2.86           294.86739      134616.84     -807629.34     -305.72633      0.36213481     0.057731134    27.215179      3634.1415    
      1440   2.88           293.11827      140897.63     -807623.65     -311.00952      0.36211426     0.058732105    27.24436       3633.6607    
      1450   2.9            291.75689      138004.38     -807625.61     -308.86363      0.36209357     0.058330201    27.232162      3633.1927    
      1460   2.92           298.56698      138153.39     -807626.99     -308.22392      0.36207273     0.058212739    27.196115      3632.7588    
      1470   2.94           298.37548      131655.04     -807633.65     -301.53517      0.36205176     0.056952768    27.220131      3632.3041    
      1480   2.96           287.6522       129508.06     -807637.19     -296.22623      0.36203064     0.055953301    27.237643      3631.8349    
      1490   2.98           291.69639      124661.03     -807642.36     -291.43228      0.36200937     0.055051019    27.222553      3631.3806    
      1500   3              288.49382      128490.06     -807637.72     -295.43874      0.36198796     0.055811131    27.206822      3630.9413    
      1510   3.02           306.51864      131019.78     -807634.56     -9630.2543      0.36196642     0.056854785    27.031716      3630.6583    
      1520   3.04           297.68423      136785.05     -807627.75     -9799.9409      0.36194472     0.057860042    27.130772      3630.2866    
      1530   3.06           291.49513      140130.92     -807624.22     -9876.61        0.36192289     0.058316224    27.135837      3629.9105    
      1540   3.08           303.54877      139488.52     -807624.57     -9909.5438      0.36190091     0.058514234    27.129831      3629.5398    
      1550   3.1            311.74284      135862.64     -807628.39     -9815.5089      0.36187879     0.057962516    27.120361      3629.1772    
      1560   3.12           301.47837      131771.24     -807633.99     -9580.9819      0.36185653     0.056581069    27.110091      3628.8234    
      1570   3.14           297.38171      128035.09     -807638.79     -9400.2039      0.36183412     0.055516911    27.112883      3628.467     
      1580   3.16           295.25659      126980.42     -807639.32     -9366.359       0.36181157     0.055320473    27.119683      3628.1047    
      1590   3.18           305.35338      129134.48     -807636.85     -9484.3409      0.36178888     0.056020822    27.099465      3627.7593    
      1600   3.2            307.26981      132372.87     -807632.18     -9636.4418      0.36176605     0.056922824    27.094854      3627.4176    
      1610   3.22           309.06868      138329.78     -807627.64     -9783.6212      0.36174307     0.057795889    27.153941      3627.0263    
      1620   3.24           297.26183      139499.94     -807622.39     -9895.7908      0.36171995     0.058462257    27.128228      3626.6566    
      1630   3.26           313.48677      139909.22     -807623.85     -9915.0033      0.36169669     0.058579528    27.156861      3626.2634    
      1640   3.28           308.34154      134073.45     -807629.46     -9712.5806      0.36167329     0.057387293    27.161884      3625.8665    
      1650   3.3            310.30596      131717.52     -807635.07     -9533.4381      0.36164974     0.056332488    27.18809       3625.4487    
      1660   3.32           311.14497      125723.86     -807640.64     -9361.0155      0.36162605     0.055317277    27.175014      3625.0421    
      1670   3.34           299.95709      128384.21     -807636.4      -9441.9644      0.36160222     0.055799308    27.156938      3624.6503    
      1680   3.36           305.56393      127946.68     -807637.39     -9438.1841      0.36157824     0.055780666    27.122976      3624.2858    
      1690   3.38           313.17622      135083.94     -807631.48     -9658.1702      0.36155413     0.057084614    27.140409      3623.9075    
      1700   3.4            311.01217      136625.76     -807626.62     -9808.7376      0.36152987     0.057978433    27.15424       3623.5184    
      1710   3.42           299.02536      142356.81     -807620.07     -9963.7707      0.36150546     0.058898793    27.156784      3623.1275    
      1720   3.44           297.1045       138882.01     -807624.83     -9805.0218      0.36148092     0.057964317    27.129662      3622.758     
      1730   3.46           311.15555      136458.56     -807630.26     -9691.2892      0.36145623     0.057295878    27.124702      3622.3924    
      1740   3.48           307.08597      129654.95     -807635.04     -9525.38        0.3614314      0.056318875    27.105395      3622.0414    
      1750   3.5            300.76892      129364.19     -807636.43     -9452.1006      0.36140643     0.055889471    27.151948      3621.6548    
      1760   3.52           295.09794      126941.25     -807639.06     -9345.9507      0.36138131     0.055265657    27.155414      3621.2658    
      1770   3.54           305.45757      130077.34     -807636.98     -9462.3382      0.36135605     0.055957805    27.132937      3620.894     
      1780   3.56           300.83679      134280.46     -807629.38     -9689.3541      0.36133065     0.057304346    27.09607       3620.5498    
      1790   3.58           313.08615      138188.86     -807625.83     -9863.2459      0.36130511     0.058336893    27.124836      3620.1839    
      1800   3.6            299.25594      139667.76     -807624.11     -9857.3143      0.36127942     0.058305955    27.138974      3619.8075    
      1810   3.62           306.75716      136999.18     -807627.59     -9785.0044      0.3612536      0.057882381    27.14485       3619.4268    
      1820   3.64           301.04807      135211.8      -807628.46     -9735.7976      0.36122763     0.057595443    27.133755      3619.0545    
      1830   3.66           300.37648      129885.86     -807635.08     -9527.4809      0.36120151     0.056367148    27.082079      3618.7198    
      1840   3.68           295.5493       128107.66     -807639.03     -9380.1247      0.36117526     0.055499384    27.110723      3618.364     
      1850   3.7            285.26302      126471.13     -807639.13     -9341.7204      0.36114886     0.055276197    27.054242      3618.0489    
      1860   3.72           300.50108      131282.49     -807634.65     -9555.6534      0.36112232     0.056546222    27.105966      3617.696     
      1870   3.74           300.48166      133359.41     -807631.8      -9655.7372      0.36109564     0.057142697    27.096578      3617.3497    
      1880   3.76           296.65148      138468.81     -807626.77     -9801.4298      0.36106881     0.058009216    27.150976      3616.9645    
      1890   3.78           292.51303      137243.68     -807626.18     -9809.4984      0.36104184     0.058061306    27.117193      3616.6033    
      1900   3.8            299.11979      139131.35     -807626.31     -9838.0389      0.36101474     0.058234607    27.141614      3616.2249    
      1910   3.82           293.79153      133407.91     -807630.54     -9687.0033      0.36098748     0.057344906    27.153576      3615.8382    
      1920   3.84           293.80629      130733.24     -807635.9      -9517.2768      0.36096009     0.056344439    27.158438      3615.4484    
      1930   3.86           289.08792      126730.35     -807640.15     -9366.2608      0.36093255     0.05545462     27.102318      3615.0975    
      1940   3.88           291.20312      129471.79     -807637.41     -9467.1656      0.36090487     0.056056344    27.060255      3614.7755    
      1950   3.9            295.26442      129063.67     -807635.78     -9545.1429      0.36087705     0.056522415    27.094871      3614.4292    
      1960   3.92           301.03482      135174.31     -807631.7      -9703.5848      0.36084909     0.057465096    27.135694      3614.0549    
      1970   3.94           287.58673      136099.89     -807628.45     -9755.9667      0.36082098     0.057779804    27.15884       3613.6651    
      1980   3.96           286.37212      139730.75     -807623.94     -9896.2151      0.36079273     0.058615016    27.150091      3613.2813    
      1990   3.98           298.94185      134927.42     -807630.07     -9765.951       0.36076434     0.057848017    27.165879      3612.8872    
      2000   4              295.51691      134245.3      -807633.55     -9640.6473      0.36073581     0.057110305    27.157042      3612.4992    
      2010   4.02           281.90703      128436.39     -807638.45     -294.73237      0.36070713     0.055875397    27.214337      3612.0736    
      2020   4.04           293.30142      128453.02     -807640.12     -294.82288      0.36067831     0.055897022    27.211761      3611.6502    
      2030   4.06           276.13645      126687.88     -807638.58     -294.33823      0.36064935     0.055809616    27.202399      3611.2335    
      2040   4.08           285.71813      131728.05     -807635.86     -298.62367      0.36062025     0.056626749    27.117485      3610.8726    
      2050   4.1            282.7589       133872.84     -807632.29     -302.19837      0.36059101     0.057309253    27.161514      3610.483     
      2060   4.12           278.93003      138287.72     -807626.26     -307.864        0.36056162     0.058388448    27.230537      3610.0493    
      2070   4.14           283.58787      136954.75     -807627.78     -307.2761       0.36053209     0.058281721    27.241427      3609.6092    
      2080   4.16           288.83016      135078.7      -807632.13     -303.85885      0.36050242     0.057638307    27.264666      3609.1552    
      2090   4.18           275.99602      132096.35     -807634.74     -299.57834      0.36047261     0.056831048    27.255277      3608.7079    
      2100   4.2            283.26145      128070.63     -807639.45     -296.00086      0.36044265     0.056157053    27.207449      3608.2914    
      2110   4.22           279.90572      127053.72     -807640.09     -294.91798      0.36041256     0.055956284    27.16958       3607.8991    
      2120   4.24           276.7198       127581        -807640.39     -294.22901      0.36038232     0.055830245    27.166327      3607.5092    
      2130   4.26           269.77987      131826.74     -807634.17     -299.42367      0.36035193     0.056820726    27.182109      3607.1096    
      2140   4.28           289.68982      133809.76     -807632.76     -303.57221      0.36032141     0.057612863    27.152006      3606.7289    
      2150   4.3            275.27636      138049.35     -807627.34     -306.7949       0.36029075     0.058229431    27.172777      3606.3355    
      2160   4.32           285.52379      136205.39     -807629.73     -305.59242      0.36025994     0.058006162    27.185458      3605.9346    
      2170   4.34           286.92984      135006.03     -807631.4      -303.78008      0.36022899     0.057667105    27.237519      3605.5024    
      2180   4.36           288.93753      130562.07     -807635.9      -299.28275      0.36019789     0.056818273    27.203282      3605.0914    
      2190   4.38           282.75153      128851.67     -807638.44     -295.41255      0.36016666     0.056088386    27.170668      3604.7006    
      2200   4.4            284.35972      126243.6      -807641.32     -292.43856      0.36013528     0.05552857     27.110369      3604.3463    
      2210   4.42           281.9249       129809.61     -807637.62     -295.38908      0.36010377     0.056093726    27.119108      3603.9867    
      2220   4.44           289.08534      131122.55     -807634.15     -299.65037      0.36007211     0.056907939    27.173896      3603.5942    
      2230   4.46           292.11936      136594.13     -807629.22     -304.5931       0.3600403      0.057851744    27.205722      3603.1831    
      2240   4.48           284.01342      136651.89     -807627.57     -304.9681       0.36000836     0.057928108    27.211973      3602.7686    
      2250   4.5            292.17929      137860.05     -807626.92     -306.4268       0.35997627     0.058210373    27.227844      3602.3453    
      2260   4.52           290.47647      134288.32     -807629.99     -302.99986      0.35994404     0.057564529    27.244853      3601.9126    
      2270   4.54           301.5548       131517.45     -807635.1      -299.15063      0.35991167     0.056838355    27.207588      3601.5021    
      2280   4.56           291.55325      126788.3      -807639.43     -293.20847      0.35987916     0.055714384    27.245112      3601.0703    
      2290   4.58           284.06213      128338.62     -807637.87     -293.48468      0.35984651     0.055771928    27.217472      3600.6549    
      2300   4.6            292.79112      128272.78     -807637.27     -295.18478      0.35981371     0.056100117    27.183832      3600.2593    
      2310   4.62           296.59493      133335.34     -807633.06     -299.70796      0.35978077     0.056964965    27.194752      3599.8577    
      2320   4.64           296.8128       135700.53     -807630.26     -302.3204       0.35974769     0.057466791    27.23466       3599.4336    
      2330   4.66           299.60357      137592.25     -807627.04     -305.71544      0.35971447     0.058117508    27.233945      3599.0105    
      2340   4.68           286.15932      137649.65     -807625.57     -305.12494      0.35968111     0.058010631    27.229812      3598.5902    
      2350   4.7            305.4591       134537.4      -807631.27     -301.82335      0.3596476      0.057388277    27.252745      3598.1574    
      2360   4.72           300.34429      129769.21     -807635.26     -296.89109      0.35961396     0.056455745    27.244552      3597.7298    
      2370   4.74           301.2229       128371.48     -807638.67     -293.34632      0.35958017     0.055786926    27.209181      3597.3224    
      2380   4.76           288.56595      129071.31     -807636.24     -293.78236      0.35954624     0.055875123    27.178554      3596.9323    
      2390   4.78           303.96691      129358.92     -807636.6      -295.37791      0.35951216     0.056183908    27.182325      3596.5403    
      2400   4.8            302.73826      133009.28     -807632.08     -299.51478      0.35947795     0.056976205    27.178807      3596.1504    
      2410   4.82           304.90373      135676.44     -807628.42     -303.30239      0.35944359     0.05770223     27.170962      3595.765     
      2420   4.84           306.87924      138231.94     -807625.72     -306.00139      0.35940909     0.058221293    27.172401      3595.379     
      2430   4.86           298.57864      136911.85     -807626.31     -304.12582      0.35937446     0.057870016    27.173143      3594.9927    
      2440   4.88           303.53338      135181.55     -807630.22     -300.60163      0.35933967     0.057204959    27.195134      3594.5947    
      2450   4.9            309.41318      130902.43     -807635.54     -295.97104      0.35930475     0.056329225    27.184271      3594.2027    
      2460   4.92           304.04587      129761.54     -807636.43     -294.11503      0.35926969     0.055981452    27.180865      3593.8129    
      2470   4.94           297.18728      127511.35     -807637.32     -292.17476      0.35923448     0.055617595    27.178951      3593.4241    
      2480   4.96           299.3914       130773.63     -807634.52     -295.09942      0.35919913     0.056179853    27.216742      3593.0155    
      2490   4.98           305.81147      132823.05     -807631.5      -298.9745       0.35916364     0.056923199    27.207237      3592.6122    
      2500   5              297.04448      137784.81     -807624.36     -304.77621      0.35912801     0.058033572    27.204311      3592.2108    
[...]
     98740   197.48         295.00661      133016.17     -807632.66     -9656.4529      0.36236891     0.056946133    29.758364      46.390403    
     98750   197.5          295.75809      133765.5      -807632.12     -9671.6387      0.36238762     0.057032743    29.76869       46.021817    
     98760   197.52         296.41009      131873.66     -807632.86     -9648.121       0.36240618     0.056891147    29.772126      45.653237    
     98770   197.54         294.28996      133470.64     -807631.43     -9679.1542      0.36242459     0.057071238    29.781637      45.284662    
     98780   197.56         299.64612      132290.04     -807633.13     -9644.5483      0.36244287     0.056864323    29.77064       44.916096    
     98790   197.58         299.99546      134183.66     -807631.96     -9675.9342      0.362461       0.057046521    29.773519      44.547536    
     98800   197.6          292.37916      135229.99     -807628.54     -9747.2655      0.36247899     0.057464218    29.797039      44.178979    
     98810   197.62         298.10974      135045.56     -807629.44     -9736.0739      0.36249683     0.057395413    29.784729      43.81043     
     98820   197.64         299.50672      135006.58     -807630.5      -9701.5353      0.36251453     0.057189011    29.786798      43.441888    
     98830   197.66         299.0548       132690.03     -807631.34     -9668.0926      0.36253209     0.056989111    29.786501      43.073352    
     98840   197.68         302.13154      134661.35     -807629.53     -9729.6705      0.36254951     0.05734933     29.763548      42.704827    
     98850   197.7          295.35243      132057.78     -807631.78     -9623.9735      0.36256678     0.056723621    29.728126      42.336312    
     98860   197.72         302.86944      133654.45     -807631.76     -9649.746       0.36258391     0.056872837    29.746432      41.967802    
     98870   197.74         311.70092      131653.04     -807633.99     -9614.7261      0.3626009      0.056663785    29.789581      41.599292    
     98880   197.76         312.76132      134915.53     -807630.06     -9738.1139      0.36261774     0.057388297    29.813611      41.230786    
     98890   197.78         308.08057      132933.38     -807630.52     -9701.2409      0.36263445     0.057168365    29.785751      40.86229     
     98900   197.8          304.75225      136362.24     -807628.88     -9731.5575      0.362651       0.057344399    29.728435      40.493809    
     98910   197.82         306.988        133695.08     -807630.58     -9688.5328      0.36266742     0.057088287    29.704561      40.125336    
     98920   197.84         310.13059      135514.25     -807629.09     -9747.0192      0.36268369     0.057430333    29.497883      39.756896    
     98930   197.86         285.33553      133379.71     -807628.41     -9659.6752      0.36269982     0.056913163    29.808583      39.388423    
     98940   197.88         313.85189      133110.75     -807632.45     -9652.6374      0.36271581     0.056869191    29.790145      39.01996     
     98950   197.9          305.77817      132172.03     -807632.51     -9616.5225      0.36273165     0.056653943    29.757288      38.651507    
     98960   197.92         310.69091      133812.27     -807630.54     -9701.1118      0.36274735     0.057149811    29.772578      38.283058    
     98970   197.94         312.79461      133178.36     -807630.18     -9723.4871      0.36276291     0.057279169    29.824478      37.914611    
     98980   197.96         305.59567      135506.34     -807629.82     -9704.1726      0.36277832     0.057162962    29.764414      37.546177    
     98990   197.98         313.95633      134797.74     -807630.97     -9708.0867      0.36279359     0.057183611    29.736857      37.177752    
     99000   198            305.626        135177.59     -807628.56     -9752.8322      0.36280872     0.057444781    29.738098      36.809334    
     99010   198.02         304.16361      134406.54     -807629.86     -303.36318      0.3628237      0.057176128    29.809756      36.440914    
     99020   198.04         294.622        133274.6      -807631.14     -300.93736      0.36283855     0.056716602    29.804624      36.072502    
     99030   198.06         304.90921      132501.41     -807632.19     -301.46649      0.36285324     0.056814025    29.818273      35.704095    
     99040   198.08         299.0132       133307.26     -807630.41     -302.65323      0.3628678      0.057035389    29.82067       35.335694    
     99050   198.1          308.37574      133378.87     -807631.72     -302.85471      0.36288221     0.05707109     29.845932      34.967297    
     99060   198.12         295.69319      134446.37     -807630.33     -302.69548      0.36289648     0.057038842    29.851296      34.598906    
     99070   198.14         295.17849      134316.27     -807629.16     -304.08527      0.36291061     0.057298499    29.833153      34.230524    
     99080   198.16         314.27994      133932.08     -807630.69     -305.48091      0.36292459     0.057559259    29.806541      33.862152    
     99090   198.18         295.31304      134150.69     -807629.87     -303.94835      0.36293843     0.057268309    29.8315        33.493783    
     99100   198.2          299.71916      132879.23     -807632.72     -301.95944      0.36295213     0.056891421    29.838189      33.12542     
     99110   198.22         295.1212       133002.39     -807632.75     -301.57633      0.36296568     0.05681712     29.763938      32.757072    
     99120   198.24         304.06819      131727.75     -807634.35     -301.57814      0.36297909     0.056815361    29.807925      32.388726    
     99130   198.26         293.13652      133244.7      -807632.12     -302.50191      0.36299236     0.05698731     29.834633      32.020384    
     99140   198.28         288.71119      132888.61     -807632.63     -301.63433      0.36300548     0.056821815    29.837841      31.652048    
     99150   198.3          296.93738      133850.68     -807631.04     -304.51492      0.36301846     0.057362408    29.857826      31.283717    
     99160   198.32         294.8948       134528.51     -807629.59     -305.88727      0.3630313      0.057618884    29.769526      30.915401    
     99170   198.34         299.89138      134911.81     -807630.78     -305.50452      0.36304399     0.057544775    29.818894      30.547087    
     99180   198.36         295.80309      133815.34     -807632.69     -303.08542      0.36305655     0.05708714     29.782449      30.178783    
     99190   198.38         288.74367      133411.51     -807631.82     -303.02703      0.36306895     0.057074193    29.767848      29.810487    
     99200   198.4          299.68112      131001.77     -807634.03     -302.3647       0.36308122     0.05694752     29.826261      29.442192    
     99210   198.42         298.13626      131485.57     -807634.4      -301.76748      0.36309334     0.056833142    29.832643      29.073903    
     99220   198.44         285.2903       131436.8      -807632.69     -301.64997      0.36310532     0.056809136    29.791967      28.705625    
     99230   198.46         287.738        134090.47     -807630.62     -304.02816      0.36311715     0.057255151    29.824907      28.33735     
     99240   198.48         301.96085      134583.44     -807631.17     -305.50571      0.36312885     0.057531553    29.861543      27.969079    
     99250   198.5          294.88597      134983.25     -807629.92     -305.6649       0.3631404      0.057559702    29.87724       27.600813    
     99260   198.52         296.01316      134034.33     -807631.24     -304.38066      0.3631518      0.057316066    29.831817      27.232557    
     99270   198.54         293.15765      133812.99     -807631.15     -304.07351      0.36316306     0.057256451    29.838133      26.864308    
     99280   198.56         292.4524       131943.59     -807631.91     -303.18483      0.36317418     0.057087367    29.820056      26.496067    
     99290   198.58         294.98186      132450.53     -807633.48     -301.8419       0.36318516     0.056832786    29.873549      26.127828    
     99300   198.6          284.29437      131542.27     -807634.04     -299.75748      0.36319599     0.056438634    29.840589      25.759599    
     99310   198.62         291.28352      133046.42     -807632.21     -302.41498      0.36320668     0.056937316    29.885596      25.391373    
     99320   198.64         302.56999      133153.76     -807632.2      -303.94495      0.36321723     0.05722371     29.88002       25.023154    
     99330   198.66         296.10358      134805.98     -807629.3      -305.80491      0.36322763     0.057572236    29.8396        24.654944    
     99340   198.68         303.10004      134227.47     -807631.35     -304.58445      0.36323789     0.057340847    29.821826      24.286743    
     99350   198.7          290.47679      135272.53     -807628.65     -305.36804      0.36324801     0.057486764    29.841329      23.918547    
     99360   198.72         308.01023      134073.97     -807631.79     -304.61919      0.36325798     0.057344215    29.867554      23.550356    
     99370   198.74         294.0944       133401.33     -807631.05     -303.2218       0.36326781     0.057079613    29.899088      23.182169    
     99380   198.76         300.167        131522.72     -807634.61     -300.36394      0.3632775      0.056540131    29.910768      22.813988    
     99390   198.78         296.15983      132159.25     -807632.97     -301.29024      0.36328704     0.056713008    29.871673      22.445817    
     99400   198.8          306.05158      131871.46     -807632.74     -302.8104       0.36329644     0.056997677    29.875675      22.077652    
     99410   198.82         300.48637      133830.51     -807630.47     -304.22385      0.3633057      0.05726227     29.869374      21.709494    
     99420   198.84         301.59763      134597.3      -807630.07     -304.61287      0.36331481     0.057334056    29.842436      21.341345    
     99430   198.86         299.06883      135941.79     -807629.18     -305.06644      0.36332378     0.057418008    29.851551      20.973202    
     99440   198.88         304.01489      135315.79     -807628.43     -306.33403      0.36333261     0.057655188    29.874341      20.605064    
     99450   198.9          305.44963      133122.69     -807631.8      -303.04549      0.36334129     0.057034888    29.863188      20.236933    
     99460   198.92         299.98237      133411.28     -807632.34     -301.55658      0.36334983     0.056753332    29.865         19.868809    
     99470   198.94         311.34058      131041.61     -807634.82     -300.59216      0.36335823     0.05657052     29.814784      19.500695    
     99480   198.96         307.65163      133115.5      -807631.96     -302.7919       0.36336648     0.056983209    29.838009      19.132586    
     99490   198.98         306.97595      131885.58     -807632.53     -302.11279      0.3633746      0.056854136    29.801771      18.764486    
     99500   199            307.38815      136314.53     -807630.89     -303.66394      0.36338256     0.057144793    29.772844      18.396393    
     99510   199.02         300.34666      134012.35     -807628.98     -9748.9268      0.36339039     0.057329865    29.709048      18.028311    
     99520   199.04         296.43456      137363.65     -807625.66     -9833.7902      0.36339807     0.057827693    29.731059      17.660234    
     99530   199.06         303.10495      133377.7      -807629.42     -9743.2011      0.3634056      0.057293794    28.893559      17.29221     
     99540   199.08         300.23853      134863.1      -807629.33     -9727.4296      0.363413       0.057199888    29.768189      16.924143    
     99550   199.1          317.37029      132056.54     -807633.78     -9663.8973      0.36342025     0.056825167    29.76369       16.556082    
     99560   199.12         303.3622       133820.16     -807630.53     -9702.2609      0.36342736     0.057049635    29.767576      16.188028    
     99570   199.14         308.03289      131432.73     -807634.28     -9605.7864      0.36343432     0.05648128     29.778621      15.819979    
     99580   199.16         305.86654      133951.65     -807631.65     -9678.9703      0.36344114     0.056910527    29.805995      15.451936    
     99590   199.18         301.03728      133540.31     -807630.12     -9712.6171      0.36344782     0.057107315    29.787815      15.0839      
     99600   199.2          311.91595      135560.74     -807628.83     -9801.3861      0.36345435     0.057628214    29.77732       14.715872    
     99610   199.22         304.79795      134394.25     -807629.81     -9742.7555      0.36346074     0.057282483    29.795842      14.347848    
     99620   199.24         308.16591      136161.61     -807629.97     -9755.7389      0.36346699     0.057357832    29.755025      13.979834    
     99630   199.26         300.08621      134338.89     -807629.48     -9743.7031      0.3634731      0.057286107    29.77859       13.611824    
     99640   199.28         307.36801      134338.95     -807631.42     -9719.7833      0.36347906     0.057144539    29.773983      13.243821    
     99650   199.3          290.82027      131912.46     -807631.8      -9642.9466      0.36348487     0.056691893    29.760696      12.875825    
     99660   199.32         295.61072      132864.22     -807632.4      -9654.1831      0.36349055     0.056757068    29.7591        12.507836    
     99670   199.34         303.09056      132396.18     -807632.97     -9681.811       0.36349608     0.056918626    29.736961      12.139854    
     99680   199.36         308.37096      134804.34     -807632.17     -9740.4242      0.36350147     0.05726236     29.688288      11.77188     
     99690   199.38         299.8917       135075.12     -807631.46     -9738.9247      0.36350671     0.057252719    29.75675       11.40391     
     99700   199.4          301.34405      135064.74     -807630.6      -9781.5314      0.36351181     0.057502386    29.763381      11.035946    
     99710   199.42         299.75496      134181.31     -807630.78     -9779.6654      0.36351677     0.057490633    29.768591      10.667988    
     99720   199.44         290.71267      133749.93     -807630.52     -9754.9443      0.36352158     0.057344548    29.770145      10.300037    
     99730   199.46         291.16235      132686.03     -807632.72     -9692.1811      0.36352625     0.056974862    29.739401      9.9320925    
     99740   199.48         280.30084      132041.01     -807632.61     -9652.8001      0.36353078     0.056742657    29.744029      9.5641548    
     99750   199.5          310.57842      131756.79     -807635.63     -9693.0543      0.36353516     0.056978598    29.744992      9.1962233    
     99760   199.52         290.3174       132292.42     -807632.99     -9693.1142      0.3635394      0.056978286    29.798868      8.8282967    
     99770   199.54         294.12736      134051.55     -807632.36     -9730.0478      0.3635435      0.057194745    29.656436      8.4603804    
     99780   199.56         289.62537      133661.6      -807631.61     -9737.4852      0.36354745     0.057237841    29.777741      8.0924672    
     99790   199.58         289.16599      136134.04     -807629.17     -9813.0831      0.36355126     0.057681608    29.748231      7.7245611    
     99800   199.6          286.0274       133655.34     -807630.52     -9757.7438      0.36355493     0.057355743    29.779909      7.3566606    
     99810   199.62         283.85702      134883.52     -807630.57     -9744.235       0.36355845     0.057275784    29.789754      6.9887664    
     99820   199.64         293.51688      131729.13     -807634.11     -9674.7173      0.36356183     0.056866636    29.772875      6.620879     
     99830   199.66         298.6          132199.86     -807633.9      -9698.2933      0.36356507     0.057004705    24.373239      6.2531247    
     99840   199.68         299.32591      131102.38     -807635.34     -9655.1254      0.36356816     0.05675049     29.698609      5.8852439    
     99850   199.7          293.42057      134333.23     -807633.19     -9690.6301      0.36357111     0.056958716    29.732775      5.5173689    
     99860   199.72         295.49851      133434.3      -807632.33     -9725.4685      0.36357392     0.057163044    29.737511      5.1495       
     99870   199.74         291.9412       136221.37     -807629.52     -9792.8798      0.36357658     0.057558844    29.791186      4.7816368    
     99880   199.76         292.21791      134442.81     -807630.61     -9756.8916      0.3635791      0.057346921    29.79454       4.4137799    
     99890   199.78         301.606        135495.36     -807630.73     -9784.318       0.36358148     0.057507746    27.256545      4.0459639    
     99900   199.8          302.0968       132734.38     -807633.56     -9693.2002      0.36358371     0.056971847    29.801113      3.6781167    
     99910   199.82         287.76133      134398.65     -807630.02     -9733.573       0.3635858      0.05720881     29.801064      3.310276     
     99920   199.84         299.02102      131019.03     -807634.75     -9628.4515      0.36358775     0.056590658    29.742169      2.9424422    
     99930   199.86         292.18481      133369.67     -807631.76     -9685.7651      0.36358955     0.056927233    29.706693      2.5746151    
     99940   199.88         296.60126      132200.36     -807632.07     -9692.589       0.36359121     0.05696708     29.740668      2.206794     
     99950   199.9          294.64569      136341.28     -807628.41     -9791.6708      0.36359273     0.057549182    29.802856      1.8389789    
     99960   199.92         307.47395      134055.34     -807631.44     -9748.584       0.3635941      0.057295729    29.758191      1.4711704    
     99970   199.94         305.80612      136110.99     -807629.88     -9783.4982      0.36359533     0.057500738    28.386809      1.1033731    
     99980   199.96         306.65452      133145.18     -807630.84     -9755.0724      0.36359641     0.057333499    25.175258      0.73558797   
     99990   199.98         292.15045      135299.86     -807628.92     -9746.2813      0.36359736     0.057281683    29.776998      0.36779079   
    100000   200            291.84667      132347.83     -807631.61     -9657.0995      0.36359816     0.056757411    27.905716      0            
Loop time of 3677.9 on 32 procs for 100000 steps with 1080 atoms

Performance: 4.698 ns/day, 5.108 hours/ns, 27.189 timesteps/s, 29.365 katom-step/s
64.1% CPU use with 32 MPI tasks x 1 OpenMP threads

MPI task timing breakdown:
Section |  min time  |  avg time  |  max time  |%varavg| %total
---------------------------------------------------------------
Pair    | 2554.3     | 2808.7     | 3087.4     | 240.9 | 76.37
Neigh   | 0.0016663  | 0.0059602  | 0.021365   |   7.8 |  0.00
Comm    | 516.16     | 794.89     | 1049.5     | 453.0 | 21.61
Output  | 2.3707     | 2.4075     | 2.4142     |   0.5 |  0.07
Modify  | 65.511     | 65.758     | 66.257     |   2.2 |  1.79
Other   |            | 6.169      |            |       |  0.17

Nlocal:          33.75 ave          41 max          26 min
Histogram: 1 0 5 2 9 6 0 2 5 2
Nghost:        1044.25 ave        1054 max        1034 min
Histogram: 2 2 3 5 4 2 3 5 3 3
Neighs:              0 ave           0 max           0 min
Histogram: 32 0 0 0 0 0 0 0 0 0
FullNghs:      5329.44 ave        6504 max        4105 min
Histogram: 1 1 4 6 6 5 0 3 4 2

Total # of neighbors = 170542
Ave neighs/atom = 157.90926
Neighbor list builds = 4
Dangerous builds = 0

Total wall time: 1:04:47
