
units		metal
atom_style	atomic

read_data ${STRUCTURE}.data
read_data BaTiO3-sc333.data
Reading data file ...
  orthogonal box = (0 0 0) to (11.898253 11.898253 12.912076)
  2 by 4 by 4 MPI processor grid
  reading atoms ...
  135 atoms
  read_data CPU = 0.023 seconds
replicate $L $L $L
replicate 2 $L $L
replicate 2 2 $L
replicate 2 2 2
Replication is creating a 2x2x2 = 8 times larger system...
  orthogonal box = (0 0 0) to (23.796507 23.796507 25.824152)
  2 by 4 by 4 MPI processor grid
  1080 atoms
  replicate CPU = 0.003 seconds

pair_style allegro
pair_coeff	* * ${MODEL}.pth Ba Ti O
pair_coeff	* * BaTiO3-E0.pth Ba Ti O
mass 1 137.3
mass 2 47.9
mass 3 15.9994

timestep 0.002
compute polarization all allegro polarization 3
compute allegro will evaluate the quantity polarization of length 3 (src/compute_allegro.cpp:53)
compute polarizability all allegro polarizability 9
compute allegro will evaluate the quantity polarizability of length 9 (src/compute_allegro.cpp:53)

thermo_style custom pe fmax fnorm spcpu cpuremain

variable efield equal 1e-2*36.36
fix born all addbornforce 0.0 0.0 ${efield}
fix born all addbornforce 0.0 0.0 0.3636

thermo 10
min_style fire
#minimize 0.0 1e-6 100 100
velocity all create ${TEMP} ${SEED} dist gaussian rot yes mom yes
velocity all create 280 ${SEED} dist gaussian rot yes mom yes
velocity all create 280 1253 dist gaussian rot yes mom yes
fix nvt all nvt temp ${TEMP} ${TEMP} $(100*dt)
fix nvt all nvt temp 280 ${TEMP} $(100*dt)
fix nvt all nvt temp 280 280 $(100*dt)
fix nvt all nvt temp 280 280 0.2000000000000000111
run 5000
Neighbor list info ...
  update: every = 1 steps, delay = 0 steps, check = yes
  max neighbors/atom: 2000, page size: 100000
  master list distance cutoff = 8
  ghost atom cutoff = 8
  binsize = 8, bins = 3 3 4
  1 neighbor lists, perpetual/occasional/extra = 1 0 0
  (1) pair allegro/kk, perpetual
      attributes: full, newton on, kokkos_device
      pair build: full/bin/kk/device
      stencil: full/bin/3d
      bin: kk/device
Per MPI rank memory allocation (min/avg/max) = 3.516 | 3.516 | 3.516 Mbytes
    PotEng          Fmax          Fnorm          S/CPU         CPULeft    
-807708.29      1.5956467      37.043884      0              0            
-807647.99      3.5830799      44.895847      2.1746667      2294.6054    
-807636.13      2.5854355      35.074748      25.935436      1241.011     
-807605.03      2.9845548      37.889226      25.946645      889.52842    
-807605.13      4.1451859      50.462672      25.900985      713.67858    
-807571.09      3.5498148      40.105209      25.869584      608.06065    
-807608.25      3.0066784      37.25917       25.941662      537.43147    
-807648.2       3.4449423      33.820782      25.949391      486.86374    
-807686.78      2.7802346      33.896336      25.8952        448.89125    
-807669.95      4.4548858      33.382058      25.88872       419.27653    
-807655.05      2.7283229      33.055053      25.959163      395.45615    
-807660.59      2.4137265      25.344399      25.954763      375.89961    
-807629.75      2.9206135      29.612985      25.958527      359.53598    
-807588.57      2.8551367      38.263233      25.905713      345.66001    
-807574.31      2.5958956      35.678388      25.955412      333.68554    
-807636.23      2.7346496      30.548656      25.952797      323.25753    
-807659.3       2.5818935      28.478709      25.92894       314.09558    
-807669         2.7537559      32.699579      25.924175      305.96815    
-807649.91      4.1661694      43.415053      25.964256      298.68496    
-807681.63      2.6640848      35.148088      25.911077      292.14789    
-807644.28      3.7332168      37.148116      25.912783      286.22533    
-807617.86      2.7034276      38.058625      25.952693      280.81653    
-807564.75      4.2243189      43.774084      25.984796      275.85407    
-807610.27      3.8824786      47.466115      25.923959      271.30839    
-807618.96      3.6750855      36.528646      25.909         267.1138     
-807648.31      2.8252284      33.558901      25.966333      263.20769    
-807645.26      4.2923419      44.512714      25.955996      259.57523    
-807685.23      2.7557567      36.504946      25.898184      256.19837    
-807664.49      2.7350012      33.531931      25.855093      253.04598    
-807641.32      2.6936822      30.682323      25.918225      250.06902    
-807606.39      2.8784845      33.138346      25.954151      247.25644    
-807608.42      3.6965477      41.946945      25.888561      244.61522    
-807602.52      3.438258       33.478371      25.817657      242.13046    
-807618.39      3.058451       30.877478      25.945775      239.74574    
-807645.3       3.1802932      29.124563      25.940576      237.47969    
-807679.29      1.8147344      29.460739      25.912418      235.32666    
-807679.88      2.4762793      29.87271       25.878767      233.27828    
-807649.16      3.8948498      34.357268      25.941544      231.30803    
-807649.2       3.0312209      27.64815       25.960396      229.41778    
-807624.71      3.9287491      30.91312       25.94799       227.60689    
-807604.11      4.0906368      41.505116      25.887128      225.87771    
-807578.55      3.9468244      38.553004      25.941558      224.20495    
-807632.05      3.0812639      32.381206      25.927456      222.59578    
-807655.26      3.7155324      33.65433       25.948018      221.04026    
-807678.29      3.0487461      33.261389      25.878388      219.54868    
-807645.79      4.9588526      45.050411      25.93057       218.09835    
-807669.78      2.8735291      33.197748      25.947614      216.69182    
-807643.91      3.8550554      35.371807      25.921012      215.33255    
-807626.45      3.0367198      37.456968      25.918286      214.01422    
-807567.52      3.9623761      42.139491      25.93428       212.73177    
-807609.5       3.5407698      41.610955      25.950341      211.48304    
-807629.71      3.7090487      34.196504      25.903576      210.27429    
-807663.33      2.9803647      31.061209      25.951202      209.09109    
-807645.64      5.1102872      41.435298      25.972494      207.93533    
-807676.92      2.7229163      33.038266      25.957346      206.80996    
-807667.72      3.201645       31.1371        25.916362      205.71645    
-807645.51      3.6762019      28.947198      25.935041      204.646      
-807599.44      3.3680425      33.355882      25.954589      203.59732    
-807601.94      3.3091345      37.278063      25.948404      202.57222    
-807612.58      3.5286051      35.163894      25.88725       201.57562    
-807630.7       3.1130799      28.242965      25.952905      200.59218    
-807644.98      2.8962973      29.885664      25.938236      199.62993    
-807670.29      2.2171025      30.688696      25.971697      198.68277    
-807680.27      2.3878126      32.169972      25.86892       197.76407    
-807650.08      3.8912878      34.759179      25.900615      196.85877    
-807636.18      2.5525988      30.452292      25.933157      195.96621    
-807613.3       3.3172084      33.207983      25.931875      195.08913    
-807605.84      4.0559615      43.506348      25.868163      194.23287    
-807588.59      4.0057569      37.673776      25.907448      193.38669    
-807626.07      3.0566516      32.750254      25.966884      192.54834    
-807652.04      4.4474063      34.88422       25.961559      191.72342    
-807679.63      3.169694       34.774137      25.909314      190.91558    
-807651.74      5.1963663      40.606757      25.909459      190.11944    
-807656.3       3.3334088      33.262882      25.927461      189.33298    
-807641.55      4.4709976      33.037554      25.935234      188.55668    
-807624.79      3.5673954      37.844177      25.907842      187.79311    
-807576.56      3.3185062      38.412745      25.940257      187.03679    
-807599.03      3.1876538      38.251368      25.962632      186.28827    
-807634.14      2.6761676      30.812757      25.94854       185.5502     
-807667.31      2.3007304      30.507221      25.94192       184.82159    
-807653.83      3.9255858      36.163859      25.944849      184.10132    
-807664.82      2.9811436      32.639924      25.924818      183.39086    
-807666.02      2.2005106      30.139902      25.912727      182.68924    
-807647.91      2.4454325      28.47437       25.930072      181.99393    
-807601.28      2.5345907      33.365361      25.940031      181.30527    
-807589.87      2.9283958      36.60014       25.971509      180.62145    
-807613.56      3.5610921      35.869247      25.924903      179.94791    
-807638.28      2.8401937      29.223344      25.936117      179.2802     
-807647.45      2.9809319      31.313811      25.925978      178.6196     
-807659.69      4.2439494      34.061811      25.919135      177.96566    
-807676.34      2.7063033      33.687728      25.874778      177.32068    
-807654.55      3.6991417      33.443635      25.901308      176.67961    
-807631.3       2.9410883      31.27576       25.946288      176.04111    
-807603.53      3.9140925      35.259784      25.982038      175.40573    
-807607.81      3.8439252      42.383067      25.909919      174.78031    
-807603.23      4.2296188      35.075981      25.939082      174.15809    
-807627.59      2.9980099      31.930487      25.929799      173.54137    
-807648.08      4.1428091      34.722458      25.958622      172.92764    
-807677.28      2.5366432      34.092374      25.906407      172.32176    
-807659.82      3.995802       35.266593      25.89608       171.72094    
-807649.95      2.6511968      32.001183      25.938546      171.12189    
-807633.68      3.7102629      32.24354       25.956951      170.52599    
-807623.85      3.5609128      37.00723       25.915368      169.93662    
-807590.34      3.4435235      36.884799      25.891599      169.35258    
-807600.51      3.4896599      35.611533      25.924344      168.77048    
-807634.42      3.6272212      30.258715      25.935065      168.19152    
-807667.52      2.6199211      30.124074      25.856079      167.62059    
-807664.52      3.4586333      32.212177      25.875891      167.05202    
-807656.53      3.0960355      33.356122      25.897743      166.48563    
-807659.79      2.6827449      29.714842      25.906773      165.92207    
-807644.59      2.5622098      28.150391      25.955012      165.35919    
-807609.16      2.7056399      32.78606       25.931509      164.80073    
-807584.84      3.1332912      36.355506      25.91548       164.24619    
-807615.64      3.5137724      33.96412       25.919473      163.69443    
-807643.36      3.8019362      30.940513      25.923513      163.14538    
-807655.95      3.5938237      31.533606      25.929889      162.59885    
-807652.82      4.5807482      37.126296      25.95657       162.05378    
-807671.11      2.7247114      33.107407      25.876204      161.51536    
-807655.48      3.8353201      32.64587       25.946772      160.97612    
-807632.71      2.7793556      31.054468      25.93049       160.44023    
-807595.08      3.6806546      35.067527      25.909309      159.90785    
-807607.48      3.648508       38.734962      25.911114      159.3778     
-807612.84      3.4494642      32.862671      25.829296      158.8539     
-807637.18      2.8580038      30.559807      25.91073       158.3285     
-807644.52      3.6953089      35.738976      25.961794      157.80304    
-807672.35      2.6940674      32.522225      25.919327      157.28172    
-807662.15      2.8632847      33.749994      25.869037      156.76478    
-807649.91      3.1353         31.168824      25.914148      156.24792    
-807622.69      3.8588067      32.538985      25.923678      155.73269    
-807617.23      3.2595268      35.910152      25.878996      155.22138    
-807600.55      3.2768683      35.901846      25.817429      154.71462    
-807608.04      2.7431479      34.589803      25.903792      154.20604    
-807632.73      2.9835503      31.166925      25.942851      153.6977     
-807663.95      2.8469498      31.197202      25.912863      153.19244    
-807667.04      3.0073314      32.817244      25.891561      152.68982    
-807654.27      2.9617108      33.83522       25.870547      152.18978    
-807648.39      2.4242714      30.05305       25.942879      151.68853    
-807636.63      2.7398347      30.223038      25.913337      151.19012    
-807611.46      3.2851711      35.825203      25.892666      150.69416    
-807586.87      2.9020853      37.048618      25.941662      150.19788    
-807615.69      2.9031895      33.059363      25.968245      149.70217    
-807644.4       2.5983425      31.100457      25.981396      149.20753    
-807663.18      3.094452       31.141536      25.960292      148.71523    
-807652.08      3.3158645      36.432082      25.919201      148.22595    
-807662.88      2.6903882      31.909324      25.89861       147.73887    
-807652.06      2.7368154      32.003619      25.847971      147.25502    
-807633.83      2.4330895      31.854225      25.925048      146.76972    
-807591.28      3.5077311      36.230589      25.947891      146.28496    
-807601.75      3.1586812      38.460096      25.941126      145.80178    
-807620.99      3.2510511      33.887415      25.915565      145.32081    
-807646.14      3.1434012      31.369325      25.969036      144.83925    
-807645.55      3.6592567      35.903492      25.967444      144.35902    
-807666.19      2.776877       33.017539      25.97492       143.8798     
-807661.49      3.0552084      33.253521      25.919623      143.40366    
-807649.08      3.4979392      30.600533      25.889862      142.9297     
-807614.99      4.7694956      32.489275      25.935675      142.45535    
-807608         3.2737065      35.353262      25.927489      141.9824     
-807605.46      3.5190169      36.365135      25.91715       141.51091    
-807621.55      2.5258707      32.025405      25.933143      141.03998    
-807634.46      3.4261418      31.957119      25.965438      140.5691     
-807659.56      2.6299519      31.421173      25.969903      140.09914    
-807668.09      3.0012708      32.78065       25.889267      139.63277    
-807654.89      3.0390881      32.850431      25.902536      139.16698    
-807639.49      3.4480174      31.63522       25.932744      138.70123    
-807626.55      2.743996       31.445759      25.966474      138.23543    
-807611.87      3.27474        36.58082       25.912873      137.77223    
-807598.6       2.8595846      35.006528      25.926672      137.30955    
-807617.33      2.6157548      32.382171      25.956669      136.8469     
-807644.22      3.6497322      30.85349       25.960829      136.38505    
-807665.65      2.5248728      31.89042       25.950774      135.9244     
-807655.76      3.726077       34.646649      25.920852      135.4655     
-807654.88      2.924783       32.209383      25.935144      135.00704    
-807645.42      3.8024144      31.554429      25.927081      134.54966    
-807632.27      3.2732158      32.298478      25.922481      134.09324    
-807596.42      3.6524346      35.388319      25.925879      133.63754    
-807602.66      3.3091492      36.114746      25.931706      133.18247    
-807625.55      3.6091535      31.110515      25.9167        132.72861    
-807653.04      3.088421       30.526569      25.923823      132.27532    
-807651.42      3.7927642      34.320637      25.927161      131.8227     
-807660.4       2.9044509      32.230462      25.927015      131.37083    
-807659.81      3.4226728      31.578327      25.918642      130.91992    
-807648.56      3.3587035      29.986296      25.933688      130.46933    
-807615.35      3.5615642      32.238994      25.938635      130.01933    
-807601.93      3.0617332      35.161344      25.935238      129.57012    
-807610.54      3.2993795      34.959197      25.916508      129.12208    
-807630.64      2.7943755      31.742929      25.942113      128.67406    
-807640.15      3.6135639      31.594811      25.965881      128.22612    
-807656.14      3.4410187      32.400683      25.953008      127.77918    
-807665.01      3.4259872      32.623672      25.909773      127.33395    
-807656.06      3.1748782      31.565429      25.93188       126.88881    
-807637.05      2.8388694      29.66491       25.930358      126.44434    
-807616.6       2.3218254      31.661849      25.924471      126.00062    
-807611.86      3.3877241      35.471315      25.917244      125.55768    
-807609.52      2.841898       34.04918       25.920782      125.11525    
-807623.56      3.0870461      31.986478      25.899406      124.6739     
-807643.47      3.4746538      32.091946      25.927893      124.23246    
-807663.06      2.6636109      32.985099      25.91306       123.79192    
-807656.54      3.5778367      34.861318      25.912052      123.35197    
-807648.74      4.1901427      33.201796      25.917033      122.91245    
-807634.18      3.5160245      32.234793      25.953671      122.47264    
-807625.79      3.6778812      34.5794        25.931922      122.03386    
-807603         3.2983446      35.646168      25.933472      121.59558    
-807606.2       2.8704216      35.095829      25.952096      121.15741    
-807627.29      2.5683216      31.541108      25.951856      120.71977    
-807654         2.6389384      31.183178      25.925743      120.2832     
-807654.63      2.8511667      33.419881      25.91602       119.84734    
-807653.42      2.6612648      33.072015      25.929344      119.41168    
-807649.52      3.0033194      31.822212      25.92994       118.97649    
-807641.41      2.6748551      30.67373       25.922542      118.54193    
-807616.16      2.7955586      32.67751       25.917258      118.10795    
-807600.33      3.1212409      35.255185      25.943787      117.67388    
-807612.04      3.1519461      34.402255      25.941497      117.24031    
-807637.29      2.6236171      31.72708       25.921744      116.80761    
-807648.7       3.6351593      31.753853      25.930922      116.37515    
-807650.66      3.2956277      34.399514      25.938274      115.94299    
-807659.45      2.6184569      32.512292      25.947345      115.51109    
-807652.49      3.6996803      31.920002      25.929344      115.07996    
-807632.85      2.80854        31.49478       25.93599       114.64913    
-807606.37      3.717877       34.913434      25.946833      114.2185     
-807608.03      3.7625878      36.118673      25.928114      113.78865    
-807617.65      2.9901075      33.530285      25.928827      113.35918    
-807634.15      2.4401338      30.836211      25.910167      112.93046    
-807645.16      3.499185       32.265762      25.926278      112.50182    
-807660.49      3.1987499      32.194001      25.936671      112.07338    
-807659.77      2.9520795      31.958328      25.917934      111.64566    
-807646         3.275514       31.501563      25.957596      111.2176     
-807626.25      3.0430859      31.664977      25.931143      110.79039    
-807618.07      3.0558104      33.698421      25.912596      110.36388    
-807607.6       3.4503622      34.984597      25.888172      109.93816    
-807614.95      3.8648588      33.981378      25.937616      109.51191    
-807632         3.5406018      31.688313      25.961074      109.08561    
-807655.38      4.7167457      31.317535      25.925982      108.66027    
-807659.61      2.8985286      32.72045       25.932359      108.23516    
-807653.62      3.0381789      32.14347       25.949725      107.81009    
-807643.56      2.9909327      31.183557      25.922964      107.38582    
-807633.21      2.8574945      31.417984      25.903047      106.96221    
-807614.11      3.3593998      33.908137      25.876957      106.53935    
-807604.12      3.1462637      34.71696       25.883764      106.11669    
-807617.01      2.505431       32.071241      25.902845      105.69402    
-807641.78      2.7966269      30.085963      25.886618      105.27192    
-807655.17      3.2457968      30.643812      25.888818      104.85008    
-807654.1       3.4621117      32.334674      25.934689      104.42781    
-807653.69      3.783108       31.616622      25.887086      104.00659    
-807646.25      3.3509874      30.932664      25.925879      103.58505    
-807630.49      2.9837544      31.86697       25.931002      103.16372    
-807606.84      3.0602063      33.689905      25.924217      102.74279    
-807609.05      2.7622507      33.99554       25.916151      102.32227    
-807623.58      3.240785       33.074258      25.920528      101.90197    
-807643.9       2.867296       30.490491      25.946607      101.48154    
-807647.39      3.8002905      32.771164      25.947835      101.06138    
-807658.27      2.8413523      31.28221       25.979341      100.64103    
-807654.79      3.7269729      31.502778      25.922744      100.2218     
-807645.06      2.439727       29.710357      25.898118      99.803196    
-807621.3       2.9139416      31.606024      25.941309      99.384219    
-807611.45      2.886133       34.166322      25.943688      98.965472    
-807612.01      3.0397805      34.005175      25.912479      98.547431    
-807625.5       2.8909128      32.094891      25.939744      98.129255    
-807636.15      3.0628024      32.082164      25.966695      97.710955    
-807652.49      2.840828       32.188071      25.950562      97.293136    
-807660.05      2.8143431      32.005632      25.916587      96.876039    
-807651.07      3.9894615      32.544177      25.931265      96.458981    
-807637.31      3.0161427      31.319292      25.942052      96.042016    
-807624.44      3.6327782      31.760396      25.951917      95.625158    
-807613.74      3.1052127      34.040425      25.949589      95.208571    
-807609.88      3.7190792      34.134825      25.934947      94.792417    
-807620.69      3.1521257      32.236479      25.947755      94.376323    
-807643.04      4.0384915      31.715246      25.960104      93.960299    
-807655.75      3.1484343      32.216475      25.92956       93.544902    
-807653.43      3.904831       33.741474      25.91481       93.129917    
-807648.15      2.9002476      32.423238      25.922185      92.715053    
-807639.12      3.01609        31.603435      25.920636      92.300425    
-807626.66      3.1249522      32.008904      25.934595      91.885835    
-807604.91      2.7674549      35.423899      25.938325      91.471411    
-807609.49      3.335768       34.266511      25.944238      91.057126    
-807627.65      2.7091955      32.127977      25.927015      90.643262    
-807645.71      3.7591606      32.225091      25.927255      90.229601    
-807651.42      4.0494324      32.83317       25.946419      89.815911    
-807651.27      4.1035325      33.638093      25.927156      89.402655    
-807650.28      3.1248994      32.089266      25.914514      88.989749    
-807638.62      3.693966       32.0593        25.901735      88.577187    
-807616.84      4.0458382      33.338377      25.89719       88.164866    
-807606.96      3.6489223      35.152647      25.964605      87.751951    
-807616.03      3.594084       33.68721       25.931781      87.33961     
-807632         2.9469496      32.106904      25.951724      86.927231    
-807642.05      2.9453405      32.212302      25.950877      86.515051    
-807651.78      3.3680499      33.038072      25.949481      86.103076    
-807654.87      2.7707407      32.952798      25.940727      85.691384    
-807649.26      3.7496018      32.474006      25.909482      85.280219    
-807632.45      2.9691813      32.060357      25.91215       84.869201    
-807617.27      3.5091239      33.15602       25.926532      84.458199    
-807613.72      2.9087289      34.340727      25.955902      84.047056    
-807617.76      2.7203319      33.300064      25.928649      83.636382    
-807629.85      2.8552603      31.751133      25.931866      83.225844    
-807645.06      3.3748726      31.380202      25.944877      82.815341    
-807656.92      2.9361937      31.935778      25.932772      82.405134    
-807655.39      3.2169316      32.752966      25.874904      81.995693    
-807644.91      3.5381569      32.057719      25.902517      81.586123    
-807631.92      3.5231793      32.249031      25.892189      81.176816    
-807621.04      2.5851353      32.918028      25.916592      80.767419    
-807611.67      2.9136261      34.375435      25.920467      80.35814     
-807615.72      3.0245549      32.822394      25.866416      79.949554    
-807632.43      3.1431882      31.233207      25.921307      79.540574    
-807652.3       2.6137454      30.781251      25.918157      79.131778    
-807654.63      2.6392558      31.902996      25.92315       78.723086    
-807650.85      3.0993488      32.435495      25.934231      78.314438    
-807645.33      3.0790947      30.761216      25.91842       77.906091    
-807634.39      3.1497315      31.40124       25.893728      77.498125    
-807616.82      2.7321061      33.067988      25.909607      77.090152    
-807609         2.5866387      34.068685      25.929624      76.682136    
-807620.17      3.2149703      32.538932      25.930516      76.274257    
-807637.93      2.4378202      31.396851      25.918256      75.866633    
-807649.02      3.1646771      31.582551      25.912092      75.459205    
-807651.69      3.4313893      32.604043      25.913771      75.0519      
-807652.7       4.0540365      32.329932      25.899643      74.644857    
-807646.3       2.6183365      30.911504      25.918931      74.237778    
-807629.66      2.7399471      31.301554      25.913757      73.830879    
-807613.45      3.8646573      33.553688      25.907057      73.424171    
-807612.09      2.8559979      34.576267      25.953839      73.017191    
-807624.08      3.5210199      33.40107       25.961707      72.610282    
-807636.13      3.9405463      32.930124      25.961067      72.203514    
-807646.21      3.3039865      32.511243      25.922305      71.797204    
-807654.03      3.442108       32.616406      25.930469      71.390955    
-807652.85      2.7453823      31.988245      25.911844      70.984988    
-807640.85      2.4487658      31.089965      25.90402       70.579208    
-807625.96      2.9639391      31.27232       25.931756      70.173326    
-807616.15      2.68296        33.141309      25.927548      69.767602    
-807614.14      3.7923897      34.566765      25.900491      69.362216    
-807622         3.1025827      33.401586      25.922305      68.956776    
-807635.87      3.4972924      32.706011      25.90829       68.551565    
-807651.04      2.9155403      32.753913      25.93153       68.146292    
-807654.51      2.9178439      33.271097      25.91144       67.741292    
-807648.58      3.3178886      32.808859      25.90454       67.336459    
-807637.74      3.0524317      32.374421      25.916426      66.931651    
-807628.76      3.0560337      32.83549       25.929145      66.526861    
-807614.55      3.0000054      34.581518      25.953985      66.122002    
-807614.1       2.9244688      33.60515       25.95645       65.717242    
-807622.44      2.9651915      33.074987      25.95806       65.312586    
-807641.45      2.8489157      32.264515      25.926351      64.908273    
-807649.89      3.200003       33.187826      25.924821      64.504082    
-807651.2       3.2254098      33.441272      25.892009      64.100231    
-807646.67      3.8560657      32.741656      25.9217        63.696276    
-807639.98      2.7491063      32.676791      25.889738      63.29265     
-807625.83      2.9585173      33.004933      25.888432      62.889134    
-807611.43      3.2277129      34.541835      25.920128      62.485503    
-807614.02      3.4263594      33.874009      25.964127      62.081679    
-807627.38      3.2133735      33.008964      25.935739      61.678152    
-807643.49      2.9267848      32.434685      25.937365      61.274719    
-807648.18      3.5492983      33.576162      25.908566      60.871577    
-807651.97      3.0999395      32.993242      25.939836      60.468331    
-807647.4       2.6989441      33.478615      25.927717      60.065265    
-807638.53      3.224184       32.497033      25.949229      59.662161    
-807618.45      3.3693394      34.258958      25.944391      59.259188    
-807613.28      3.7944075      34.194828      25.954531      58.856252    
-807617.13      3.7195602      34.500603      25.943836      58.453482    
-807630.4       2.9438041      32.53799       25.962978      58.050693    
-807641.77      3.6608893      32.445631      25.933677      57.64818     
-807651.47      3.7299603      32.959165      25.965921      57.245569    
-807651.38      2.9859165      33.329782      25.885067      56.843538    
-807646.94      3.222172       33.076034      25.898303      56.441516    
-807632.83      3.9790445      32.776315      25.922667      56.039441    
-807619.24      3.243799       34.071567      25.943587      55.637335    
-807615         3.3787543      34.390559      25.950462      55.235282    
-807618.63      3.5228859      34.447913      25.925614      54.833462    
-807629.16      2.7122909      32.727512      25.941275      54.431642    
-807644.55      3.2654285      32.260495      25.985492      54.029668    
-807651.99      3.5087643      32.751387      25.980518      53.627815    
-807652.67      2.5126093      32.622146      25.931112      53.226322    
-807642.79      3.3884756      32.776331      25.91933       52.82498     
-807632.96      2.4930986      31.974249      25.926774      52.423682    
-807622.1       2.6757037      33.584534      25.92722       52.022467    
-807614.44      3.4981092      34.422051      25.917988      51.621383    
-807618.73      3.2925817      33.710465      25.889823      51.220528    
-807632.65      2.9261915      32.297788      25.954573      50.81942     
-807648.01      3.1094366      31.820404      25.93572       50.418492    
-807652.3       3.4553097      32.856162      25.953839      50.017556    
-807649.75      3.2180073      32.751439      25.920419      49.616868    
-807643.19      2.6099727      32.022011      25.894528      49.216387    
-807633.2       3.6394692      32.594646      25.927253      48.815823    
-807618.19      3.3470424      34.053126      25.905093      48.415444    
-807614.18      3.3008499      34.369223      25.901719      48.015156    
-807620.56      2.9069213      33.915291      25.929582      47.614813    
-807638         3.3804797      32.606304      25.926572      47.21456     
-807647.07      3.5232309      33.450764      25.958403      46.814238    
-807650.95      3.289384       32.41085       25.922817      46.414156    
-807648.49      2.7634719      32.703825      25.869765      46.014387    
-807644.65      2.9959334      31.080458      25.905351      45.614529    
-807629.22      2.8581418      31.866656      25.903223      45.214751    
-807616.98      3.0343895      33.201166      25.920273      44.814971    
-807613.97      3.3178838      33.98121       25.881226      44.41543     
-807624.87      2.9248883      33.103433      25.889598      44.015922    
-807637.52      2.9145267      31.394945      25.900936      43.616434    
-807645.11      3.2823662      32.941604      25.962677      43.216758    
-807651.82      3.2074382      32.484341      25.959283      42.81717     
-807650.31      2.6908048      32.441469      25.941881      42.417726    
-807639.9       2.7850091      32.093491      25.938746      42.018365    
-807624.14      3.1590638      33.4769        25.923516      41.619134    
-807615.31      3.4691874      34.993214      25.922521      41.219976    
-807616.28      3.6791766      34.962699      25.934513      40.820839    
-807623.02      3.6443311      33.495664      25.925394      40.421804    
-807635.9       3.1273213      32.356769      25.946535      40.022757    
-807648.14      3.3084419      33.13108       25.939451      39.623804    
-807653.39      2.6689867      33.166517      25.925732      39.224968    
-807645.52      3.5730735      33.264776      25.883743      38.826351    
-807635.94      3.4756388      32.913272      25.90476       38.427718    
-807626.68      2.9939674      32.92134       25.892482      38.029192    
-807615.86      3.1253542      34.422205      25.903026      37.63069     
-807614.47      3.0339527      33.646513      25.907221      37.232234    
-807624.83      3.5294973      32.802751      25.959119      36.833664    
-807642.11      3.5279627      31.816375      25.962418      36.435147    
-807650.68      3.0400122      32.591211      25.920874      36.036834    
-807648.8       3.5072795      33.294523      25.94654       35.638498    
-807644.69      3.1434006      32.548875      25.939052      35.240248    
-807639.09      2.8969149      32.049977      25.941129      34.842054    
-807625.09      3.1177169      33.325702      25.928783      34.44396     
-807613.14      2.7019236      34.519836      25.934621      34.045908    
-807617.09      3.2345256      33.951687      25.992455      33.647741    
-807629.62      2.7579899      33.014718      25.961957      33.249729    
-807643.73      2.8820787      31.625589      25.95766       32.851792    
-807647.82      3.1474046      32.988242      25.955203      32.453922    
-807649.09      3.5165847      33.020239      25.924938      32.0562      
-807646.53      3.1824062      32.38858       25.90949       31.658578    
-807636.51      2.5858581      31.735644      25.867049      31.261131    
-807620.59      2.8635207      33.701006      25.90178       30.863639    
-807614.52      3.621614       34.242053      25.919354      30.466154    
-807620.37      3.05272        34.003191      25.948848      30.068645    
-807632.18      3.3292327      33.129136      25.927943      29.671248    
-807641.13      3.3659561      32.776752      25.943343      29.273866    
-807649.4       3.1996173      32.745601      25.904929      28.876638    
-807650.33      3.0416128      33.719793      25.896678      28.479483    
-807645.25      3.1889707      32.1588        25.88342       28.082412    
-807631.62      3.2697735      31.824938      25.864896      27.685436    
-807620.89      2.8887639      33.416123      25.904065      27.288414    
-807617.37      3.6552385      34.221791      25.915979      26.891415    
-807621.37      3.4159386      33.758792      25.93695       26.494419    
-807631.61      3.6211848      32.425631      25.945875      26.097456    
-807642.76      2.9918151      32.933881      25.928068      25.700586    
-807650.77      2.9611951      32.779392      25.897791      25.303833    
-807649.84      2.5953808      32.713055      25.874092      24.90718     
-807641.17      3.485505       32.617499      25.89102       24.510537    
-807631.74      2.8865319      32.443719      25.896653      24.11393     
-807621.84      3.2480843      33.609113      25.895501      23.717373    
-807617.7       3.3889076      33.701272      25.921811      23.32081     
-807621.4       3.1872469      33.763766      25.93283       22.924275    
-807632.25      3.2741153      32.516675      25.938237      22.527779    
-807646.62      2.498271       32.327361      25.952168      22.131306    
-807649.92      2.7128163      33.106674      25.905612      21.734969    
-807646.56      2.9877379      33.209769      25.918827      21.338655    
-807640.16      2.7790892      32.094344      25.900358      20.942419    
-807632.8       2.9085978      32.424956      25.897538      20.546234    
-807619.69      3.1037197      33.800107      25.911556      20.15007     
-807614.49      3.2412145      33.951768      25.88274       19.754       
-807623.07      3.8066637      32.957309      25.885206      19.357968    
-807637.63      2.5866339      31.987602      25.912672      18.961936    
-807645.29      2.9574163      32.11177       25.905579      18.56596     
-807646.07      2.6866846      32.687277      25.88377       18.17006     
-807647.73      2.773585       32.064439      25.807644      17.774315    
-807641.43      2.8097572      32.126984      25.953071      17.378397    
-807628.67      2.4970029      32.604649      26.043518      16.982399    
-807617.87      2.7279045      33.657639      26.021429      16.586484    
-807618.31      3.1335217      33.403756      26.003013      16.190643    
-807626.58      2.8934339      32.903815      26.037878      15.794807    
-807637.22      2.3911365      31.421895      26.032434      15.399029    
-807643.54      2.804184       32.21107       26.033025      15.0033      
-807648.07      2.4833497      32.591275      25.989288      14.607673    
-807646.89      2.4926566      32.605875      25.97856       14.212106    
-807637.36      2.7023313      32.239022      25.961165      13.816603    
-807623.28      2.9899784      33.026163      25.969763      13.421136    
-807619.38      2.9887701      33.46068       25.924571      13.02576     
-807619.68      2.8922065      34.297867      25.93213       12.630418    
-807627.09      3.1603576      33.317775      25.926383      12.235123    
-807635.03      3.1251668      32.905459      25.97949       11.839818    
-807646.07      3.0845248      32.900057      25.981476      11.444556    
-807650.52      3.1067546      32.436314      25.964256      11.049353    
-807642.19      3.2797713      33.187239      26.005033      10.654158    
-807633.37      3.2328236      32.806968      26.021848      10.258994    
-807624.91      3.0778608      33.573312      25.980741      9.8639083    
-807619.41      3.3896315      34.329266      25.945328      9.4688916    
-807618.36      3.3316108      34.089757      25.954499      9.0739085    
-807627.72      2.7438098      33.059238      25.987517      8.6789435    
-807640.59      3.2608996      32.487216      26.016543      8.2840021    
-807647.54      2.5417608      32.179702      26.007909      7.8891101    
-807646.99      3.6159675      32.783432      26.020969      7.4942536    
-807640.73      3.5713562      32.793893      26.035102      7.0994332    
-807635.41      2.6840142      32.607223      25.995679      6.7046777    
-807625.08      2.6606576      33.364481      25.989272      6.3099669    
-807618         2.7320288      34.197595      25.989942      5.9152968    
-807619.85      3.3433939      33.466431      25.992749      5.5206662    
-807632.2       3.2494096      32.940624      25.97508       5.1260834    
-807641.92      4.1777282      32.78491       26.005245      4.7315289    
-807645.04      4.1785769      33.131871      26.009034      4.3370141    
-807644.77      3.8063337      33.264441      26.016288      3.942538     
-807644.03      3.9347254      32.393227      26.031064      3.5480991    
-807635.61      2.6880874      31.658399      26.014482      3.153706     
-807622.45      3.4577075      33.235799      26.027539      2.7593507    
-807620.28      3.1679492      33.127482      25.980854      2.3650449    
-807624.45      2.7017616      33.690798      26.001212      1.970774     
-807632.83      2.8370756      32.696599      25.982914      1.5765443    
-807639.87      3.0661055      32.636816      26.01529       1.1823494    
-807645.16      3.3969931      33.449089      25.98597       0.78819561   
-807648.58      3.8234574      33.584044      25.976555      0.3940795    
-807641.72      3.2161913      33.042288      25.932269      0            
Loop time of 197.031 on 32 procs for 5000 steps with 1080 atoms

Performance: 4.385 ns/day, 5.473 hours/ns, 25.377 timesteps/s, 27.407 katom-step/s
74.5% CPU use with 32 MPI tasks x 1 OpenMP threads

MPI task timing breakdown:
Section |  min time  |  avg time  |  max time  |%varavg| %total
---------------------------------------------------------------
Pair    | 102.07     | 146.18     | 192.52     | 319.4 | 74.19
Neigh   | 0          | 0          | 0          |   0.0 |  0.00
Comm    | 2.1908     | 48.543     | 92.643     | 554.3 | 24.64
Output  | 0.029562   | 0.030246   | 0.030995   |   0.2 |  0.02
Modify  | 1.9319     | 1.9602     | 1.9842     |   1.1 |  0.99
Other   |            | 0.3188     |            |       |  0.16

Nlocal:          33.75 ave          48 max          21 min
Histogram: 8 8 0 0 0 0 0 8 0 8
Nghost:        1106.25 ave        1119 max        1092 min
Histogram: 8 0 8 0 0 0 0 0 8 8
Neighs:              0 ave           0 max           0 min
Histogram: 32 0 0 0 0 0 0 0 0 0
FullNghs:       5494.5 ave        7896 max        3378 min
Histogram: 8 8 0 0 0 0 0 8 0 8

Total # of neighbors = 175824
Ave neighs/atom = 162.8
Neighbor list builds = 0
Dangerous builds = 0

reset_timestep 0


variable interval equal 1000
thermo 10

variable nintervals equal $(v_PERIOD/v_interval)
variable nintervals equal 100
variable efield equal 1e-2*36.36*cos((step/${PERIOD})*2*3.14)
variable efield equal 1e-2*36.36*cos((step/100000)*2*3.14)
fix born all addbornforce 0.0 0.0 v_efield

variable Px equal f_born[1]+c_polarization[1]
variable Py equal f_born[2]+c_polarization[2]
variable Pz equal (f_born[3]+c_polarization[3])/vol
variable pe equal pe

fix aveP all ave/time 1 $(v_interval/2) ${interval} v_efield v_Pz v_pe f_born file Pz.${MODEL}.${STRUCTURE}.${TEMP}.$L.${ITER}
fix aveP all ave/time 1 500 ${interval} v_efield v_Pz v_pe f_born file Pz.${MODEL}.${STRUCTURE}.${TEMP}.$L.${ITER}
fix aveP all ave/time 1 500 1000 v_efield v_Pz v_pe f_born file Pz.${MODEL}.${STRUCTURE}.${TEMP}.$L.${ITER}
fix aveP all ave/time 1 500 1000 v_efield v_Pz v_pe f_born file Pz.BaTiO3-E0.${STRUCTURE}.${TEMP}.$L.${ITER}
fix aveP all ave/time 1 500 1000 v_efield v_Pz v_pe f_born file Pz.BaTiO3-E0.BaTiO3-sc333.${TEMP}.$L.${ITER}
fix aveP all ave/time 1 500 1000 v_efield v_Pz v_pe f_born file Pz.BaTiO3-E0.BaTiO3-sc333.280.$L.${ITER}
fix aveP all ave/time 1 500 1000 v_efield v_Pz v_pe f_born file Pz.BaTiO3-E0.BaTiO3-sc333.280.2.${ITER}
fix aveP all ave/time 1 500 1000 v_efield v_Pz v_pe f_born file Pz.BaTiO3-E0.BaTiO3-sc333.280.2.0

thermo_style custom step time temp press pe f_born v_efield v_Pz spcpu cpuremain

# dump 4a all custom 1000 dump.hyst.${MODEL}.${STRUCTURE}.${TEMP}.$L.${ITER}.bin id type xu yu zu fx fy fz
# dump_modify 4a sort id

fix nvt all nvt temp ${TEMP} ${TEMP} $(100*dt)
fix nvt all nvt temp 280 ${TEMP} $(100*dt)
fix nvt all nvt temp 280 280 $(100*dt)
fix nvt all nvt temp 280 280 0.2000000000000000111

run $(v_PERIOD)
run 100000
WARNING: non-constant efield is experimental, strongly distrust scalar/vector output (src/fix_addbornforce.cpp:193)
Per MPI rank memory allocation (min/avg/max) = 3.516 | 3.516 | 3.516 Mbytes
   Step          Time           Temp          Press          PotEng         f_born        v_efield         v_Pz          S/CPU         CPULeft    
         0   0              279.65139      127211.31     -807641.73     -297.13556      0.3636         0.055882815    0              0            
        10   0.02           284.9648       135078.51     -807631.21     -308.57973      0.36359993     0.058035151    28.476806      3511.3024    
        20   0.04           273.75422      142364.45     -807622.56     -315.62892      0.36359971     0.05936094     28.457958      3512.1016    
        30   0.06           273.67387      142941.03     -807622.46     -315.6946       0.36359935     0.059373351    28.449092      3512.4978    
        40   0.08           269.37267      141141.89     -807623.75     -313.81263      0.36359885     0.059019488    28.524966      3510.1845    
        50   0.1            289.18861      133307.1      -807633.12     -307.1931       0.36359821     0.057774639    28.496602      3509.3546    
        60   0.12           281.80063      125850.92     -807643.05     -296.10542      0.36359742     0.05568947     28.488846      3508.8421    
        70   0.14           266.32778      121946.07     -807648.49     -288.37205      0.36359649     0.05423517     28.458247      3508.9151    
        80   0.16           269.67398      123211.5      -807646.16     -291.16035      0.36359541     0.054759738    28.432404      3509.281     
        90   0.18           274.31831      128824.22     -807637.91     -300.04461      0.36359419     0.056430826    28.429643      3509.5253    
       100   0.2            285.41344      136085.19     -807631.31     -308.11674      0.36359283     0.057949207    28.433991      3509.5967    
       110   0.22           270.31976      141972.26     -807623.05     -314.15923      0.36359132     0.059085897    28.444175      3509.4769    
       120   0.24           273.37381      143815.86     -807619.94     -317.5018       0.36358968     0.059714826    28.419058      3509.577     
       130   0.26           285.48572      140091.38     -807624.85     -314.16482      0.36358788     0.059087507    28.430863      3509.4953    
       140   0.28           285.35867      132834.85     -807635.03     -303.73991      0.36358595     0.057127115    28.432754      3509.3584    
       150   0.3            284.12427      125801.91     -807644.27     -294.0143       0.36358387     0.055298248    28.439311      3509.1388    
       160   0.32           261.91457      122269.75     -807645.23     -289.72992      0.36358165     0.054492773    28.434454      3508.9403    
       170   0.34           276.24601      124645.62     -807644.18     -292.49022      0.36357928     0.055012292    28.463791      3508.5109    
       180   0.36           281.88103      128122.36     -807638.32     -298.90308      0.36357677     0.056218827    28.437379      3508.271     
       190   0.38           294.68933      137502.86     -807629.96     -308.68658      0.36357412     0.058059368    28.435058      3508.0345    
       200   0.4            288.90382      142253.88     -807621.91     -315.71201      0.36357132     0.059381205    28.43141       3507.809     
       210   0.42           284.9622       145183.34     -807617.83     -318.94251      0.36356838     0.059989304    28.486046      3507.2509    
       220   0.44           291.65344      138792.63     -807626.68     -310.82965      0.3635653      0.058463866    28.531679      3506.457     
       230   0.46           291.45778      132316.36     -807634.8      -302.49366      0.36356207     0.056896458    28.4882        3505.9339    
       240   0.48           285.6039       124826.38     -807641.58     -294.7797       0.3635587      0.055446041    28.464957      3505.5438    
       250   0.5            267.95494      123318.95     -807642.81     -290.91226      0.36355519     0.054719131    28.484323      3505.062     
       260   0.52           286.17964      123801.03     -807644.8      -291.38436      0.36355153     0.054808482    28.46378       3504.6872    
       270   0.54           294.83227      130859.96     -807637.14     -300.22372      0.36354773     0.056471729    28.42431       3504.4942    
       280   0.56           300.35856      137584.74     -807626.51     -311.68968      0.36354379     0.058629097    28.435527      3504.2406    
       290   0.58           288.59814      143493.53     -807619.4      -317.15581      0.3635397      0.059657953    28.442203      3503.9518    
       300   0.6            282.65689      143320.23     -807620.78     -314.93899      0.36353547     0.059241651    28.460391      3503.5843    
       310   0.62           292.31749      138577.19     -807627.29     -309.83105      0.3635311      0.058281522    28.479111      3503.1434    
       320   0.64           285.25474      132093.6      -807632.51     -303.70512      0.36352658     0.057129899    28.45879       3502.7862    
       330   0.66           287.24509      125025.82     -807642.76     -293.79097      0.36352192     0.055265659    28.476755      3502.3625    
       340   0.68           267.36813      123702.85     -807644.8      -288.95866      0.36351712     0.054357362    28.396997      3502.2321    
       350   0.7            284.59458      124545.48     -807643.77     -292.58559      0.36351217     0.055040389    28.409308      3502.0455    
       360   0.72           297.79896      132300.28     -807634.84     -303.4453       0.36350708     0.057084086    28.42589       3501.7931    
       370   0.74           293.88459      137184.73     -807627        -310.92317      0.36350185     0.058491665    28.410351      3501.5871    
       380   0.76           286.80513      143724.39     -807621.32     -315.67495      0.36349647     0.05938646     28.456923      3501.2223    
       390   0.78           280.51972      141739.74     -807622.47     -313.86162      0.36349095     0.059046223    28.438458      3500.9165    
       400   0.8            284.47333      138942.75     -807625.39     -311.56911      0.36348529     0.058615851    28.439847      3500.6041    
       410   0.82           293.9822       129192.22     -807637.76     -300.71886      0.36347948     0.056575486    28.4499        3500.2596    
       420   0.84           271.35768      126026.08     -807642.5      -292.80348      0.36347353     0.055087234    28.485848      3499.8097    
       430   0.86           266.50347      122194.77     -807645.57     -289.20936      0.36346744     0.054411958    28.453948      3499.4555    
       440   0.88           280.30668      127407.02     -807640.14     -296.65249      0.3634612      0.055813269    28.425371      3499.1812    
       450   0.9            283.37161      132167.39     -807633.61     -303.8421       0.36345482     0.057166951    28.433996      3498.88      
       460   0.92           294.31849      139349.48     -807627.56     -311.45856      0.3634483      0.058601017    28.419063      3498.6166    
       470   0.94           274.79416      142556.09     -807621.56     -314.9018       0.36344163     0.05924995     28.483638      3498.1805    
       480   0.96           280.04003      142453.28     -807622.05     -315.23544      0.36343482     0.059313838    28.448651      3497.8374    
       490   0.98           286.45165      135746.07     -807629.67     -308.57609      0.36342786     0.058061943    28.481943      3497.4106    
       500   1              288.94365      128669.58     -807640.13     -298.46998      0.36342077     0.056161465    28.47846       3496.9953    
       510   1.02           275.32718      124535.8      -807644.98     -9336.0932      0.36341353     0.054898646    28.401385      3496.7684    
       520   1.04           268.93073      122993.73     -807644.16     -9337.0433      0.36340614     0.054905348    28.374959      3496.5995    
       530   1.06           277.23699      127450.68     -807640.05     -9506.9287      0.36339862     0.055905496    28.356769      3496.466     
       540   1.08           289.18799      131740.98     -807635.32     -9716.2388      0.36339095     0.057137551    28.372379      3496.2887    
       550   1.1            286.49013      139943.55     -807626.23     -9995.7581      0.36338313     0.058782562    28.385124      3496.0765    
       560   1.12           269.71028      142587.59     -807620.2      -10116.657      0.36337518     0.059494844    28.403639      3495.8184    
       570   1.14           282.92384      141987.55     -807623.43     -10070.221      0.36336707     0.059223075    28.398461      3495.5682    
       580   1.16           286.71327      133649.78     -807633.51     -9767.7322      0.36335883     0.05744544     28.401785      3495.3076    
       590   1.18           293.40266      128292.79     -807641.65     -9535.2138      0.36335044     0.056079261    28.410593      3495.0253    
       600   1.2            264.91622      123001.72     -807643.81     -9341.1921      0.36334191     0.054939454    28.4606        3494.6383    
       610   1.22           270.00259      124531.95     -807643.98     -9356.9314      0.36333324     0.055033338    28.412352      3494.3496    
       620   1.24           274.68885      126427.56     -807641.02     -9477.0219      0.36332442     0.055741009    28.411991      3494.0597    
       630   1.26           284.5732       135265.24     -807631.88     -9813.4601      0.36331546     0.057721262    28.440514      3493.7121    
       640   1.28           286.15035      139993.51     -807625.21     -10036.702      0.36330636     0.059035815    28.409894      3493.4232    
       650   1.3            267.98939      143753.73     -807619.75     -10128.235      0.36329711     0.05957573     28.353697      3493.239     
       660   1.32           274.33252      138779.14     -807626.38     -9944.3569      0.36328772     0.058495643    28.384426      3492.9922    
       670   1.34           292.35527      133918.7      -807634.46     -9764.8864      0.36327819     0.057441452    28.369202      3492.7703    
       680   1.36           281.7464       126169.79     -807641.38     -9497.418       0.36326851     0.055869571    28.363847      3492.5543    
       690   1.38           266.31944      124586.79     -807643.3      -9363.1338      0.36325869     0.055081118    28.329019      3492.3967    
       700   1.4            270.0941       122358.01     -807646.19     -9290.0179      0.36324873     0.054652494    28.324127      3492.2422    
       710   1.42           285.52315      130027.87     -807639.51     -9570.4226      0.36323863     0.056303661    28.332371      3492.0677    
       720   1.44           290.44677      134521.42     -807631.85     -9841.7905      0.36322838     0.057901776    28.354433      3491.8504    
       730   1.46           277.48813      142712.21     -807622.06     -10092.553      0.36321798     0.059378773    28.315753      3491.695     
       740   1.48           271.62158      141562.94     -807623.4      -10023.975      0.36320745     0.058977011    28.322429      3491.5229    
       750   1.5            280.46195      140110.26     -807625.94     -9978.9503      0.36319677     0.058713832    28.330291      3491.3331    
       760   1.52           288.91324      131575.97     -807634.02     -9757.2615      0.36318595     0.057411177    28.375887      3491.0649    
       770   1.54           276.43932      127834.54     -807640.54     -9486.7848      0.36317498     0.055821392    28.371445      3490.8017    
       780   1.56           278.0383       122781.1      -807647.38     -9271.1296      0.36316387     0.05455412     28.357926      3490.5575    
       790   1.58           271.13923      125280.33     -807643.32     -9366.3902      0.36315262     0.05511637     28.343667      3490.3329    
       800   1.6            285.12741      130004.9      -807636.52     -9643.1078      0.36314122     0.05674649     28.356909      3490.0847    
       810   1.62           284.7153       136853.26     -807629.67     -9854.6691      0.36312968     0.057993302    28.356297      3489.8348    
       820   1.64           279.12706      141396.61     -807623.93     -10005.212      0.363118       0.05888112     28.356606      3489.5819    
       830   1.66           280.54545      142217.14     -807622.32     -10057.129      0.36310618     0.059188578    28.390584      3489.2762    
       840   1.68           289.94045      139095.26     -807625.61     -9985.1188      0.36309421     0.05876672     28.409032      3488.9424    
       850   1.7            295.54725      131437.16     -807635.48     -9686.9118      0.3630821      0.057013545    28.411129      3488.6051    
       860   1.72           283.71872      126609.57     -807642.29     -9404.6357      0.36306984     0.055354042    28.407662      3488.2724    
       870   1.74           282.12297      123300.28     -807645.36     -9293.6399      0.36305745     0.054702608    28.388884      3487.9659    
       880   1.76           274.75518      125906.98     -807639.39     -9445.6714      0.3630449      0.05559939     28.377524      3487.6741    
       890   1.78           298.59851      129477.32     -807637.51     -9608.0926      0.36303222     0.056557415    28.417224      3487.3262    
       900   1.8            290.16653      137919.25     -807628.54     -9852.1569      0.36301939     0.057996132    28.395927      3487.0073    
       910   1.82           281.26546      141568.39     -807621.06     -10048.696      0.36300642     0.059155202    28.368202      3486.7251    
       920   1.84           291.10241      143694.31     -807619.96     -10123.238      0.36299331     0.059596172    28.359987      3486.4523    
       930   1.86           291.56225      137240.31     -807627.24     -9890.8689      0.36298005     0.058230327    28.386452      3486.1429    
       940   1.88           297.31006      132151.24     -807636.11     -9627.2707      0.36296665     0.056680542    28.376031      3485.8461    
       950   1.9            285.86345      124811.26     -807641.78     -9396.7684      0.36295311     0.055325525    28.393903      3485.5251    
       960   1.92           286.02907      124363.82     -807643.2      -9348.2046      0.36293942     0.05504167     28.381413      3485.2194    
       970   1.94           275.26486      125948.1      -807640.67     -9384.2971      0.36292559     0.055256287    28.332604      3484.9747    
       980   1.96           301.37094      131569.53     -807637.08     -9616.5109      0.36291162     0.056625779    28.324757      3484.7377    
       990   1.98           293.4768       137623.3      -807627.48     -9893.5694      0.3628975      0.058259474    28.349697      3484.4673    
      1000   2              283.46472      143454.52     -807620.17     -10085.393      0.36288325     0.059391382    28.296874      3484.2604    
      1010   2.02           284.44431      141671.6      -807623.47     -312.14922      0.36286884     0.058824751    28.428884      3483.8897    
      1020   2.04           292.13936      137065.55     -807629.25     -307.55202      0.3628543      0.057960728    28.451418      3483.4924    
      1030   2.06           290.60646      130000.33     -807637.06     -299.71662      0.36283961     0.056486369    28.485783      3483.0553    
      1040   2.08           279.39105      126171        -807640.95     -294.46932      0.36282478     0.0554997      28.452572      3482.6588    
      1050   2.1            276.17761      124363.23     -807644.38     -290.81778      0.3628098      0.054813742    28.454438      3482.261     
      1060   2.12           287.9374       126753.97     -807642.54     -294.50951      0.36279469     0.055511878    28.467444      3481.8491    
      1070   2.14           292.16498      131732.51     -807635.15     -302.7898       0.36277943     0.057075026    28.45976       3481.4471    
      1080   2.16           288.04604      138578.89     -807626.81     -310.83337      0.36276402     0.058593703    28.463743      3481.0415    
      1090   2.18           277.99652      141832.96     -807622.9      -313.56135      0.36274848     0.059110474    28.447795      3480.6548    
      1100   2.2            276.79003      140453.74     -807625.22     -311.28346      0.36273279     0.0586836      28.446721      3480.2699    
      1110   2.22           284.96814      135614.19     -807630.28     -307.47051      0.36271695     0.057967308    28.438794      3479.8943    
      1120   2.24           277.12761      129617.36     -807636.96     -299.89211      0.36270098     0.056541044    28.461485      3479.4944    
      1130   2.26           279.58717      124921.78     -807644.81     -292.38508      0.36268486     0.055128135    28.499657      3479.0543    
      1140   2.28           273.13927      122928.78     -807646.37     -290.00528      0.3626686      0.054681884    28.475834      3478.6411    
      1150   2.3            275.66936      127798.84     -807640.11     -296.73502      0.36265219     0.05595334     28.464094      3478.2415    
      1160   2.32           285.5769       132652.95     -807634.15     -304.2358       0.36263564     0.05737033     28.444082      3477.8637    
      1170   2.34           285.12073      139146.98     -807627.71     -310.58425      0.36261895     0.058570166    28.417284      3477.5144    
      1180   2.36           270.11148      141087.34     -807623.97     -312.34054      0.36260212     0.058904101    28.464671      3477.116     
      1190   2.38           278.16567      140594.31     -807624.61     -312.83421      0.36258514     0.058999965    28.480031      3476.7027    
      1200   2.4            278.99146      134358.02     -807631.03     -306.52486      0.36256802     0.057812762    28.434383      3476.3368    
      1210   2.42           280.47066      129068.49     -807640.21     -297.48986      0.36255076     0.05611137     28.444201      3475.9612    
      1220   2.44           265.20553      124519.7      -807644.43     -291.12856      0.36253335     0.054914162    28.436066      3475.5942    
      1230   2.46           265.09101      124130.12     -807642.97     -292.54523      0.3625158      0.055184054    28.442347      3475.2212    
      1240   2.48           275.91481      127945.94     -807639.8      -297.29257      0.36249811     0.0560823      28.420059      3474.8704    
      1250   2.5            285.46608      133860.74     -807634.74     -303.60735      0.36248028     0.05727636     28.416799      3474.5229    
      1260   2.52           281.76607      138335.52     -807627.96     -309.88275      0.3624623      0.058463131    28.429358      3474.1631    
      1270   2.54           272.29404      141643.43     -807622.1      -314.32614      0.36244418     0.059304395    28.413037      3473.8191    
      1280   2.56           285.89037      138814.27     -807627.32     -310.95803      0.36242592     0.058671886    28.449994      3473.4398    
      1290   2.58           292.18812      133424.58     -807635.34     -303.74284      0.36240751     0.057313427    28.49178       3473.0214    
      1300   2.6            266.94422      127991.51     -807638.56     -296.91375      0.36238896     0.05602771     28.491751      3472.6042    
      1310   2.62           279.94703      124962.92     -807644.71     -292.41675      0.36237027     0.055181971    28.480711      3472.1981    
      1320   2.64           271.00449      125633.31     -807642.77     -293.04197      0.36235143     0.05530283     28.44324       3471.8275    
      1330   2.66           283.04003      129000.48     -807639.61     -297.84476      0.36233245     0.056212157    28.436766      3471.4631    
      1340   2.68           283.1369       136069.94     -807631.84     -305.52486      0.36231333     0.057664662    28.439958      3471.096     
      1350   2.7            278.86334      139513.22     -807625.6      -311.0826       0.36229407     0.05871675     28.418547      3470.7484    
      1360   2.72           286.46247      141232.02     -807624.76     -312.83448      0.36227466     0.059050581    28.449869      3470.3728    
      1370   2.74           286.12404      137255.56     -807628.97     -308.46066      0.36225511     0.058228121    28.433785      3470.0118    
      1380   2.76           282.09895      133546.04     -807634.24     -302.46129      0.36223542     0.057098725    28.451695      3469.6351    
      1390   2.78           282.74116      126959.13     -807641.17     -295.50277      0.36221558     0.055788148    28.412321      3469.2933    
      1400   2.8            269.36098      125019.04     -807642.01     -292.60472      0.3621956      0.05524407     28.449835      3468.9187    
      1410   2.82           274.11792      125457.42     -807642.37     -292.84727      0.36217548     0.055292935    28.43972       3468.5531    
      1420   2.84           278.98248      131433.65     -807635.81     -299.86979      0.36215522     0.056622037    28.468502      3468.1631    
      1430   2.86           285.17866      135391.63     -807629.83     -306.57804      0.36213481     0.057891965    28.503322      3467.744     
      1440   2.88           282.61697      141372.65     -807624.1      -311.68644      0.36211426     0.058859937    28.470976      3467.3531    
      1450   2.9            282.11372      140720.31     -807624.29     -311.22968      0.36209357     0.058777039    28.50642       3466.9332    
      1460   2.92           297.61399      137746.44     -807629.26     -308.06531      0.36207273     0.058182783    28.475619      3466.5397    
      1470   2.94           294.94078      131637.58     -807635.03     -301.68238      0.36205176     0.056980572    28.493793      3466.1319    
      1480   2.96           283.28959      127680.99     -807639.86     -294.82197      0.36203064     0.055688054    28.49639       3465.7227    
      1490   2.98           273.22145      124812.32     -807642.62     -290.42096      0.36200937     0.054859981    28.437873      3465.362     
      1500   3              291.43739      127006.72     -807641.46     -293.82113      0.36198796     0.05550555     28.456321      3464.9865    
      1510   3.02           293.00205      130227.98     -807635.13     -9604.5564      0.36196642     0.05670307     28.394854      3464.6608    
      1520   3.04           306.06708      137319.36     -807629.94     -9820.1421      0.36194472     0.057979313    28.396628      3464.3335    
      1530   3.06           285.9696       140307.97     -807623.58     -9928.9365      0.36192289     0.058625185    28.339327      3464.0516    
      1540   3.08           297.71427      141191.27     -807623.4      -9980.766       0.36190091     0.05893479     28.332093      3463.7745    
      1550   3.1            305.3568       136357.31     -807629.09     -9828.1383      0.36187879     0.058037095    28.349051      3463.4831    
      1560   3.12           282.9397       132405.52     -807632.66     -9608.6865      0.36185653     0.05674468     28.346811      3463.1927    
      1570   3.14           295.77652      125882.92     -807641.86     -9369.3273      0.36183412     0.055334556    28.34483       3462.9029    
      1580   3.16           279.459        125926.03     -807640.24     -9348.1046      0.36181157     0.055212657    28.345565      3462.6119    
      1590   3.18           288.80015      126543.44     -807639.06     -9430.0641      0.36178888     0.055700227    28.354103      3462.3134    
      1600   3.2            295.85493      132565.16     -807633.99     -9622.6663      0.36176605     0.056841451    28.35421       3462.0143    
      1610   3.22           296.76909      135955.87     -807628.47     -9809.3171      0.36174307     0.057947685    28.373859      3461.6995    
      1620   3.24           292.32857      141537.39     -807622.19     -9993.3679      0.36171995     0.059038722    28.374736      3461.3836    
      1630   3.26           291.94333      139544.09     -807624.3      -9931.013       0.36169669     0.058674115    28.346907      3461.0881    
      1640   3.28           301.3386       136728.88     -807630.18     -9787.3535      0.36167329     0.057829093    28.378054      3460.7687    
      1650   3.3            281.99462      130295.83     -807635.7      -9533.2687      0.36164974     0.056331487    28.404756      3460.4292    
      1660   3.32           285.61803      127696.11     -807640.76     -9392.7432      0.36162605     0.055504767    28.405686      3460.0888    
      1670   3.34           275.12584      125176.96     -807641.6      -9327.1999      0.36160222     0.055121082    28.39897       3459.7532    
      1680   3.36           292.87754      127837.93     -807640.26     -9456.9706      0.36157824     0.055891696    28.349471      3459.4534    
      1690   3.38           285.87592      132651.95     -807633.59     -9648.034       0.36155413     0.057024704    28.427585      3459.0966    
      1700   3.4            278.48494      138773.54     -807626.11     -9860.7917      0.36152987     0.05828612     28.390135      3458.7666    
      1710   3.42           293.31957      140272.58     -807625.62     -9947.4725      0.36150546     0.05880245     28.353143      3458.4628    
      1720   3.44           291.50987      139438.27     -807626.33     -9919.3284      0.36148092     0.058640064    28.389572      3458.1326    
      1730   3.46           283.91636      135290.69     -807630.65     -9750.7075      0.36145623     0.057647165    28.396221      3457.7975    
      1740   3.48           281.76217      130125.59     -807637.69     -9517.557       0.3614314      0.056272621    28.406937      3457.4546    
      1750   3.5            274.63243      126151.9      -807641.74     -9357.8672      0.36140643     0.055332277    28.335984      3457.1612    
      1760   3.52           284.87145      125200.44     -807643.54     -9347.4485      0.36138131     0.055274514    28.324381      3456.8751    
      1770   3.54           285.94322      127689.31     -807640.4      -9455.1906      0.36135605     0.055915536    28.32447       3456.5882    
      1780   3.56           281.10571      133264.09     -807633.04     -9671.3981      0.36133065     0.057198151    28.374         3456.2665    
      1790   3.58           285.22175      138589.22     -807627.33     -9874.2447      0.36130511     0.058401946    28.333382      3455.9723    
      1800   3.6            285.89123      139975.97     -807625.18     -9949.53        0.36127942     0.058851411    28.307676      3455.6948    
      1810   3.62           282.11309      139227.8      -807625.85     -9909.703       0.3612536      0.058620025    28.330691      3455.401     
      1820   3.64           279.7115       132924.02     -807632.05     -9702.9196      0.36122763     0.057400941    28.301952      3455.1259    
      1830   3.66           280.77761      129219.11     -807638.46     -9501.5898      0.36120151     0.056213969    28.292031      3454.8565    
      1840   3.68           272.21475      125197.1      -807642.24     -9344.0055      0.36117526     0.055285677    28.316981      3454.5696    
      1850   3.7            284.24553      125633.22     -807643.55     -9356.3362      0.36114886     0.055362681    28.348882      3454.2609    
      1860   3.72           279.12039      128358.26     -807639.58     -9463.6124      0.36112232     0.056001563    28.371329      3453.937     
      1870   3.74           284.68922      134322.69     -807632.56     -9714.9356      0.36109564     0.057493034    28.406785      3453.5897    
      1880   3.76           283.84689      137853.64     -807627.89     -9865.4464      0.36106881     0.058388094    28.368029      3453.2675    
      1890   3.78           275.01301      140625.54     -807623.99     -9949.2307      0.36104184     0.058888366    28.389206      3452.9313    
      1900   3.8            281.8598       137621.73     -807628.33     -9843.4323      0.36101474     0.058266532    28.367023      3452.6092    
      1910   3.82           273.02376      133584.36     -807632.47     -9671.9644      0.36098748     0.057255879    28.339299      3452.3044    
      1920   3.84           282.40983      127990        -807640.01     -9471.7777      0.36096009     0.056075073    28.329963      3452.0051    
      1930   3.86           273.48612      125101.16     -807642.95     -9340.0718      0.36093255     0.055299563    28.372127      3451.6786    
      1940   3.88           285.6587       125219.78     -807644.73     -9338.9897      0.36090487     0.055297397    28.383297      3451.3448    
      1950   3.9            276.97021      129539.84     -807638.46     -9502.8366      0.36087705     0.056271894    28.404085      3450.9978    
      1960   3.92           283.24251      134694.24     -807632.78     -9714.1948      0.36084909     0.057527928    28.371857      3450.6708    
      1970   3.94           280.85037      137840.1      -807627.55     -9872.0502      0.36082098     0.05846731     28.381969      3450.3373    
      1980   3.96           280.07664      139870.11     -807626.03     -9917.1903      0.36079273     0.058739251    28.4155        3449.983     
      1990   3.98           271.83327      136937.09     -807628.34     -9808.6217      0.36076434     0.058100774    28.371599      3449.6555    
      2000   4              280.82019      132594.73     -807634.84     -9638.1462      0.36073581     0.057095489    28.340673      3449.3467    
      2010   4.02           270.96038      127399.28     -807639.82     -294.88743      0.36070713     0.055904793    28.44203       3448.9761    
      2020   4.04           269.98313      126251.69     -807642.3      -292.27438      0.36067831     0.055413839    28.437324      3448.6085    
      2030   4.06           275.77865      125364.76     -807642.89     -292.50031      0.36064935     0.055461127    28.464353      3448.225     
      2040   4.08           279.56243      130373.78     -807637.32     -298.54919      0.36062025     0.056612626    28.496599      3447.8227    
      2050   4.1            276.34566      134131.18     -807631.92     -303.6172       0.36059101     0.05757832     28.497523      3447.4203    
      2060   4.12           281.60093      139285.83     -807627.31     -308.84666      0.36056162     0.058574815    28.447726      3447.0477    
      2070   4.14           282.4598       138194.64     -807628.18     -308.09029      0.36053209     0.05843615     28.391193      3446.7083    
      2080   4.16           282.00872      136516.7      -807629.75     -306.37419      0.36050242     0.058115437    28.463815      3446.3266    
      2090   4.18           282.55295      130476.67     -807636.67     -299.47333      0.36047261     0.056811127    28.449439      3445.9534    
      2100   4.2            270.22636      128074.57     -807639.89     -294.35535      0.36044265     0.055844869    28.441674      3445.585     
      2110   4.22           274.94426      124325.96     -807643.68     -291.22472      0.36041256     0.055255542    28.439087      3445.2181    
      2120   4.24           276.70251      127531.26     -807640.6      -294.3954       0.36038232     0.055861818    28.434314      3444.8542    
      2130   4.26           278.24832      130201.8      -807636.79     -298.31289      0.36035193     0.056609938    28.441612      3444.4862    
      2140   4.28           282.80186      135804.48     -807631.27     -304.30218      0.36032141     0.057751399    28.41691       3444.1323    
      2150   4.3            292.67051      137991.74     -807629.06     -307.75139      0.36029075     0.058410972    28.47063       3443.7483    
      2160   4.32           277.72372      139509.5      -807625.81     -308.73224      0.36025994     0.058602148    28.464358      3443.368     
      2170   4.34           282.26703      135793.68     -807630.4      -304.54293      0.36022899     0.057811919    28.437172      3443.0032    
      2180   4.36           287.08837      130364.13     -807637.02     -298.33279      0.36019789     0.056637925    28.442759      3442.6353    
      2190   4.38           274.02266      127375.17     -807639.18     -294.08673      0.36016666     0.055836661    28.431581      3442.2738    
      2200   4.4            276.34006      125559.63     -807641.84     -291.58522      0.36013528     0.055366535    28.433908      3441.9112    
      2210   4.42           283.06542      127708.52     -807639.74     -294.36274      0.36010377     0.055898827    28.467109      3441.5304    
      2220   4.44           292.15603      130921.52     -807636.38     -298.75744      0.36007211     0.056738358    28.45447       3441.1568    
      2230   4.46           292.49035      136067.32     -807630.37     -304.59281      0.3600403      0.05785169     28.442143      3440.7901    
      2240   4.48           286.22587      139108.76     -807626.17     -307.71722      0.36000836     0.058450299    28.445154      3440.4219    
      2250   4.5            288.36297      139253.27     -807626.21     -307.74175      0.35997627     0.058460168    28.451344      3440.0505    
      2260   4.52           283.5348       134880.98     -807630.49     -302.64499      0.35994404     0.057497109    28.441747      3439.6844    
      2270   4.54           286.09632      131069.65     -807635.92     -297.35153      0.35991167     0.056496528    28.493213      3439.2911    
      2280   4.56           280.6109       126279.24     -807639.94     -292.45467      0.35987916     0.05557115     28.498725      3438.8952    
      2290   4.58           280.70688      127093.73     -807639.91     -292.32099      0.35984651     0.055550788    28.48343       3438.5078    
      2300   4.6            289.75045      128343.45     -807639.59     -293.82405      0.35981371     0.05584151     28.490662      3438.117     
      2310   4.62           287.16037      133508.66     -807633.6      -299.40479      0.35978077     0.056907343    28.487113      3437.7283    
      2320   4.64           291.6673       136009.87     -807628.85     -304.77012      0.35974769     0.057932448    28.477849      3437.3447    
      2330   4.66           287.97572      140018.27     -807624.67     -308.38132      0.35971447     0.058624299    28.449275      3436.9762    
      2340   4.68           290.83526      137175.13     -807627.85     -305.63527      0.35968111     0.058107657    28.431576      3436.617     
      2350   4.7            283.68819      134746.14     -807630.01     -302.41542      0.3596476      0.057500851    28.479707      3436.2332    
      2360   4.72           284.95733      130757.28     -807635.94     -296.71265      0.35961396     0.056421813    28.464994      3435.8571    
      2370   4.74           289.58445      128105.27     -807640.41     -292.97697      0.35958017     0.055716685    28.4216        3435.5034    
      2380   4.76           282.34724      127126.21     -807641.47     -290.99782      0.35954624     0.055345524    28.423772      3435.1485    
      2390   4.78           287.91807      129111.1      -807638.93     -294.43069      0.35951216     0.056003738    28.430805      3434.7902    
      2400   4.8            286.44078      132269.96     -807633.65     -299.77003      0.35947795     0.057024762    28.459676      3434.4173    
      2410   4.82           280.92521      137693.04     -807627.42     -305.43914      0.35944359     0.058108739    28.383586      3434.0828    
      2420   4.84           275.35454      138202.21     -807625.46     -306.87517      0.35940909     0.058387544    28.360558      3433.7597    
      2430   4.86           281.81955      137959.51     -807627.6      -305.80687      0.35937446     0.058189892    28.394439      3433.4195    
      2440   4.88           285.83053      133527.59     -807632.53     -301.74317      0.35933967     0.057422196    28.431285      3433.0609    
      2450   4.9            289.43767      129825.49     -807638.18     -296.778        0.35930475     0.056482807    28.434983      3432.7005    
      2460   4.92           281.37961      126601.11     -807642.22     -291.85689      0.35926969     0.055551642    28.482021      3432.3172    
      2470   4.94           276.23983      125881.05     -807642.15     -291.46855      0.35923448     0.055483163    28.438095      3431.9555    
      2480   4.96           287.88996      128767.29     -807640.9      -294.56641      0.35919913     0.056078381    28.444705      3431.5908    
      2490   4.98           278.50649      132102.43     -807634.29     -300.1413       0.35916364     0.057145351    28.425493      3431.2354    
      2500   5              272.20006      137278.23     -807628.7      -304.96903      0.35912801     0.058070288    28.425409      3430.8801    
[...]
     98740   197.48         292.49572      129955.26     -807637.15     -9595.0043      0.36236891     0.056583757    28.710812      45.512621    
     98750   197.5          285.43885      134844.14     -807632.41     -9715.1371      0.36238762     0.057289248    28.744687      45.151241    
     98760   197.52         277.54038      131979.76     -807633.14     -9662.542       0.36240618     0.056976182    28.707704      44.789869    
     98770   197.54         292.67009      134996.98     -807632.87     -9736.8594      0.36242459     0.057411485    28.752768      44.428494    
     98780   197.56         286.53636      131579.14     -807634.07     -9678.8032      0.36244287     0.05706629     28.755603      44.06712     
     98790   197.58         277.8537       135475.54     -807630.17     -9762.2125      0.362461       0.057555193    28.705344      43.705757    
     98800   197.6          273.98243      131259.88     -807633.08     -9656.8995      0.36247899     0.056931472    28.706334      43.344397    
     98810   197.62         287.3776       132986.53     -807633.68     -9695.8222      0.36249683     0.057158124    28.710449      42.983038    
     98820   197.64         274.33154      130664.2      -807634.19     -9626.4825      0.36251453     0.056746587    28.680383      42.621686    
     98830   197.66         281.51967      134327.11     -807632.55     -9711.1065      0.36253209     0.057242659    28.66464       42.26034     
     98840   197.68         285.56665      132276.14     -807634.84     -9660.1757      0.36254951     0.056939709    28.672773      41.898994    
     98850   197.7          285.12512      134354.69     -807632.87     -9720.0758      0.36256678     0.057290047    28.720067      41.537644    
     98860   197.72         290.77782      132784.33     -807633.66     -9725.0578      0.36258391     0.057316703    28.759144      41.176292    
     98870   197.74         278.7914       134233.74     -807631.12     -9753.0552      0.3626009      0.057479019    28.694954      40.814951    
     98880   197.76         278.31678      133647.64     -807632.36     -9715.4428      0.36261774     0.057254692    28.688308      40.453614    
     98890   197.78         285.93493      132936.6      -807634.78     -9674.1391      0.36263445     0.057008658    28.702726      40.092278    
     98900   197.8          278.9065       131842.71     -807633.69     -9679.5416      0.362651       0.057037889    28.714601      39.730942    
     98910   197.82         277.54536      131832.94     -807634.42     -9652.8394      0.36266742     0.056877969    28.691424      39.369612    
     98920   197.84         281.55572      132648        -807634.86     -9659.5673      0.36268369     0.056915058    28.723126      39.008281    
     98930   197.86         288.16382      130898.82     -807635.79     -9664.7793      0.36269982     0.056943236    28.727863      38.646951    
     98940   197.88         287.42294      132961.3      -807633.84     -9727.5824      0.36271581     0.057310735    28.737671      38.285623    
     98950   197.9          270.30187      133639.7      -807631.56     -9728.7862      0.36273165     0.057315324    28.717884      37.924301    
     98960   197.92         274.64292      134712.3      -807632.06     -9734.8691      0.36274735     0.057348678    28.699556      37.562983    
     98970   197.94         288.17106      131987.82     -807635.11     -9700.7349      0.36276291     0.05714514     28.696904      37.201668    
     98980   197.96         273.79507      134199.7      -807631.76     -9746.2497      0.36277832     0.05741082     28.722003      36.840353    
     98990   197.98         280.45939      131346.49     -807635.37     -9667.3561      0.36279359     0.056943696    28.700505      36.479043    
     99000   198            273.93987      132683.12     -807633.8      -9688.6349      0.36280872     0.057066655    28.726595      36.117732    
     99010   198.02         286.80925      129963.72     -807637.49     -301.09798      0.3628237      0.056749195    28.807024      35.756414    
     99020   198.04         277.49225      133207.1      -807633.14     -304.16938      0.36283855     0.05732573     28.804433      35.3951      
     99030   198.06         270.26936      132196.55     -807632.74     -303.74953      0.36285324     0.057244282    28.768852      35.033792    
     99040   198.08         270.18811      134817.19     -807632.23     -304.24616      0.3628678      0.057335578    28.767603      34.672488    
     99050   198.1          276.33411      132235.13     -807634.27     -303.20798      0.36288221     0.057137662    28.750603      34.311188    
     99060   198.12         284.84416      133370.47     -807634.02     -304.64751      0.36289648     0.057406675    28.797499      33.949885    
     99070   198.14         273.0334       131846.58     -807634.18     -302.99267      0.36291061     0.057092621    28.77043       33.588589    
     99080   198.16         269.0244       132776.71     -807634.24     -302.37287      0.36292459     0.056973638    28.762385      33.227296    
     99090   198.18         283.11763      130784.94     -807637.6      -301.10221      0.36293843     0.056732053    28.746447      32.866008    
     99100   198.2          277.49288      132422.32     -807634.5      -303.5057       0.36295213     0.057182749    28.805969      32.504715    
     99110   198.22         272.73578      131821.27     -807634.11     -303.30722      0.36296568     0.057143219    28.809621      32.143426    
     99120   198.24         270.20785      132916.44     -807633.43     -303.62616      0.36297909     0.057201194    28.765817      31.782143    
     99130   198.26         282.47871      132864.07     -807635.05     -303.82678      0.36299236     0.057236899    28.740509      31.420867    
     99140   198.28         276.9475       133250.6      -807633.17     -304.93098      0.36300548     0.057442837    28.753259      31.059591    
     99150   198.3          285.54853      132726.95     -807635.35     -303.98708      0.36301846     0.057262978    28.742863      30.69832     
     99160   198.32         276.39007      131871.98     -807635.85     -302.18626      0.3630313      0.056921739    28.799098      30.337045    
     99170   198.34         267.58239      132545.38     -807634.76     -302.055        0.36304399     0.056895024    28.740238      29.975779    
     99180   198.36         277.3554       131248.44     -807636.47     -301.73121      0.36305655     0.056832072    28.693459      29.614521    
     99190   198.38         268.44589      132358.85     -807633.25     -303.62231      0.36306895     0.057186312    28.746897      29.253259    
     99200   198.4          278.10948      131612.05     -807635.4      -302.82214      0.36308122     0.057033675    28.705839      28.892005    
     99210   198.42         274.6959       134788.57     -807632.52     -305.06884      0.36309334     0.057454902    28.684233      28.530755    
     99220   198.44         276.44058      132434.29     -807633.12     -304.68055      0.36310532     0.05737988     28.689762      28.169507    
     99230   198.46         285.05107      134666.34     -807633.56     -305.18714      0.36311715     0.057473412    28.785028      27.808253    
     99240   198.48         276.02043      130900.72     -807635.3      -302.10509      0.36312885     0.056891163    28.789856      27.447001    
     99250   198.5          278.24935      133246.89     -807634.12     -303.32204      0.3631404      0.057118516    28.787621      27.085753    
     99260   198.52         275.78343      130296.15     -807635.64     -301.34637      0.3631518      0.056744697    28.822147      26.724503    
     99270   198.54         282.06815      133386.26     -807634.26     -303.3132       0.36316306     0.057113288    28.831741      26.363256    
     99280   198.56         273.54669      131776.95     -807633.78     -302.47119      0.36317418     0.056952995    28.796758      26.002015    
     99290   198.58         286.36237      135055.44     -807632.34     -305.36376      0.36318516     0.057495905    28.797493      25.640777    
     99300   198.6          280.39745      132476.29     -807632.84     -303.88639      0.36319599     0.05721603     28.814404      25.27954     
     99310   198.62         286.5185       134920.44     -807631.94     -305.35241      0.36320668     0.057490362    28.815651      24.918305    
     99320   198.64         277.34643      132219.67     -807632.51     -303.38014      0.36321723     0.057117374    28.825664      24.557073    
     99330   198.66         285.9274       134157.31     -807632.91     -303.89954      0.36322763     0.057213522    28.812856      24.195845    
     99340   198.68         287.23608      130686.52     -807635.43     -301.48384      0.36323789     0.056757128    28.779127      23.834622    
     99350   198.7          287.62386      133251.8      -807634.05     -302.71429      0.36324801     0.056987184    28.708688      23.473408    
     99360   198.72         285.50944      130906.22     -807634.4      -302.07005      0.36325798     0.056864342    28.689222      23.112197    
     99370   198.74         298.05434      133975.9      -807633.87     -304.20383      0.36326781     0.057264474    28.75811       22.750984    
     99380   198.76         280.64857      133052.73     -807632.46     -303.19139      0.3632775      0.057072367    28.756007      22.389774    
     99390   198.78         284.46373      134946.68     -807630.36     -305.73405      0.36328704     0.057549481    28.756464      22.028567    
     99400   198.8          294.90067      133084.71     -807633.48     -304.15317      0.36329644     0.057250427    28.760397      21.667362    
     99410   198.82         276.91013      134866.55     -807630.23     -304.867        0.3633057      0.057383327    28.757677      21.306159    
     99420   198.84         290.55938      132031.6      -807634.56     -302.50771      0.36331481     0.056937823    28.77616       20.944959    
     99430   198.86         283.34725      132853.94     -807633.79     -302.25886      0.36332378     0.056889581    28.780434      20.58376     
     99440   198.88         293.46844      130974.69     -807635.38     -302.1772       0.36333261     0.056872829    28.79769       20.222564    
     99450   198.9          284.31608      132818.32     -807633.28     -303.09376      0.36334129     0.057043972    28.736518      19.861374    
     99460   198.92         286.05232      132929.84     -807633.27     -303.46755      0.36334983     0.05711298     28.767193      19.500185    
     99470   198.94         283.61121      133586.97     -807631.71     -304.77825      0.36335823     0.057358328    28.784207      19.138997    
     99480   198.96         286.58469      134676.66     -807631.59     -305.45207      0.36336648     0.057483833    28.833332      18.777809    
     99490   198.98         286.44441      133719.43     -807632.22     -305.01024      0.3633746      0.057399404    28.858338      18.416623    
     99500   199            284.05529      133778.12     -807632.23     -304.78557      0.36338256     0.057355866    28.845094      18.05544     
     99510   199.02         279.00271      130951.64     -807634.07     -9680.6481      0.36339039     0.056928342    28.694626      17.694269    
     99520   199.04         280.50657      133408.39     -807633.51     -9710.4553      0.36339807     0.057102421    28.686313      17.333101    
     99530   199.06         280.78736      130788.49     -807635.67     -9654.099       0.3634056      0.056769839    28.753674      16.971932    
     99540   199.08         281.15915      132731.27     -807633.53     -9726.9495      0.363413       0.057197065    28.733409      16.610767    
     99550   199.1          283.64856      130857.52     -807635.57     -9683.5289      0.36342025     0.056940604    28.694592      16.249606    
     99560   199.12         273.57965      135882.96     -807631.27     -9781.4537      0.36342736     0.057515292    28.720787      15.888447    
     99570   199.14         280.74021      132705.79     -807633.77     -9744.2196      0.36343432     0.057295256    28.728722      15.527289    
     99580   199.16         283.12874      134808.3      -807633.49     -9765.3671      0.36344114     0.057418524    28.741732      15.166134    
     99590   199.18         274.06539      131395.34     -807634.65     -9696.8567      0.36344782     0.057014648    28.731086      14.804982    
     99600   199.2          279.72757      133378.02     -807634.09     -9741.5335      0.36345435     0.057276305    28.741086      14.443832    
     99610   199.22         277.09366      130428.45     -807636.32     -9663.646       0.36346074     0.056817359    28.752271      14.082684    
     99620   199.24         271.99543      133175.9      -807634.16     -9710.3665      0.36346699     0.057091071    28.740198      13.721539    
     99630   199.26         271.41395      131795.93     -807634.62     -9696.091       0.3634731      0.057006182    28.70005       13.360399    
     99640   199.28         276.05095      134260.65     -807632.64     -9779.5774      0.36347906     0.05749608     28.696415      12.999262    
     99650   199.3          274.72304      132191.62     -807633.46     -9750.017       0.36348487     0.057321371    28.697105      12.638127    
     99660   199.32         272.66339      133756.05     -807632.45     -9771.4559      0.36349055     0.057446516    28.690826      12.276995    
     99670   199.34         276.25446      133174.7      -807633.93     -9740.6777      0.36349608     0.057264699    28.682503      11.915865    
     99680   199.36         282.06156      132511.76     -807634.67     -9742.2647      0.36350147     0.05727318     28.741098      11.554736    
     99690   199.38         278.83508      132698.25     -807634.85     -9721.1039      0.36350671     0.057147955    28.765678      11.193609    
     99700   199.4          267.76278      131494.37     -807634.76     -9674.335       0.36351181     0.056872214    28.675398      10.832488    
     99710   199.42         276.26569      131863.34     -807634.92     -9704.6373      0.36351677     0.057049573    28.661627      10.471369    
     99720   199.44         279.68275      131895.56     -807635.76     -9693.3378      0.36352158     0.056982394    28.685653      10.110253    
     99730   199.46         268.91477      134523.53     -807632.11     -9759.8514      0.36352625     0.057372657    28.70131       9.7491379    
     99740   199.48         274.59716      133304.02     -807633.35     -9745.3269      0.36353078     0.057286563    28.681056      9.3880264    
     99750   199.5          281.24972      134598.25     -807633.2      -9776.8246      0.36353516     0.057471024    28.736114      9.0269156    
     99760   199.52         279.52475      132739.56     -807634.12     -9737.7752      0.3635394      0.057240813    28.7558        8.665807     
     99770   199.54         274.53307      133792.36     -807632.52     -9764.8691      0.3635435      0.05739943     28.747249      8.3047012    
     99780   199.56         271.63315      131598.87     -807634.4      -9692.3975      0.36354745     0.056972811    28.706207      7.9435992    
     99790   199.58         279.08578      133199.88     -807635.19     -9693.8089      0.36355126     0.05698051     28.697956      7.5825       
     99800   199.6          269.26205      130913.45     -807634.23     -9682.6673      0.36355493     0.056914446    28.685555      7.2214036    
     99810   199.62         278.56949      134294.4      -807633.3      -9746.8552      0.36355845     0.057291185    28.704015      6.8603092    
     99820   199.64         270.11768      132080.07     -807633.51     -9701.1872      0.36356183     0.057022222    28.671413      6.4992182    
     99830   199.66         284.69185      134431.83     -807632.83     -9782.6015      0.36356507     0.057500252    28.669329      6.1381296    
     99840   199.68         271.27323      132454.22     -807632.56     -9732.2383      0.36356816     0.05720374     28.689567      5.7770431    
     99850   199.7          286.30118      134586.51     -807632.4      -9795.8784      0.36357111     0.057577334    28.708343      5.4159588    
     99860   199.72         275.00334      131263        -807634.14     -9690.5021      0.36357392     0.056957523    28.699458      5.0548772    
     99870   199.74         287.64413      133353.12     -807634.4      -9730.585       0.36357658     0.057192698    28.693442      4.6937982    
     99880   199.76         278.60459      130608.88     -807634.78     -9677.5506      0.3635791      0.056880588    28.665104      4.3327221    
     99890   199.78         282.7748       134085.59     -807633.14     -9742.6074      0.36358148     0.05726259     28.705563      3.971648     
     99900   199.8          279.66045      131147.19     -807634.69     -9680.4862      0.36358371     0.056897121    28.71395       3.6105762    
     99910   199.82         282.33096      134739.08     -807632.66     -9750.5975      0.3635858      0.057308871    28.716962      3.2495071    
     99920   199.84         283.17709      132043.96     -807633.47     -9729.4233      0.36358775     0.057184114    28.727673      2.8884403    
     99930   199.86         285.69168      134355.43     -807632.02     -9780.7907      0.36358955     0.057485738    28.758635      2.527376     
     99940   199.88         275.53022      133207.92     -807633.08     -9700.7447      0.36359121     0.057015015    28.772164      2.1663141    
     99950   199.9          283.95361      133237.34     -807633.08     -9733.5387      0.36359273     0.057207519    28.761749      1.8052551    
     99960   199.92         281.27013      132197.03     -807633.61     -9701.821       0.3635941      0.057020887    28.721058      1.4441989    
     99970   199.94         287.67676      132397.59     -807634.59     -9695.0704      0.36359533     0.056981019    28.698164      1.0831454    
     99980   199.96         278.70239      132655.14     -807632.99     -9703.1852      0.36359641     0.057028542    28.691343      0.72209444   
     99990   199.98         282.00482      133423.53     -807632.44     -9731.6458      0.36359736     0.057195665    28.677442      0.36104599   
    100000   200            284.84539      134162.33     -807631.34     -9774.6619      0.36359816     0.057448357    28.636416      0            
Loop time of 3610.45 on 32 procs for 100000 steps with 1080 atoms

Performance: 4.786 ns/day, 5.015 hours/ns, 27.697 timesteps/s, 29.913 katom-step/s
72.8% CPU use with 32 MPI tasks x 1 OpenMP threads

MPI task timing breakdown:
Section |  min time  |  avg time  |  max time  |%varavg| %total
---------------------------------------------------------------
Pair    | 2513.7     | 2793.3     | 3024.9     | 260.2 | 77.37
Neigh   | 0.000806   | 0.00090432 | 0.0010418  |   0.0 |  0.00
Comm    | 503.45     | 735.04     | 1014.3     | 507.2 | 20.36
Output  | 3.1788     | 3.2071     | 3.3596     |   2.3 |  0.09
Modify  | 70.607     | 71.799     | 72.614     |   6.5 |  1.99
Other   |            | 7.146      |            |       |  0.20

Nlocal:          33.75 ave          43 max          24 min
Histogram: 1 1 5 3 7 3 3 5 3 1
Nghost:        1025.84 ave        1042 max        1011 min
Histogram: 3 6 1 4 1 6 1 5 3 2
Neighs:              0 ave           0 max           0 min
Histogram: 32 0 0 0 0 0 0 0 0 0
FullNghs:      5356.75 ave        6900 max        3793 min
Histogram: 1 1 6 3 6 3 4 4 3 1

Total # of neighbors = 171416
Ave neighs/atom = 158.71852
Neighbor list builds = 2
Dangerous builds = 0

Total wall time: 1:03:44
