
units		metal
atom_style	atomic

read_data ${STRUCTURE}.data
read_data BaTiO3-sc333.data
Reading data file ...
  orthogonal box = (0 0 0) to (11.898253 11.898253 12.912076)
  2 by 4 by 4 MPI processor grid
  reading atoms ...
  135 atoms
  read_data CPU = 0.028 seconds
replicate $L $L $L
replicate 2 $L $L
replicate 2 2 $L
replicate 2 2 2
Replication is creating a 2x2x2 = 8 times larger system...
  orthogonal box = (0 0 0) to (23.796507 23.796507 25.824152)
  2 by 4 by 4 MPI processor grid
  1080 atoms
  replicate CPU = 0.003 seconds

pair_style allegro
pair_coeff	* * ${MODEL}.pth Ba Ti O
pair_coeff	* * BaTiO3-E0.pth Ba Ti O
mass 1 137.3
mass 2 47.9
mass 3 15.9994

timestep 0.002
compute polarization all allegro polarization 3
compute allegro will evaluate the quantity polarization of length 3 (src/compute_allegro.cpp:53)
compute polarizability all allegro polarizability 9
compute allegro will evaluate the quantity polarizability of length 9 (src/compute_allegro.cpp:53)

thermo_style custom pe fmax fnorm spcpu cpuremain

variable efield equal 1e-2*36.36
fix born all addbornforce 0.0 0.0 ${efield}
fix born all addbornforce 0.0 0.0 0.3636

thermo 10
min_style fire
#minimize 0.0 1e-6 100 100
velocity all create ${TEMP} ${SEED} dist gaussian rot yes mom yes
velocity all create 310 ${SEED} dist gaussian rot yes mom yes
velocity all create 310 12928 dist gaussian rot yes mom yes
fix nvt all nvt temp ${TEMP} ${TEMP} $(100*dt)
fix nvt all nvt temp 310 ${TEMP} $(100*dt)
fix nvt all nvt temp 310 310 $(100*dt)
fix nvt all nvt temp 310 310 0.2000000000000000111
run 5000
Neighbor list info ...
  update: every = 1 steps, delay = 0 steps, check = yes
  max neighbors/atom: 2000, page size: 100000
  master list distance cutoff = 8
  ghost atom cutoff = 8
  binsize = 8, bins = 3 3 4
  1 neighbor lists, perpetual/occasional/extra = 1 0 0
  (1) pair allegro/kk, perpetual
      attributes: full, newton on, kokkos_device
      pair build: full/bin/kk/device
      stencil: full/bin/3d
      bin: kk/device
Per MPI rank memory allocation (min/avg/max) = 3.516 | 3.516 | 3.516 Mbytes
    PotEng          Fmax          Fnorm          S/CPU         CPULeft    
-807708.29      1.5957437      37.043847      0              0            
-807647.53      3.5313891      44.373554      2.3740372      2101.9056    
-807632.84      2.5703901      35.555235      25.845728      1145.1877    
-807603.32      3.3650996      38.006281      25.854623      826.00149    
-807602.19      4.1534871      50.913395      25.793934      666.32801    
-807572.36      3.8025597      40.22947       25.761132      570.41768    
-807603.36      2.8926166      38.547168      25.861002      506.22463    
-807647.35      3.8921503      34.997297      25.862908      460.26       
-807685.31      3.0911017      34.73699       25.858317      425.69403    
-807668.71      3.1467131      34.36532       25.785837      398.78278    
-807650.66      2.8716223      34.907122      25.86358       377.11909    
-807657.99      2.8556502      27.522085      25.834802      359.34313    
-807625.26      3.1606131      32.366699      25.815415      344.4771     
-807585.59      3.6195723      40.954623      25.813233      331.83979    
-807569.93      3.9063034      38.459993      25.881351      320.91709    
-807634.82      3.4376635      32.744513      25.868992      311.40519    
-807656.93      2.9054918      31.081779      25.868044      303.03439    
-807666.48      2.6623576      34.623578      25.843629      295.61328    
-807646.58      4.387254       44.843942      25.859004      288.96759    
-807679.09      2.9639834      35.852175      25.807207      283.00038    
-807641.23      3.8095957      38.677012      25.743324      277.61423    
-807614.97      3.9272252      39.793187      25.843974      272.66954    
-807558.73      4.2236307      46.574507      25.867656      268.13149    
-807606.68      4.3663213      48.589115      25.842967      263.96211    
-807616.84      4.3314244      39.435607      25.806645      260.11872    
-807645.13      3.3374279      36.020156      25.902622      256.52454    
-807643         5.8276957      46.533065      25.902163      253.17723    
-807682.65      2.9385698      38.041603      25.824523      250.06963    
-807661.88      3.7844593      35.703665      25.802324      247.16196    
-807637.24      2.9198114      32.113217      25.855786      244.41507    
-807604.1       3.6779549      34.833674      25.881814      241.81942    
-807602.96      3.8656075      42.851649      25.86796       239.36944    
-807599.22      3.1320121      35.822841      25.811129      237.06088    
-807613.66      3.5951829      32.022024      25.890061      234.85202    
-807644.22      3.024457       29.992476      25.890388      232.75032    
-807674.9       2.4386212      31.501002      25.82056       230.76052    
-807677.84      2.1797082      31.729957      25.776112      228.86835    
-807645.68      3.8570447      36.575253      25.851183      227.0434     
-807645.57      2.6530428      30.290762      25.874083      225.28997    
-807619.86      3.7151243      33.92646       25.869025      223.60754    
-807601.63      3.6947459      43.21556       25.842673      221.99443    
-807572.38      3.93911        41.506605      25.863876      220.43758    
-807624.97      3.4420005      35.43206       25.87926       218.93396    
-807651.69      3.9045651      35.696844      25.855329      217.4861     
-807675.56      3.0033642      35.010764      25.804235      216.0944     
-807641.67      4.489337       46.40953       25.83393       214.74283    
-807666.14      2.8705318      34.73345       25.836308      213.43284    
-807642.59      3.6740785      36.571646      25.824355      212.16385    
-807622.02      3.3396819      38.94031       25.812809      210.93324    
-807562.98      3.750964       43.390142      25.853527      209.73142    
-807603.21      3.7559441      42.740472      25.878933      208.55879    
-807625.96      3.382905       34.972112      25.869091      207.41828    
-807658.61      2.7905981      32.280937      25.865291      206.30726    
-807644.6       4.4190959      40.831147      25.879092      205.22184    
-807672.09      2.9053451      34.406226      25.866016      204.16393    
-807665.62      2.716996       32.046664      25.798326      203.13862    
-807642.44      2.6564517      30.309363      25.851169      202.12982    
-807597.49      3.0940452      35.386423      25.856734      201.14219    
-807595.67      3.1343423      38.778952      25.855553      200.17541    
-807607.07      3.8759431      38.780898      25.808031      199.23362    
-807625.83      3.3109749      31.89508       25.864637      198.30408    
-807638.77      3.8564533      33.303176      25.846274      197.39433    
-807665.34      3.7628107      33.664032      25.88238       196.49762    
-807674.49      2.6515736      35.242605      25.761086      195.62974    
-807648.38      4.0993206      36.785518      25.790682      194.77381    
-807631.35      2.7053616      33.409148      25.839972      193.92734    
-807610.66      3.8975096      35.358121      25.858976      193.09292    
-807604.97      3.987592       44.938075      25.801218      192.27746    
-807584.06      4.0777802      40.187         4.6127943      202.78476    
-807617.22      3.2509246      36.111749      14.936814      203.56512    
-807645.95      4.2674038      37.32521       25.881141      202.56497    
-807674.6       3.3064547      36.756927      25.813563      201.58822    
-807649.45      4.4407556      42.85514       20.637807      201.20538    
-807649.96      3.2084851      36.401309      17.255095      201.37538    
-807639.85      3.4577904      35.491673      21.923044      200.81475    
-807622.59      3.4392321      39.216296      22.534312      200.18679    
-807575.75      3.3616167      40.425201      25.84001       199.24696    
-807591.45      4.0613441      39.933936      25.861839      198.31969    
-807630.41      3.2407492      31.378731      25.854479      197.40688    
-807659.7       3.8011911      32.593477      25.849676      196.50777    
-807653.03      3.7922694      36.199945      25.642522      195.63787    
-807658.52      2.9039387      35.576217      25.781241      194.76897    
-807663.06      3.0611889      32.394417      25.823955      193.90853    
-807642.49      3.1310861      32.57793       25.791137      193.06197    
-807601.37      3.9549767      36.143096      25.891535      192.21889    
-807583.99      3.4334766      38.937218      25.87392       191.38784    
-807608.01      3.6709688      38.58835       25.854362      190.56854    
-807632.86      3.1898688      31.436763      25.857663      189.75895    
-807643.52      3.3862742      33.446284      25.910455      188.95527    
-807654.08      4.7480829      36.477848      25.836354      188.1661     
-807672.86      2.956838       35.109382      25.76773       187.39056    
-807652.67      3.9584697      35.096439      25.747796      186.62488    
-807629.13      3.3261685      33.950528      25.804105      185.86365    
-807600.43      3.9706586      36.815391      25.894541      185.10453    
-807603.77      4.1001866      43.4598        25.871923      184.3548     
-807597.06      4.2140019      38.71154       25.89633       183.61117    
-807621.91      2.7358126      34.048838      25.896359      182.87498    
-807641.67      4.5004144      36.251666      25.918874      182.14462    
-807672.15      2.8186243      34.916653      25.866614      181.42448    
-807655.88      3.8919122      37.309867      25.737234      180.71896    
-807647.65      3.1790322      33.871896      25.876524      180.01141    
-807630.82      4.643017       33.939606      25.892739      179.30926    
-807620.6       3.6060238      37.09624       25.91886       178.61179    
-807591.89      3.5462246      37.45048       25.893965      177.9218     
-807594.27      2.4642434      37.031227      25.935978      177.23527    
-807628.14      2.9278768      31.422485      25.920948      176.55531    
-807660.33      2.6664481      31.883185      25.867268      175.88388    
-807660.95      3.0890686      33.388859      25.814554      175.22067    
-807651.7       3.5012029      35.656533      25.836984      174.56135    
-807654.82      3.0834302      31.47085       25.80538       173.90873    
-807641.09      3.1230674      31.418043      25.754256      173.26365    
-807609.61      3.1308409      35.286786      25.870586      172.61708    
-807582.19      3.8645648      38.154559      25.945542      171.97129    
-807609.39      4.2032454      36.716492      25.92882       171.33095    
-807636.14      3.189026       33.214833      25.887612      170.69717    
-807651.83      2.6520475      32.334528      25.89124       170.0675     
-807647.75      3.8579757      38.165683      25.918532      169.44069    
-807665.64      2.6561816      34.16301       25.821645      168.82273    
-807651.95      3.5277576      34.992122      25.754687      168.21195    
-807632.16      2.638557       32.994787      25.876108      167.59907    
-807593.76      3.4594084      37.027767      25.929923      166.98742    
-807603.41      3.5237325      39.787799      25.922985      166.37984    
-807607.73      3.6598596      35.861306      25.917884      165.77612    
-807632.43      2.9009573      32.16743       25.857995      165.17869    
-807638.62      5.021542       36.738315      25.928149      164.58148    
-807667.35      2.9493639      33.892675      25.892725      163.98924    
-807659.03      3.8065755      35.604859      25.744731      163.40686    
-807646.49      3.1454742      33.224131      25.73038       162.82817    
-807621.96      4.3200445      33.993792      25.870371      162.24634    
-807615.52      3.2633565      36.058281      25.894991      161.66648    
-807599.73      4.0880898      37.920103      25.801167      161.09359    
-807604.23      3.0070505      36.17593       25.874859      160.52043    
-807626         3.3551641      32.923337      25.917035      159.94834    
-807656.58      2.6747741      31.842559      25.8448        159.38203    
-807662.43      3.0587009      34.269878      25.781315      158.82099    
-807651.21      3.2483536      35.298898      25.682487      158.26656    
-807644.87      2.6659027      33.055795      25.850143      157.7078     
-807633.71      2.9641369      32.617604      25.848201      157.15162    
-807611.33      3.6905988      37.26097       25.917861      156.59517    
-807587.26      3.0711899      38.275016      25.934766      156.04052    
-807607.35      3.1378447      36.157583      25.882423      155.49029    
-807635.97      3.7071949      34.017388      25.927153      154.94069    
-807656.58      2.5652332      33.867824      25.907422      154.39414    
-807648.2       3.7316129      38.324245      25.90565       153.8499     
-807656.33      3.4792169      35.23866       25.800302      153.31175    
-807648.48      4.0181609      34.51479       25.793349      152.77593    
-807630.7       3.4759003      34.33342       25.906807      152.23803    
-807592.73      3.5700711      37.380907      25.834252      151.7048     
-807596.65      3.9256242      39.413161      25.885665      151.17171    
-807613.07      3.0857789      35.228925      25.836867      150.64231    
-807640.2       3.0979791      33.051227      25.832327      150.11498    
-807642.65      4.6514002      36.814178      25.909222      149.58684    
-807657.71      3.02111        35.188066      25.876014      149.0617     
-807657.74      3.9698848      35.029725      25.774553      148.54183    
-807644.93      3.158662       33.437677      25.813689      148.02235    
-807615.43      4.0497736      34.431477      25.857355      147.50312    
-807602.27      3.3132002      37.033315      25.925402      146.98335    
-807600.26      3.4801935      38.47843       25.920291      146.46546    
-807615.75      3.7479328      34.931087      25.907243      145.94965    
-807629.89      3.8371191      34.193673      25.859251      145.43702    
-807650.49      4.1548384      34.737717      25.914797      144.92419    
-807661.59      2.9716459      35.422617      25.829619      144.41563    
-807651.1       4.4596119      36.190334      25.82307       143.90876    
-807636.69      3.8364558      34.430146      25.852733      143.40245    
-807621.21      3.6345902      34.244086      25.890416      142.89644    
-807610.69      3.5860803      38.222243      25.901085      142.39156    
-807596.14      3.8851978      37.983595      25.880374      141.88873    
-807609.8       4.2169469      36.583926      25.91189       141.38636    
-807635.56      3.9866756      34.337951      25.924792      140.885      
-807657.54      3.3751591      34.738579      25.837464      140.38756    
-807651.32      4.5977682      36.526286      25.794957      139.89265    
-807648.34      3.1257414      34.7582        25.791634      139.3991     
-807641.62      3.8802675      33.944886      25.812083      138.90619    
-807630.27      3.8609906      34.445215      25.796301      138.41495    
-807598.62      3.6381986      36.857573      25.907329      137.92178    
-807597.99      3.2876621      37.655229      25.925037      137.42935    
-807618.02      2.8413857      33.845107      25.919049      136.9383     
-807645.76      3.0782215      32.241016      25.876081      136.44961    
-807646.33      3.7739971      34.851965      25.863835      135.96239    
-807653.6       3.1756131      33.956699      25.858655      135.47644    
-807654.71      3.0198174      33.840443      25.848231      134.99187    
-807646.61      3.052845       31.765712      25.861261      134.50804    
-807617.19      3.2546455      33.874357      25.915531      134.02385    
-807599.48      3.6547706      36.738745      25.927502      133.54043    
-807605.74      3.5690423      37.099976      25.891757      133.05899    
-807623.8       3.3231676      34.463064      25.9144        132.57801    
-807636.41      3.308038       33.181434      25.900117      132.0984     
-807648.85      3.3705854      34.595453      25.91895       131.61933    
-807659.49      2.5119228      34.257677      25.801001      131.14418    
-807652.54      2.9418666      33.795498      25.78237       130.67041    
-807635.93      3.4821826      32.489954      25.855554      130.19576    
-807615.48      3.389577       33.995408      25.872378      129.72162    
-807606.94      3.9481698      38.256567      25.856045      129.24878    
-807605.42      3.7465083      37.145231      25.81261       128.77787    
-807618.95      3.5901598      34.855862      25.86511       128.30658    
-807636.61      3.6596525      34.129107      25.910288      127.83511    
-807657.76      3.3741201      34.318591      25.839508      127.36615    
-807653.71      3.0405011      35.072743      25.764592      126.89975    
-807646.14      3.6115092      34.804959      25.859822      126.43196    
-807633.86      3.6652659      32.885836      25.902633      125.96402    
-807623.2       3.3174156      35.215743      25.866283      125.49771    
-807602.61      3.4301965      36.993267      25.894782      125.03157    
-807604.21      3.086898       36.448445      25.926483      124.56552    
-807621.28      3.1230041      33.825603      25.924249      124.1003     
-807646.05      3.2448561      33.834496      25.878354      123.63686    
-807650.83      3.1432922      34.416896      25.782013      123.17625    
-807648.45      3.1932167      34.908696      25.772704      122.71655    
-807645.02      3.4644941      34.298409      25.773288      122.25752    
-807640.42      2.8940735      32.819495      25.87675       121.79701    
-807617.23      3.5118327      34.450483      25.872037      121.33729    
-807598.69      3.2519357      37.553691      25.902942      120.87764    
-807606.65      3.7719768      36.923888      25.893044      120.41889    
-807628.82      3.1972351      33.948645      25.898426      119.96071    
-807642.56      3.4407032      34.108615      25.874145      119.5037     
-807646.04      3.3555349      35.212296      25.848357      119.04786    
-807653.21      3.8071656      34.592465      25.811536      118.5934     
-807650.05      3.3905464      33.667931      25.84426       118.13891    
-807634.19      3.2051574      32.916058      25.846196      117.685      
-807608.35      3.863418       35.739248      25.896941      117.23073    
-807603.87      3.4942732      37.520315      25.87228       116.77756    
-807610.38      3.0633625      36.202121      25.831531      116.32577    
-807628.26      3.5236083      33.659987      25.827785      115.87463    
-807636.54      3.571873       34.743147      25.821166      115.42419    
-807654.44      2.336776       33.095603      25.820729      114.97433    
-807654.29      3.0424724      33.420824      25.720698      114.52688    
-807647.43      3.7859129      32.434147      25.821092      114.07811    
-807625.39      3.7266366      32.926704      25.899962      113.62845    
-807616.41      3.3358123      34.882083      25.835899      113.1805     
-807606.95      3.8214647      35.915296      25.860472      112.73265    
-807610.86      3.8574604      36.029727      25.882447      112.28494    
-807624.67      4.3140449      33.880445      25.914888      111.8372     
-807646.59      2.9261968      32.729888      25.805288      111.3919     
-807653.21      3.7569167      34.730874      25.81909       110.94686    
-807651.13      3.1101229      34.070421      25.84733       110.50183    
-807641.33      4.0943696      33.436564      25.861009      110.05707    
-807631.58      3.0505851      33.032616      25.868872      109.61267    
-807617.79      3.3071725      35.338476      25.844629      109.16916    
-807605.94      3.4003334      35.710105      25.885344      108.72546    
-807612.7       3.3721137      34.34262       25.891073      108.28214    
-807633.55      2.781385       32.686346      25.878836      107.8395     
-807649.07      3.497925       32.904017      25.845436      107.39787    
-807650.3       3.1015255      33.757472      25.861868      106.95643    
-807648.59      3.1948371      33.717061      25.924343      106.51445    
-807645.09      3.2439911      32.119749      25.897489      106.07336    
-807631.78      2.6235887      33.010952      25.887207      105.63288    
-807609.72      3.104449       35.044574      25.889121      105.1928     
-807604.82      3.7301125      36.462082      25.890123      104.75316    
-807617.96      4.249549       34.217048      25.828857      104.31488    
-807635.13      2.9637723      33.436319      25.849556      103.8767     
-807642.94      3.6197841      33.692366      25.895695      103.43824    
-807650.28      3.0221804      33.841904      25.928385      102.9997     
-807652.7       2.9608583      33.424693      25.91252       102.56183    
-807643.41      2.8404424      33.14491       25.896725      102.1246     
-807621.93      3.4920972      33.386757      25.925159      101.68736    
-807607.76      2.9297242      35.40548       25.930268      101.25045    
-807607.83      3.1672226      36.036097      25.911624      100.8142     
-807619.5       4.2427061      35.178275      25.897798      100.37855    
-807628.42      3.3532907      33.134305      25.925986      99.94289     
-807644.18      3.5290566      33.539545      25.895128      99.508045    
-807655.27      3.230524       34.036824      25.881189      99.07377     
-807648.28      2.9943932      34.430964      25.840063      98.640431    
-807637.14      3.4753016      33.645987      25.90312       98.206584    
-807622.48      2.6751849      34.299825      25.925263      97.772802    
-807612.15      3.4535438      36.845863      25.891363      97.339842    
-807606.87      2.9646707      36.372604      25.870074      96.907519    
-807614.09      2.5238681      33.832274      25.874838      96.475478    
-807633.51      3.3365013      32.976861      25.89569       96.043507    
-807649.11      2.7341448      33.398343      25.862831      95.612306    
-807650.35      3.0401104      34.328494      25.870363      95.181341    
-807644.88      2.9693192      33.531461      25.900487      94.75032     
-807636.71      3.3686319      32.854571      25.880043      94.319891    
-807626.39      4.0279095      34.274823      25.905689      93.889464    
-807606.83      3.3862006      35.873866      25.914785      93.459251    
-807603.4       3.6736905      36.661402      25.896758      93.029585    
-807619.3       2.9292608      34.885024      25.878808      92.600458    
-807638.85      3.0893105      34.344732      25.870134      92.171747    
-807643.96      3.6095894      35.276798      25.839899      91.74371     
-807648.78      3.8194738      34.637991      25.900459      91.315239    
-807646.6       3.1210036      34.503906      25.894037      90.887151    
-807638.61      3.602773       33.651826      25.910259      90.459171    
-807620.22      2.8162872      34.367821      25.904278      90.031561    
-807604.18      3.1503379      35.625187      25.92308       89.604029    
-807609.14      3.0293948      35.351652      25.911877      89.176922    
-807623.99      2.6223531      32.791495      25.866886      88.750621    
-807637.47      3.7242097      32.694361      25.916478      88.324037    
-807643.3       3.8896533      34.440017      25.909622      87.897816    
-807652.55      3.5136347      34.677645      25.893452      87.472057    
-807647.71      3.329806       33.805496      25.941665      87.046041    
-807636.7       3.0445907      33.258501      25.912121      86.62063     
-807616.57      3.5323814      35.508009      25.933048      86.195264    
-807609.69      3.0008978      36.455348      25.90897       85.770433    
-807612.56      3.611806       35.589325      25.928371      85.345661    
-807624.32      3.0772562      33.977825      25.915751      84.92129     
-807635.41      3.59842        33.235974      25.869489      84.49767     
-807649.78      2.6092541      33.55545       25.84427       84.074567    
-807652.28      3.7647811      33.740141      25.830609      83.65185     
-807645.08      2.8398006      33.247648      25.872598      83.228941    
-807632.46      2.6593907      32.954856      25.928197      82.805712    
-807621.58      2.9844063      33.462998      25.917083      82.382845    
-807611.81      3.5474542      34.581218      25.874594      81.960653    
-807611.6       3.2367152      34.867474      25.909903      81.538347    
-807626.04      2.6260911      32.153132      25.924479      81.11614     
-807642.58      3.0457943      32.308433      25.979613      80.693637    
-807650.8       3.2223644      33.063413      25.945111      80.271716    
-807648.34      3.1241189      33.596716      25.936078      79.85012     
-807641.59      3.2227669      33.3545        25.949051      79.428638    
-807633.18      2.7663081      32.952961      25.924657      79.007622    
-807620.43      3.3264919      34.565107      25.92423       78.58684     
-807604.93      3.0478224      35.807672      25.915962      78.166362    
-807615.4       3.1151538      34.513765      25.918092      77.746088    
-807630.35      3.4608767      32.581142      25.924563      77.325978    
-807644.6       3.9191918      33.248256      25.854438      76.906724    
-807645.03      2.9967387      34.041812      25.911469      76.487166    
-807649.96      3.1012958      32.985957      25.949822      76.067482    
-807643.33      2.7681249      32.819661      25.963793      75.647893    
-807632.17      2.9320097      33.173771      25.923066      75.228879    
-807610.76      3.4885632      35.038119      25.929338      74.810021    
-807609.51      3.3175038      35.268769      25.914461      74.3915      
-807615.92      3.2917554      35.079277      25.87697       73.973504    
-807632.16      2.6685314      33.078714      25.909415      73.555431    
-807638.12      3.3077818      34.5493        25.878644      73.137818    
-807649.5       2.7466252      33.219767      25.909059      72.720145    
-807650.64      2.8372974      33.409051      25.893812      72.302796    
-807643.17      2.693427       32.937434      25.919448      71.88543     
-807625.46      3.286081       33.375794      25.911558      71.468322    
-807613.89      2.8151815      34.435518      25.860897      71.051814    
-807609.93      3.4042465      36.50915       25.852291      70.635557    
-807617.58      2.8955556      34.896523      25.864891      70.21938     
-807628.41      3.0441241      33.575929      25.942361      69.802779    
-807642.58      3.3483514      33.415084      25.96328       69.386205    
-807651.56      2.7777873      34.207455      25.918167      68.970167    
-807647.45      3.8095484      34.315133      25.920002      68.554297    
-807637.23      4.0052338      33.749528      25.923714      68.138581    
-807624.83      3.9044118      33.944461      25.924972      67.723035    
-807616.86      2.8439157      34.636778      25.878228      67.308014    
-807606.67      3.5110543      35.792422      25.911554      66.892919    
-807617.39      3.2521687      34.134557      25.925619      66.477895    
-807630.27      3.7930719      33.885868      25.922048      66.063071    
-807646.41      3.2723664      33.867862      25.929333      65.648367    
-807647.33      3.2965381      34.215888      25.919964      65.233901    
-807644.44      3.2305826      33.924758      25.920752      64.819598    
-807635.75      2.8653497      33.981271      25.893291      64.405652    
-807627.52      3.3459081      34.365734      25.912235      63.991739    
-807611.43      2.9274977      35.60508       25.903295      63.578049    
-807608.24      3.7807117      36.159661      25.93071       63.164336    
-807619.24      3.1094939      34.255649      25.926564      62.750812    
-807634.49      3.3655987      34.195779      25.9205        62.33749     
-807645.12      2.9060757      34.270402      25.916719      61.924351    
-807645.69      3.3503939      35.119703      25.881401      61.511599    
-807643.87      3.6633475      34.528378      25.885336      61.098972    
-807638.86      3.4225967      33.161803      25.850225      60.686721    
-807622.24      3.5458835      34.510446      25.883731      60.274402    
-807608.3       3.3115699      35.898665      25.889899      59.862192    
-807611.03      2.8962931      36.673903      25.972065      59.449621    
-807623         2.9948588      35.00799       25.937141      59.037418    
-807636.1       3.2802651      33.679867      25.900629      58.625588    
-807639.65      4.3839358      35.350641      25.901449      58.213897    
-807647.8       3.358647       34.239028      25.909426      57.802302    
-807643.47      3.6400436      34.780891      25.898975      57.390913    
-807635.36      3.1480593      33.603306      25.880919      56.97977     
-807616.22      3.5902798      35.379445      25.903206      56.568635    
-807615.41      3.1848278      35.33299       25.942216      56.157415    
-807612.99      3.250027       35.712483      25.915705      55.746488    
-807625.07      2.7779354      33.853698      25.918957      55.335681    
-807631.38      3.6412914      34.26837       25.947026      54.924856    
-807645.72      2.9566971      34.767311      25.902058      54.514417    
-807646.73      2.9586029      35.135459      25.925518      54.103983    
-807642.27      3.1892909      34.105972      25.921833      53.693704    
-807629.19      3.5332618      34.720326      25.937949      53.283472    
-807622.92      3.3173807      35.291705      25.943782      52.873343    
-807615.03      2.9120535      35.486736      25.916672      52.463489    
-807613.48      3.3759385      35.673747      25.907968      52.05381     
-807622.75      2.8957232      34.089378      25.928015      51.644156    
-807638.64      3.2243025      33.88284       25.870869      51.23492     
-807646.83      2.8108261      33.542858      25.872403      50.825797    
-807646.05      3.7073795      33.685691      25.914847      50.416585    
-807640.45      3.5152595      33.62947       25.900409      50.007567    
-807634.36      3.240668       33.306968      25.929997      49.598527    
-807623.92      3.0743552      34.418278      25.925494      49.189633    
-807611.02      3.2256737      34.888347      25.927494      48.780851    
-807615.23      2.4004789      34.350433      25.928625      48.372185    
-807626.65      3.0818114      34.463744      25.920012      47.963681    
-807640.59      3.3602173      33.62662       25.921458      47.555288    
-807642.48      3.8960378      34.990538      25.933744      47.146958    
-807644.84      3.6819115      34.924642      25.92694       46.738777    
-807643.24      2.9037486      33.578297      25.91223       46.330778    
-807634.44      3.2435392      33.244266      25.924518      45.922839    
-807616.67      3.3380104      34.397498      25.89964       45.515123    
-807613.48      4.5419847      35.31465       25.908545      45.10748     
-807618.32      3.2252939      34.709555      25.894633      44.700008    
-807629.58      3.5134266      34.150465      25.867729      44.292759    
-807635         3.4052061      34.013872      25.918802      43.885402    
-807644.76      3.1159488      33.751952      25.924874      43.478131    
-807648.26      3.367896       33.69637       25.859833      43.071233    
-807641.48      3.5201128      33.937131      25.889094      42.664321    
-807627.12      3.0707566      33.469963      25.922997      42.257379    
-807617.39      2.9749487      34.822578      25.93327       41.850503    
-807616.08      2.8138341      35.789548      25.912127      41.443816    
-807617.83      3.8953879      35.671157      25.896258      41.037295    
-807625.43      3.271439       34.981342      25.932049      40.63074     
-807637.72      3.304432       34.360063      25.917146      40.224346    
-807647.21      3.5147378      34.919712      25.868383      39.818233    
-807643.61      4.9034155      35.586564      25.818532      39.4124      
-807634.92      3.5191995      34.660696      25.82917       39.00662     
-807626.82      4.2756105      34.685323      25.92848       38.60058     
-807619.89      3.0566309      35.954155      25.955031      38.194548    
-807612.62      3.3101811      35.882505      25.913243      37.788762    
-807614.37      3.1706745      35.474685      25.970506      37.38288     
-807627.68      3.4366492      34.600823      25.988734      36.977039    
-807642.25      4.4243265      34.518435      25.981943      36.571323    
-807643         3.9478096      34.499806      25.928259      36.165883    
-807639.81      3.4469035      35.802801      25.912685      35.76059     
-807637.11      3.2820329      34.867891      25.957953      35.355247    
-807630.47      2.8804545      35.306376      25.979732      34.949934    
-807614.64      3.633869       36.200398      25.922992      34.544894    
-807611.92      2.9569331      36.353723      25.929011      34.139929    
-807619.44      3.354004       36.11101       25.967656      33.73494     
-807635.58      3.4840284      33.755287      25.936751      33.330139    
-807637.61      3.114297       34.268009      25.94405       32.925408    
-807643.03      3.4818987      33.817107      25.903562      32.520886    
-807642.5       2.8567994      34.112806      25.868088      32.116552    
-807637.93      3.5140918      34.407691      25.91351       31.712176    
-807624.22      4.1067953      35.714742      25.937089      31.307822    
-807615.13      2.9135367      35.417788      25.977701      30.903448    
-807615.16      3.1096459      36.551376      25.959182      30.499214    
-807623.81      3.1120454      35.805558      25.928029      30.095152    
-807630.96      4.3037528      35.185314      25.950971      29.691117    
-807637.67      3.2470997      35.209271      25.90479       29.287286    
-807645.55      4.2971155      35.037579      25.94633       28.883435    
-807642.18      2.8626616      34.975653      25.942146      28.47968     
-807634.8       3.5555175      34.316937      25.881069      28.076159    
-807620.98      3.0766855      34.341395      25.970633      27.672503    
-807618.79      3.2546808      35.146498      25.925626      27.269039    
-807617.67      3.2722048      35.206716      25.924809      26.865659    
-807621.41      3.1235505      34.158123      25.930081      26.462348    
-807631.5       2.6026607      32.677499      25.940064      26.059096    
-807643.78      3.0030845      33.852966      25.927104      25.655954    
-807645.44      2.8082503      34.056031      25.925593      25.252895    
-807640.7       3.253326       33.253326      25.934848      24.849895    
-807631.17      3.4444972      33.834643      25.929137      24.446987    
-807628.23      2.9078701      34.239103      25.956584      24.044102    
-807615.4       4.5738179      35.921012      25.943725      23.641322    
-807614.07      3.603871       35.631952      25.93583       23.238635    
-807622.86      4.5152225      34.916096      25.962674      22.835975    
-807637.82      3.7831298      33.317433      25.951169      22.433415    
-807641.72      2.8819668      34.170322      25.910031      22.031009    
-807640.87      3.1954847      34.294282      25.909792      21.628676    
-807639.14      3.8088433      33.271851      25.922349      21.226394    
-807633.97      3.2577425      33.449428      25.917948      20.824194    
-807624.29      3.1140724      33.408877      25.860987      20.422163    
-807613.22      3.346289       35.4534        25.934341      20.020079    
-807617.94      3.4946226      34.785196      25.914266      19.618101    
-807628.4       3.3267547      34.032665      25.883071      19.216243    
-807637.47      3.7549618      33.563815      25.905502      18.814419    
-807638.51      4.0016277      34.62121       25.922739      18.412638    
-807643.96      3.7627695      33.937351      25.921326      18.01093     
-807640.7       3.0993652      33.807359      25.953846      17.609245    
-807631.42      2.998904       33.458833      25.916309      17.207685    
-807617.49      3.386446       34.200922      25.919706      16.806188    
-807617.72      2.8923456      34.66878       25.922962      16.404756    
-807618.95      3.6005091      34.741265      25.952122      16.003353    
-807627.48      2.8197463      33.837123      25.931831      15.602046    
-807632.81      4.7977191      34.655477      25.915099      15.200828    
-807643.24      2.638878       34.062005      25.926525      14.799662    
-807643.92      3.8238153      34.325095      25.919236      14.398571    
-807639.07      3.2261534      33.297641      25.927685      13.997537    
-807626.21      4.1421044      34.64476       25.984332      13.596507    
-807622.78      3.387323       33.918219      25.90956       13.195624    
-807616.85      3.1888906      35.304446      25.927084      12.794788    
-807619.12      2.9823761      34.655512      25.954361      12.39399     
-807626.67      3.5983914      33.99901       25.963868      11.993248    
-807637.44      2.6222707      33.920479      25.979037      11.592559    
-807643         3.228484       33.742265      25.929441      11.19198     
-807639.59      4.1449462      34.948854      25.955208      10.791442    
-807637.1       2.6857419      33.324139      25.91024       10.391006    
-807628.37      3.2519098      34.15135       25.907535      9.9906327    
-807621.72      3.3389315      35.546262      25.919504      9.5903108    
-807615.34      2.9136256      34.868535      25.942671      9.1900331    
-807619.93      3.1790289      34.179026      25.982573      8.7897902    
-807629.78      2.9881015      33.720407      25.948453      8.3896337    
-807640.56      3.4151406      33.7218        25.918439      7.9895573    
-807638.32      3.4176843      34.66705       25.890366      7.5895567    
-807640.36      2.8383486      33.388051      25.908754      7.1896029    
-807635.16      3.3127615      34.357007      25.91062       6.789706     
-807629.77      2.7978076      33.789645      25.856894      6.3898934    
-807616.04      2.7445941      34.412482      25.916065      5.9901073    
-807617.62      2.6979464      34.387101      25.923587      5.5903753    
-807624.15      2.5521804      33.917005      25.983295      5.190677     
-807632.8       2.8350436      33.512613      25.926408      4.7910604    
-807635.4       3.8016113      33.12717       25.926858      4.3915004    
-807641.91      3.0374654      33.55951       25.930948      3.9919958    
-807640.8       3.2959216      34.201267      25.912571      3.5925527    
-807635.13      3.0486883      33.736885      25.907915      3.1931657    
-807621.75      2.9388961      34.001336      25.912158      2.7938322    
-807619.93      3.8383186      34.552352      25.977289      2.3945412    
-807619.91      3.5055         34.326146      26.004389      1.9953042    
-807624.76      3.0825529      33.855595      25.977572      1.5961295    
-807629.39      2.9881377      34.126931      25.91009       1.1970182    
-807639.8       2.6699082      33.527261      25.947038      0.79795747   
-807642.47      2.4314831      34.012459      25.892768      0.39895314   
-807640.64      2.8321376      33.310807      25.925319      0            
Loop time of 199.465 on 32 procs for 5000 steps with 1080 atoms

Performance: 4.332 ns/day, 5.541 hours/ns, 25.067 timesteps/s, 27.072 katom-step/s
67.5% CPU use with 32 MPI tasks x 1 OpenMP threads

MPI task timing breakdown:
Section |  min time  |  avg time  |  max time  |%varavg| %total
---------------------------------------------------------------
Pair    | 102.81     | 144.91     | 192.71     | 309.9 | 72.65
Neigh   | 0          | 0          | 0          |   0.0 |  0.00
Comm    | 4.0096     | 51.804     | 93.867     | 518.0 | 25.97
Output  | 0.040029   | 0.041211   | 0.042489   |   0.2 |  0.02
Modify  | 2.3165     | 2.3642     | 2.4072     |   1.8 |  1.19
Other   |            | 0.3458     |            |       |  0.17

Nlocal:          33.75 ave          48 max          21 min
Histogram: 8 8 0 0 0 0 0 8 0 8
Nghost:        1106.25 ave        1119 max        1092 min
Histogram: 8 0 8 0 0 0 0 0 8 8
Neighs:              0 ave           0 max           0 min
Histogram: 32 0 0 0 0 0 0 0 0 0
FullNghs:       5494.5 ave        7896 max        3378 min
Histogram: 8 8 0 0 0 0 0 8 0 8

Total # of neighbors = 175824
Ave neighs/atom = 162.8
Neighbor list builds = 0
Dangerous builds = 0

reset_timestep 0


variable interval equal 1000
thermo 10

variable nintervals equal $(v_PERIOD/v_interval)
variable nintervals equal 100
variable efield equal 1e-2*36.36*cos((step/${PERIOD})*2*3.14)
variable efield equal 1e-2*36.36*cos((step/100000)*2*3.14)
fix born all addbornforce 0.0 0.0 v_efield

variable Px equal f_born[1]+c_polarization[1]
variable Py equal f_born[2]+c_polarization[2]
variable Pz equal (f_born[3]+c_polarization[3])/vol
variable pe equal pe

fix aveP all ave/time 1 $(v_interval/2) ${interval} v_efield v_Pz v_pe f_born file Pz.${MODEL}.${STRUCTURE}.${TEMP}.$L.${ITER}
fix aveP all ave/time 1 500 ${interval} v_efield v_Pz v_pe f_born file Pz.${MODEL}.${STRUCTURE}.${TEMP}.$L.${ITER}
fix aveP all ave/time 1 500 1000 v_efield v_Pz v_pe f_born file Pz.${MODEL}.${STRUCTURE}.${TEMP}.$L.${ITER}
fix aveP all ave/time 1 500 1000 v_efield v_Pz v_pe f_born file Pz.BaTiO3-E0.${STRUCTURE}.${TEMP}.$L.${ITER}
fix aveP all ave/time 1 500 1000 v_efield v_Pz v_pe f_born file Pz.BaTiO3-E0.BaTiO3-sc333.${TEMP}.$L.${ITER}
fix aveP all ave/time 1 500 1000 v_efield v_Pz v_pe f_born file Pz.BaTiO3-E0.BaTiO3-sc333.310.$L.${ITER}
fix aveP all ave/time 1 500 1000 v_efield v_Pz v_pe f_born file Pz.BaTiO3-E0.BaTiO3-sc333.310.2.${ITER}
fix aveP all ave/time 1 500 1000 v_efield v_Pz v_pe f_born file Pz.BaTiO3-E0.BaTiO3-sc333.310.2.1

thermo_style custom step time temp press pe f_born v_efield v_Pz spcpu cpuremain

# dump 4a all custom 1000 dump.hyst.${MODEL}.${STRUCTURE}.${TEMP}.$L.${ITER}.bin id type xu yu zu fx fy fz
# dump_modify 4a sort id

fix nvt all nvt temp ${TEMP} ${TEMP} $(100*dt)
fix nvt all nvt temp 310 ${TEMP} $(100*dt)
fix nvt all nvt temp 310 310 $(100*dt)
fix nvt all nvt temp 310 310 0.2000000000000000111

run $(v_PERIOD)
run 100000
WARNING: non-constant efield is experimental, strongly distrust scalar/vector output (src/fix_addbornforce.cpp:193)
Per MPI rank memory allocation (min/avg/max) = 3.516 | 3.516 | 3.516 Mbytes
   Step          Time           Temp          Press          PotEng         f_born        v_efield         v_Pz          S/CPU         CPULeft    
         0   0              307.34814      126000.93     -807640.64     -292.70316      0.3636         0.055049205    0              0            
        10   0.02           303.79488      132389.63     -807630.29     -302.65988      0.36359993     0.056921796    30.447077      3284.0786    
        20   0.04           318.75786      139125.52     -807624.6      -310.388        0.36359971     0.058375271    30.449162      3283.6276    
        30   0.06           312.47731      141653.87     -807621.68     -312.50315      0.36359935     0.058773129    30.440397      3283.5739    
        40   0.08           317.77843      144256.59     -807619.77     -315.11828      0.36359885     0.059265044    30.451144      3283.0928    
        50   0.1            307.39849      138489.26     -807623.18     -310.40249      0.36359821     0.058378238    30.388222      3284.0321    
        60   0.12           314.76487      132975.12     -807632.31     -302.20218      0.36359742     0.056836107    30.395363      3284.42      
        70   0.14           311.80379      124133.64     -807642.56     -291.59975      0.36359649     0.054842215    30.401023      3284.5161    
        80   0.16           300.15316      125888.83     -807640.41     -292.00936      0.36359541     0.054919414    30.447808      3283.8741    
        90   0.18           292.78274      125992.86     -807637.62     -293.96959      0.36359419     0.055288268    30.406373      3283.7982    
       100   0.2            325.90256      133219.31     -807632.94     -303.17892      0.36359283     0.057020525    30.377453      3283.9844    
       110   0.22           322.01353      135900.09     -807627.75     -307.94099      0.36359132     0.057916393    30.37014       3284.1498    
       120   0.24           295.38254      144627.33     -807615.86     -316.01516      0.36358968     0.059435223    30.329868      3284.5962    
       130   0.26           311.37876      141254.01     -807620.27     -313.95737      0.36358788     0.059048491    30.365071      3284.6295    
       140   0.28           317.03947      139342.02     -807625.58     -309.30615      0.36358595     0.058174008    30.43958       3284.0362    
       150   0.3            315.3903       129898.64     -807635.51     -299.19449      0.36358387     0.056272537    30.43507       3283.5104    
       160   0.32           303.47903      127017.09     -807638.79     -294.13746      0.36358165     0.055321749    30.459052      3282.8482    
       170   0.34           295.8919       123210.87     -807641.22     -290.67971      0.36357928     0.054671767    30.44037       3282.3431    
       180   0.36           319.61114      127001.87     -807639.97     -295.18378      0.36357677     0.055519287    30.466162      3281.7036    
       190   0.38           319.82791      131942.42     -807633.14     -302.09334      0.36357412     0.056819278    30.421614      3281.3494    
       200   0.4            296.24567      140423.34     -807620.72     -311.16785      0.36357132     0.058526509    30.391587      3281.16      
       210   0.42           305.14754      142858.83     -807618.37     -314.78321      0.36356838     0.059206988    30.365999      3281.0887    
       220   0.44           318.48775      141956        -807621.16     -313.70018      0.3635653      0.059003783    30.42014       3280.7284    
       230   0.46           311.63091      136839.25     -807626.46     -307.38916      0.36356207     0.057817258    30.503307      3279.9819    
       240   0.48           316.23657      129848.33     -807634.86     -299.50843      0.3635587      0.056335484    30.477206      3279.3868    
       250   0.5            309.09219      125862.4      -807640.21     -293.00592      0.36355519     0.055112939    30.443438      3278.9585    
       260   0.52           301.15251      124580.43     -807640.89     -291.17386      0.36355153     0.054768888    30.451777      3278.5034    
       270   0.54           302.58364      129737.28     -807635.65     -296.51312      0.36354773     0.05577377     30.455203      3278.044     
       280   0.56           313.73415      133330.08     -807630.77     -302.9541       0.36354379     0.056985928    30.386724      3277.8576    
       290   0.58           316.82373      141629.35     -807621.89     -312.0387       0.3635397      0.058695408    30.415022      3277.556     
       300   0.6            318.41462      141724.56     -807620.21     -313.93671      0.36353547     0.059053117    30.474526      3277.0391    
       310   0.62           316.53449      142585.21     -807620.15     -313.51879      0.3635311      0.058975214    30.499096      3276.4496    
       320   0.64           321.64508      134741.96     -807628.72     -305.60336      0.36352658     0.057486976    30.513194      3275.829     
       330   0.66           318.50461      131393.21     -807633.71     -299.92901      0.36352192     0.056420299    30.492887      3275.2922    
       340   0.68           302.78667      124716.53     -807639.96     -291.47091      0.36351712     0.054829952    30.519627      3274.6834    
       350   0.7            298.76729      128212.2      -807637.66     -292.99667      0.36351217     0.055117721    30.432289      3274.3585    
       360   0.72           317.1488       126438.45     -807637.36     -295.92762      0.36350708     0.055669861    30.384396      3274.1767    
       370   0.74           321.73962      136648.68     -807627.52     -306.18089      0.36350185     0.057599535    30.437225      3273.8332    
       380   0.76           321.03943      138365.75     -807623.22     -310.47752      0.36349647     0.058408692    30.429773      3273.5116    
       390   0.78           320.0934       145435.51     -807618.04     -315.27521      0.36349095     0.059312159    30.475493      3273.0635    
       400   0.8            312.54559      139169.35     -807621.88     -310.4998       0.36348529     0.058414681    30.499382      3272.5577    
       410   0.82           329.20671      137231.37     -807627.79     -306.70682      0.36347948     0.057702025    30.508331      3272.0368    
       420   0.84           308.27319      127973.06     -807635.51     -296.16991      0.36347353     0.055720585    30.365316      3271.8915    
       430   0.86           314.50745      126661.5      -807639.12     -293.238        0.36346744     0.055169908    30.51387       3271.3664    
       440   0.88           306.652        125070.05     -807639.93     -291.4237       0.3634612      0.054829506    30.472535      3270.9505    
       450   0.9            320.12701      131420.85     -807634.39     -298.80101      0.36345482     0.056218487    30.467205      3270.5515    
       460   0.92           321.51009      135315.84     -807628.37     -305.16782      0.3634483      0.057417412    30.515932      3270.0421    
       470   0.94           316.54318      142212.69     -807620.21     -312.64898      0.36344163     0.058826073    30.484518      3269.6119    
       480   0.96           317.843        142677.18     -807619.57     -313.60045      0.36343482     0.059006202    30.51655       3269.1146    
       490   0.98           317.48977      140566.89     -807622.07     -311.10158      0.36342786     0.058537142    30.496725      3268.6675    
       500   1              321.01625      134739.26     -807629.72     -304.10641      0.36342077     0.057222042    30.479574      3268.2618    
       510   1.02           313.60734      129099.02     -807636.24     -9493.8899      0.36341353     0.055826531    30.371809      3268.0865    
       520   1.04           307.94886      127100.78     -807639.7      -9361.4999      0.36340614     0.055049162    30.290497      3268.0741    
       530   1.06           310.95602      125416.71     -807640.34     -9362.5187      0.36339862     0.055056293    30.258433      3268.1155    
       540   1.08           315.70721      131767.42     -807634.03     -9591.9956      0.36339095     0.056406923    30.273372      3268.1129    
       550   1.1            308.79517      134271.01     -807628.26     -9757.5704      0.36338313     0.05738184     30.316934      3268.0127    
       560   1.12           318.89975      142606.04     -807621.17     -10033.988      0.36337518     0.059008673    30.334064      3267.8713    
       570   1.14           305.45502      140475.78     -807621.46     -9977.0148      0.36336707     0.05867493     30.369232      3267.6566    
       580   1.16           307.79225      141495.58     -807622.19     -9964.3043      0.36335883     0.05860151     30.382017      3267.4142    
       590   1.18           312.75811      131730.22     -807632.87     -9658.529       0.36335044     0.056804512    30.342517      3267.241     
       600   1.2            311.12341      131016        -807635.97     -9552.7098      0.36334191     0.056183478    30.364279      3267.0236    
       610   1.22           288.58679      123886.76     -807639.95     -9335.0788      0.36333324     0.05490481     30.381843      3266.7715    
       620   1.24           300.05367      128896.77     -807637.83     -9454.1678      0.36332442     0.055606589    30.357326      3266.5593    
       630   1.26           304.75374      128601.25     -807635.54     -9560.2262      0.36331546     0.056231779    30.410939      3266.252     
       640   1.28           297.9405       138600.88     -807624.82     -9871.7619      0.36330636     0.058065639    30.420896      3265.9272    
       650   1.3            317.7099       137591.98     -807626.24     -9923.3579      0.36329711     0.058370612    30.403959      3265.6304    
       660   1.32           297.11973      143083.77     -807619.93     -10029.838      0.36328772     0.058998469    30.342742      3265.4324    
       670   1.34           315.75384      136060.03     -807628.25     -9853.0878      0.36327819     0.057960292    30.317018      3265.2719    
       680   1.36           300.70488      135455.95     -807630.14     -9722.1803      0.36326851     0.057191759    30.288306      3265.1522    
       690   1.38           302.29537      126704.11     -807639.28     -9439.413       0.36325869     0.055529851    30.333601      3264.9553    
       700   1.4            302.61331      127208.29     -807639.72     -9423.4021      0.36324873     0.055437183    30.340556      3264.744     
       710   1.42           279.47501      128282.62     -807635.62     -9453.5957      0.36323863     0.055616357    30.333608      3264.5399    
       720   1.44           311.92938      132155.09     -807634.56     -9629.7606      0.36322838     0.05665435     30.363706      3264.2873    
       730   1.46           306.09261      136102.84     -807627.5      -9827.2383      0.36321798     0.057817816    30.369554      3264.0239    
       740   1.48           308.21731      139907.47     -807623.49     -9963.1264      0.36320745     0.058619004    30.350377      3263.7867    
       750   1.5            310.94508      140514.57     -807623.1      -9982.9698      0.36319677     0.058737482    30.412251      3263.4582    
       760   1.52           310.38566      136486.14     -807628.05     -9819.1337      0.36318595     0.057775229    30.363429      3263.1989    
       770   1.54           307.70121      132947.59     -807631.96     -9677.2649      0.36317498     0.056942201    30.361086      3262.9409    
       780   1.56           305.51053      127575.2      -807638.24     -9461.5268      0.36316387     0.055674474    30.340711      3262.7093    
       790   1.58           295.60531      128238.96     -807637.85     -9421.7506      0.36315262     0.055442137    30.319759      3262.5038    
       800   1.6            301.97857      127358.19     -807638.55     -9425.1104      0.36314122     0.055463648    30.288011      3262.3381    
       810   1.62           309.55305      134126.46     -807632.36     -9649.3236      0.36312968     0.056784873    30.322045      3262.1229    
       820   1.64           313.15063      135004.11     -807627.61     -9815.5213      0.363118       0.057764781    30.346665      3261.8725    
       830   1.66           313.07768      142312.25     -807621.66     -9995.9102      0.36310618     0.058828293    30.298458      3261.683     
       840   1.68           296.16979      139299.58     -807621.83     -9913.4276      0.36309421     0.058344786    30.276496      3261.5182    
       850   1.7            315.46413      139243.94     -807624.74     -9897.0401      0.3630821      0.058250282    30.328294      3261.2839    
       860   1.72           306.53013      131081.58     -807632        -9623.315       0.36306984     0.05664115     30.303665      3261.0782    
       870   1.74           314.91076      130419.69     -807636.63     -9500.2234      0.36305745     0.055918564    30.371087      3260.7861    
       880   1.76           304.53516      124746.08     -807640.35     -9333.9685      0.3630449      0.054941881    30.335799      3260.5364    
       890   1.78           310.24079      130082.46     -807635.45     -9508.4936      0.36303222     0.055971131    30.338698      3260.2813    
       900   1.8            323.6128       130327.58     -807634.25     -9607.7921      0.36301939     0.056557644    30.397949      3259.9539    
       910   1.82           310.49412      139575.98     -807624.66     -9851.4558      0.36300642     0.057994077    30.383642      3259.6433    
       920   1.84           312.30501      138720.97     -807623.07     -9912.8997      0.36299331     0.058357897    30.427083      3259.2816    
       930   1.86           302.41277      142582.09     -807619.05     -9990.4965      0.36298005     0.058816862    30.373722      3258.9823    
       940   1.88           314.90434      135367.55     -807627.18     -9789.5719      0.36296665     0.057636091    30.369515      3258.687     
       950   1.9            324.1427       133338.98     -807632.47     -9656.5755      0.36295311     0.056855196    30.374573      3258.3854    
       960   1.92           309.59783      127537.84     -807637.32     -9437.758       0.36293942     0.055568955    30.350068      3258.1105    
       970   1.94           300.17371      128729.96     -807635.98     -9434.5395      0.36292559     0.055552122    30.332515      3257.854     
       980   1.96           312.5499       128076.7      -807636.78     -9466.5999      0.36291162     0.055743045    30.296599      3257.6356    
       990   1.98           322.90807      133784.78     -807632.51     -9648.9151      0.3628975      0.056818798    30.357372      3257.3488    
      1000   2              321.84583      136976.24     -807626.58     -9837.653       0.36288325     0.05793248     30.319849      3257.1014    
      1010   2.02           302.12912      141423.39     -807619.72     -311.47932      0.36286884     0.058698506    30.442803      3256.7219    
      1020   2.04           308.96779      139785.61     -807621.75     -310.41049      0.3628543      0.058499429    30.377292      3256.4122    
      1030   2.06           319.68546      137029.52     -807628.31     -305.37939      0.36283961     0.057553607    30.375275      3256.1041    
      1040   2.08           308.63311      132408.95     -807630.77     -301.37864      0.36282478     0.056801924    30.416469      3255.7533    
      1050   2.1            302.76193      128761.83     -807635.4      -295.96795      0.3628098      0.055784453    30.508506      3255.3094    
      1060   2.12           304.89994      128265.71     -807637.45     -294.17113      0.36279469     0.055448097    30.473327      3254.9029    
      1070   2.14           316.44387      129067.68     -807637.05     -296.28938      0.36277943     0.055849714    30.445548      3254.5257    
      1080   2.16           308.02884      134883.95     -807629.17     -303.10926      0.36276402     0.057137668    30.488413      3254.1071    
      1090   2.18           310.02966      136926.72     -807624.91     -307.69887      0.36274848     0.058005319    30.428771      3253.7484    
      1100   2.2            316.94455      141003.42     -807623.18     -310.33395      0.36273279     0.058504597    30.369979      3253.4475    
      1110   2.22           308.61529      138887.13     -807624.07     -308.50182      0.36271695     0.05816174     30.373072      3253.1431    
      1120   2.24           314.54172      137914.47     -807625.84     -307.47148      0.36270098     0.057970043    30.452308      3252.7626    
      1130   2.26           304.30024      129853.43     -807632.64     -299.44107      0.36268486     0.056458515    30.441522      3252.3932    
      1140   2.28           312.17462      129204.07     -807636.92     -296.13801      0.3626686      0.055838239    30.460484      3252.0069    
      1150   2.3            292.56103      125712.5      -807637.66     -292.86825      0.36265219     0.055224208    30.426844      3251.6526    
      1160   2.32           313.02904      131669.19     -807634.34     -298.98783      0.36263564     0.05638071     30.430251      3251.2958    
      1170   2.34           313.16904      131910.24     -807631.09     -302.51276      0.36261895     0.057048038    30.446383      3250.9247    
      1180   2.36           314.21377      139583.58     -807624.91     -308.78469      0.36260212     0.058233506    30.461813      3250.5404    
      1190   2.38           302.72049      137912.83     -807623.91     -308.32746      0.36258514     0.058149999    30.44169       3250.1749    
      1200   2.4            318.86961      139744.55     -807624.68     -309.73367      0.36256802     0.058417968    30.411114      3249.8375    
      1210   2.42           309.22163      133987.09     -807628.72     -304.60183      0.36255076     0.057452801    30.445173      3249.47      
      1220   2.44           309.92199      132683.26     -807633.21     -300.1406       0.36253335     0.056614059    30.466914      3249.0843    
      1230   2.46           302.15584      126630.99     -807638.89     -293.52811      0.3625158      0.055369457    30.445457      3248.718     
      1240   2.48           289.90903      130384.46     -807634.84     -295.8754       0.36249811     0.055814961    30.445425      3248.3523    
      1250   2.5            314.73645      128884.33     -807636.45     -297.90476      0.36248028     0.056200551    30.49014       3247.9493    
      1260   2.52           305.17764      134875.92     -807629.43     -303.58439      0.3624623      0.057274869    30.444299      3247.5861    
      1270   2.54           309.68751      137124.13     -807627.86     -305.93855      0.36244418     0.057721896    30.456687      3247.213     
      1280   2.56           305.83874      140451.8      -807622.93     -310.25948      0.36242592     0.058540082    30.435329      3246.8585    
      1290   2.58           308.80365      137666.43     -807625.18     -308.60541      0.36240751     0.058230949    30.485557      3246.4629    
      1300   2.6            308.04169      135990.28     -807629.54     -304.19299      0.36238896     0.057401305    30.478367      3246.0742    
      1310   2.62           299.78585      130425.22     -807634.41     -298.22808      0.36237027     0.056278627    30.457115      3245.7037    
      1320   2.64           297.17851      128370.56     -807636.47     -295.78753      0.36235143     0.055820972    30.422958      3245.3614    
      1330   2.66           294.76413      127635.44     -807636.3      -295.74078      0.36233245     0.055815073    30.434262      3245.0103    
      1340   2.68           301.36545      131383.68     -807635.05     -297.99921      0.36231333     0.056244273    30.413168      3244.6762    
      1350   2.7            302.88428      134619.17     -807630.11     -303.15692      0.36229407     0.057220781    30.406064      3244.3479    
      1360   2.72           302.86464      138421.41     -807624.62     -308.65355      0.36227466     0.05826139     30.433951      3243.9977    
      1370   2.74           309.26817      139535.64     -807623.87     -310.27508      0.36225511     0.05857063     30.448287      3243.6366    
      1380   2.76           305.92154      138525.54     -807626.33     -307.28719      0.36223542     0.058009759    30.442667      3243.2804    
      1390   2.78           306.3394       133881.19     -807631.32     -302.28493      0.36221558     0.057068556    30.447212      3242.9211    
      1400   2.8            304.18299      130054.7      -807635.48     -297.7807       0.3621956      0.0562213      30.440085      3242.5676    
      1410   2.82           300.48441      128194.03     -807637.24     -295.39805      0.36217548     0.055774552    30.388252      3242.2537    
      1420   2.84           302.63827      127957.24     -807638.21     -294.62493      0.36215522     0.055631691    30.425609      3241.9115    
      1430   2.86           309.53301      131004.58     -807634.43     -299.22306      0.36213481     0.056503103    30.415623      3241.577     
      1440   2.88           303.32728      135661.9      -807627.44     -305.29095      0.36211426     0.057652191    30.411379      3241.2457    
      1450   2.9            307.70142      139597.62     -807623.82     -309.23248      0.36209357     0.05839986     30.440545      3240.8929    
      1460   2.92           301.90257      138968.44     -807624.04     -307.98343      0.36207273     0.05816732     30.442544      3240.5391    
      1470   2.94           304.88966      137673.21     -807626.44     -305.71601      0.36205176     0.057742429    30.41468       3240.2058    
      1480   2.96           310.98837      133392.33     -807629.71     -303.10463      0.36203064     0.05725254     30.388188      3239.8916    
      1490   2.98           302.89184      130798.82     -807633.51     -297.7984       0.36200937     0.056253567    30.451104      3239.5323    
      1500   3              308.7859       127412.35     -807638.34     -293.51251      0.36198796     0.055447248    30.446687      3239.1765    
      1510   3.02           310.06457      128998.15     -807636.53     -9446.2865      0.36196642     0.055768681    30.34927       3238.8898    
      1520   3.04           312.54198      132162.15     -807631.33     -9619.9367      0.36194472     0.056797275    30.397356      3238.5688    
      1530   3.06           319.9412       136839.57     -807627.25     -9774.3609      0.36192289     0.057712496    30.404876      3238.2425    
      1540   3.08           308.96211      138041.77     -807625.13     -9785.7457      0.36190091     0.057783227    30.387788      3237.928     
      1550   3.1            311.66288      139319.23     -807623.3      -9848.5099      0.36187879     0.058157393    30.369586      3237.6258    
      1560   3.12           318.45986      137095.38     -807625.41     -9808.011       0.36185653     0.057921803    30.415571      3237.2918    
      1570   3.14           313.70285      134570.03     -807627.99     -9697.8008      0.36183412     0.057274496    30.344343      3237.0063    
      1580   3.16           322.64642      129490.41     -807636.55     -9457.6756      0.36181157     0.055859816    30.27519       3236.7671    
      1590   3.18           307.78001      128752.35     -807635.7      -9413.841       0.36178888     0.055604403    30.240871      3236.55      
      1600   3.2            323.73767      129071.02     -807634.42     -9524.9773      0.36176605     0.056264399    30.314245      3236.2822    
      1610   3.22           319.42476      132876.57     -807630.88     -9617.4628      0.36174307     0.056814323    30.36473       3235.9801    
      1620   3.24           307.16453      136300.77     -807626.31     -9705.1031      0.36171995     0.057335714    30.349972      3235.6875    
      1630   3.26           317.62236      138660.9      -807625.19     -9788.399       0.36169669     0.057831528    30.341154      3235.4001    
      1640   3.28           312.22867      140117.89     -807620.71     -9905.7998      0.36167329     0.058528939    30.395329      3235.077     
      1650   3.3            317.55604      136099.05     -807625.49     -9776.5026      0.36164974     0.057768741    30.188581      3234.8881    
      1660   3.32           323.80219      133861.23     -807631.97     -9594.7789      0.36162605     0.056698661    29.743683      3234.9911    
      1670   3.34           318.27976      129992.78     -807635.07     -9475.2929      0.36160222     0.05599627     29.774157      3235.0685    
      1680   3.36           314.04899      129876.11     -807633.5      -9507.5166      0.36157824     0.056190428    29.77412       3235.141     
      1690   3.38           311.89359      129113.45     -807634.17     -9481.8275      0.36155413     0.056042341    29.840734      3235.1651    
      1700   3.4            314.57546      133637.54     -807632.13     -9558.6298      0.36152987     0.056500072    29.759744      3235.2377    
      1710   3.42           315.83362      134837.43     -807627.98     -9705.4895      0.36150546     0.057372017    29.807598      3235.2745    
      1720   3.44           311.97925      138905.25     -807621.49     -9899.1186      0.36148092     0.058520589    29.89389       3235.2517    
      1730   3.46           315.56775      138010.52     -807624.51     -9822.4949      0.36145623     0.058071579    29.862461      3235.2452    
      1740   3.48           311.952        137974.04     -807627.73     -9706.5474      0.3614314      0.057390028    29.832999      3235.2536    
      1750   3.5            316.7533       132815.05     -807632.22     -9593.6861      0.36140643     0.056726654    29.859142      3235.2417    
      1760   3.52           309.24439      130977.69     -807632.5      -9556.13        0.36138131     0.056508516    29.813873      3235.2544    
      1770   3.54           307.74917      128968.34     -807636.69     -9423.0089      0.36135605     0.055725222    29.809137      3235.2662    
      1780   3.56           306.97175      130462.08     -807636.29     -9437.4008      0.36133065     0.055814255    29.752657      3235.3092    
      1790   3.58           314.06619      132695.36     -807632.52     -9599.0124      0.36130511     0.056774064    29.796922      3235.3206    
      1800   3.6            309.18614      136246.66     -807626.13     -9789.4283      0.36127942     0.05790441     29.73611       3235.3656    
      1810   3.62           315.95341      137407.06     -807627.17     -9794.0381      0.3612536      0.057935819    29.710626      3235.4219    
      1820   3.64           301.71674      137176.87     -807626.99     -9743.3823      0.36122763     0.057640312    29.657161      3235.5067    
      1830   3.66           307.02965      135912.32     -807628.62     -9722.4715      0.36120151     0.057520765    29.719753      3235.5489    
      1840   3.68           305.80358      132104.83     -807631.68     -9626.3424      0.36117526     0.05695618     29.649564      3235.6293    
      1850   3.7            300.86705      130497.51     -807635.81     -9473.5896      0.36114886     0.056056485    29.624823      3235.7203    
      1860   3.72           303.56565      128038.73     -807638.69     -9396.163       0.36112232     0.055602427    29.669101      3235.78      
      1870   3.74           294.11808      130716.88     -807633.22     -9532.0675      0.36109564     0.056410819    29.768722      3235.7763    
      1880   3.76           304.51485      133025.67     -807630.98     -9651.9337      0.36106881     0.057124431    30.339978      3235.4389    
      1890   3.78           312.48885      135686.62     -807629.4      -9736.9049      0.36104184     0.057631633    30.319804      3235.113     
      1900   3.8            302.79494      137142.63     -807627.64     -9749.8874      0.36101474     0.057712809    30.322321      3234.7857    
      1910   3.82           308.39267      137617.78     -807627.28     -9782.6156      0.36098748     0.057910909    30.390052      3234.4206    
      1920   3.84           316.22981      133603.91     -807630.49     -9715.5738      0.36096009     0.057518401    30.384441      3234.059     
      1930   3.86           308.76404      132003.75     -807634.24     -9557.701       0.36093255     0.056588076    30.349734      3233.7168    
      1940   3.88           296.24674      128557.16     -807637.65     -9390.9269      0.36090487     0.055604924    30.359386      3233.3695    
      1950   3.9            287.9526       130279.71     -807634.27     -9458.6703      0.36087705     0.05601036     30.41667       3232.9911    
      1960   3.92           305.87842      129865        -807634.61     -9526.9335      0.36084909     0.056418958    30.414286      3232.6146    
      1970   3.94           308.52983      134162.7      -807630.8      -9653.9821      0.36082098     0.057175799    30.417116      3232.237     
      1980   3.96           298.41862      134956.5      -807629.1      -9661.9945      0.36079273     0.057227733    30.385886      3231.8766    
      1990   3.98           313.50714      138094.73     -807625.96     -9824.8134      0.36076434     0.058196685    30.417044      3231.5       
      2000   4              308.87157      135913.29     -807626.24     -9794.3901      0.36073581     0.058021063    30.4126        3231.1262    
      2010   4.02           317.76419      134608.05     -807631.2      -302.0987       0.36070713     0.057271906    30.449167      3230.7335    
      2020   4.04           297.41555      129497.74     -807634.98     -295.37811      0.36067831     0.056002292    30.399756      3230.3674    
      2030   4.06           302.19558      130269.2      -807635.31     -295.56518      0.36064935     0.056042258    30.464029      3229.9682    
      2040   4.08           303.19421      129354.85     -807635.23     -295.72759      0.36062025     0.056077579    30.49014       3229.5562    
      2050   4.1            312.72452      131198.94     -807635.56     -296.43852      0.36059101     0.056216948    30.488166      3229.146     
      2060   4.12           312.19208      132967.14     -807632.94     -298.88842      0.36056162     0.05668617     30.494614      3228.7333    
      2070   4.14           316.42911      136415.47     -807627.58     -304.66738      0.36053209     0.057786919    30.472347      3228.3328    
      2080   4.16           309.78862      137609.5      -807623.99     -307.16597      0.36050242     0.058265628    30.439133      3227.9498    
      2090   4.18           308.37905      137310.8      -807627.3      -303.48998      0.36047261     0.057573099    30.425479      3227.5742    
      2100   4.2            309.88376      133743.16     -807631.5      -299.35836      0.36044265     0.056794035    30.443327      3227.1902    
      2110   4.22           298.95495      132197.9      -807631.12     -298.00943      0.36041256     0.056542839    30.496095      3226.7802    
      2120   4.24           308.29466      129028.69     -807634.63     -295.63185      0.36038232     0.056096436    30.476135      3226.381     
      2130   4.26           320.05156      129067.96     -807637.7      -293.96896      0.36035193     0.055785603    30.454018      3225.9933    
      2140   4.28           307.17562      131523.83     -807633.5      -296.24957      0.36032141     0.05622315     30.480735      3225.5931    
      2150   4.3            314.13855      134893.41     -807627.99     -302.58352      0.36029075     0.057430114    30.501136      3225.1836    
      2160   4.32           318.45425      136905.53     -807626.08     -304.99964      0.36025994     0.057893643    30.466576      3224.7916    
      2170   4.34           319.46448      137830.6      -807626.06     -304.98916      0.36022899     0.057896628    30.45749       3224.4047    
      2180   4.36           306.50419      137103.29     -807626.18     -302.95564      0.36019789     0.057515565    30.452217      3224.0208    
      2190   4.38           310.93702      134039.1      -807627.89     -301.72732      0.36016666     0.057287338    30.441696      3223.6425    
      2200   4.4            325.16388      130621.56     -807634.56     -296.90294      0.36013528     0.05637627     30.407691      3223.281     
      2210   4.42           309.6256       129341.5      -807635.47     -293.69948      0.36010377     0.055772874    30.399511      3222.9237    
      2220   4.44           301.88166      130719.37     -807633.65     -294.41742      0.36007211     0.055914126    30.461274      3222.5373    
      2230   4.46           316.73837      132304.15     -807631.99     -298.09287      0.3600403      0.056617147    30.497524      3222.1343    
      2240   4.48           316.29154      135668.03     -807627.97     -301.95522      0.36000836     0.057355817    30.499674      3221.731     
      2250   4.5            317.10149      135551.5      -807627.89     -302.10409      0.35997627     0.05738921     30.413962      3221.3685    
      2260   4.52           316.97474      138299.14     -807624.65     -305.14481      0.35994404     0.05797203     30.417917      3221.0044    
      2270   4.54           322.56031      134061.1      -807628.07     -302.55865      0.35991167     0.057485876    30.457263      3220.6224    
      2280   4.56           319.25669      134759.18     -807629.3      -300.70298      0.35987916     0.057138463    30.46644       3220.2366    
      2290   4.58           308.33341      129977.45     -807633.9      -294.68138      0.35984651     0.055999342    30.491003      3219.84      
      2300   4.6            314.94802      131623.14     -807633.81     -295.54721      0.35981371     0.056168997    30.402035      3219.4847    
      2310   4.62           311.02624      129814.45     -807633.99     -294.97744      0.35978077     0.056065844    30.445023      3219.1101    
      2320   4.64           305.22504      134489.63     -807629.22     -298.91604      0.35974769     0.056819671    30.452256      3218.7326    
      2330   4.66           314.33942      133617.45     -807630.06     -299.4701       0.35971447     0.056930247    30.451323      3218.3559    
      2340   4.68           312.79887      138172.89     -807625.83     -303.55433      0.35968111     0.057712026    30.45797       3217.9766    
      2350   4.7            305.39574      137483.54     -807624.72     -303.84294      0.3596476      0.057772278    30.424904      3217.6126    
      2360   4.72           312.19563      136916.68     -807627.65     -301.98928      0.35961396     0.057425199    30.447451      3217.2389    
      2370   4.74           310.90241      133180.58     -807631.64     -298.06261      0.35958017     0.056683844    30.430077      3216.8732    
      2380   4.76           318.83248      130974.84     -807634.84     -296.20791      0.35954624     0.056336443    30.446648      3216.5005    
      2390   4.78           304.46057      130611.37     -807633.95     -295.4098       0.35951216     0.056189973    30.458287      3216.1231    
      2400   4.8            305.47671      130014.65     -807634.65     -295.17987      0.35947795     0.056151582    30.468521      3215.7416    
      2410   4.82           313.41605      132657.98     -807633.73     -297.4088       0.35944359     0.056580995    30.502111      3215.3459    
      2420   4.84           305.1787       133731.49     -807629.88     -300.54304      0.35940909     0.057182763    30.515633      3214.9449    
      2430   4.86           300.63777      137684.25     -807625.78     -304.16709      0.35937446     0.057877869    30.514839      3214.5448    
      2440   4.88           300.70107      135496.23     -807628.19     -302.00077      0.35933967     0.057471218    30.474059      3214.1628    
      2450   4.9            304.65432      136194.67     -807629.41     -301.37498      0.35930475     0.057357702    30.463497      3213.7859    
      2460   4.92           291.20649      130769.33     -807631.5      -297.6414       0.35926969     0.056652657    30.46165       3213.4101    
      2470   4.94           302.73774      132000.25     -807633.57     -297.17259      0.35923448     0.056568967    30.427147      3213.0494    
      2480   4.96           296.83407      129049.32     -807636.55     -293.46824      0.35919913     0.055869315    30.387865      3212.7057    
      2490   4.98           298.12037      131860.1      -807634.08     -296.08816      0.35916364     0.056373655    30.384377      3212.3635    
      2500   5              302.87132      131421.4      -807633.42     -297.49362      0.35912801     0.056646867    30.385931      3212.0208    
[...]
     98740   197.48         308.06614      131725.34     -807633.47     -9584.3275      0.36236891     0.056520794    29.676626      42.728475    
     98750   197.5          308.18894      132838.35     -807631.63     -9635.256       0.36238762     0.056818197    29.723095      42.389326    
     98760   197.52         310.82047      133728.98     -807630.1      -9685.4199      0.36240618     0.057111084    29.67363       42.050185    
     98770   197.54         306.2808       135363.96     -807627.89     -9728.2976      0.36242459     0.057361002    29.673108      41.711044    
     98780   197.56         318.27192      135821.85     -807629.8      -9711.7813      0.36244287     0.057260729    29.76041       41.371892    
     98790   197.58         316.12582      135283.34     -807628.1      -9748.3193      0.362461       0.057473283    29.802464      41.032734    
     98800   197.6          309.04451      135200.99     -807627.38     -9734.5417      0.36247899     0.057389206    29.80177       40.693578    
     98810   197.62         308.65469      133515.61     -807629.92     -9646.24        0.36249683     0.05686583     29.794749      40.354423    
     98820   197.64         306.13849      132796.75     -807630.57     -9605.7945      0.36251453     0.056624634    29.778223      40.01527     
     98830   197.66         311.78095      131881.95     -807631.88     -9586.4087      0.36253209     0.056507621    29.801174      39.676116    
     98840   197.68         312.077        134111.43     -807628.88     -9677.2326      0.36254951     0.057040247    29.73536       39.336971    
     98850   197.7          323.67722      132727.4      -807631.67     -9638.6461      0.36256678     0.056810101    29.685393      38.997833    
     98860   197.72         314.43407      137260.16     -807628.01     -9709.597       0.36258391     0.057225581    29.620102      38.658704    
     98870   197.74         318.55684      134199.29     -807628.55     -9712.3874      0.3626009      0.057239345    29.715594      38.319563    
     98880   197.76         321.27817      136019.5      -807626.78     -9776.6607      0.36261774     0.05761546     29.692824      37.980425    
     98890   197.78         316.1786       132541.19     -807630.41     -9640.6969      0.36263445     0.056811586    29.701281      37.641287    
     98900   197.8          314.19739      134982.06     -807629.33     -9663.5101      0.362651       0.056943422    29.70928       37.302148    
     98910   197.82         305.28631      132108.41     -807629.92     -9608.6884      0.36266742     0.056617815    29.692122      36.963012    
     98920   197.84         326.99835      134676.03     -807630.59     -9681.615       0.36268369     0.057044965    29.678994      36.623879    
     98930   197.86         312.99008      132355.08     -807630.3      -9634.5477      0.36269982     0.056765116    29.624704      36.284752    
     98940   197.88         320.47079      136457.57     -807628.53     -9722.7203      0.36271581     0.057282089    29.66498       35.94562     
     98950   197.9          309.83104      134500.78     -807628.11     -9696.0921      0.36273165     0.057122712    29.711728      35.606484    
     98960   197.92         322.82521      136903.83     -807627.31     -9781.7324      0.36274735     0.057624752    29.74242       35.267344    
     98970   197.94         310.51798      134222.27     -807628.87     -9685.0361      0.36276291     0.057052662    29.712467      34.928208    
     98980   197.96         309.94752      135686.15     -807628.44     -9696.5419      0.36277832     0.057118013    29.749243      34.589069    
     98990   197.98         313.85157      132693.79     -807631.29     -9631.4173      0.36279359     0.056732005    29.733137      34.249932    
     99000   198            318.35796      133461.6      -807631.03     -9665.266       0.36280872     0.056929011    29.747766      33.910794    
     99010   198.02         308.55964      133292.38     -807630.93     -301.06003      0.3628237      0.056742043    29.780174      33.571653    
     99020   198.04         314.32558      133589.45     -807631.5      -301.46021      0.36283855     0.056815142    29.743032      33.232517    
     99030   198.06         308.69476      133755.81     -807629.19     -303.29995      0.36285324     0.057159556    29.774167      32.893378    
     99040   198.08         314.06546      133661.8      -807629.17     -304.37905      0.3628678      0.05736062     29.791309      32.554237    
     99050   198.1          311.75992      135522.2      -807628.04     -305.41857      0.36288221     0.057554234    29.804108      32.215096    
     99060   198.12         306.14016      133825.01     -807630.34     -302.65497      0.36289648     0.057031207    29.778229      31.875959    
     99070   198.14         306.3165       135473.35     -807629.18     -304.00341      0.36291061     0.057283073    29.849796      31.536814    
     99080   198.16         302.36193      132535.98     -807631        -301.94437      0.36292459     0.056892899    29.805157      31.197676    
     99090   198.18         310.33313      133929.67     -807631.57     -302.56597      0.36293843     0.057007847    29.814479      30.858536    
     99100   198.2          298.86412      131089.39     -807632.31     -300.48039      0.36295213     0.056612757    29.819142      30.519398    
     99110   198.22         303.98767      134805.54     -807630.26     -303.25651      0.36296568     0.057133666    29.853748      30.180256    
     99120   198.24         301.66818      133178.46     -807630.37     -303.03223      0.36297909     0.057089303    29.863779      29.841114    
     99130   198.26         311.41611      135400.34     -807629.26     -305.5167       0.36299236     0.057555256    29.853729      29.501974    
     99140   198.28         302.92921      133250.75     -807629.99     -303.75318      0.36300548     0.057220963    29.887355      29.162832    
     99150   198.3          304.90622      135592.57     -807629.65     -304.33673      0.36301846     0.057328843    29.883426      28.823691    
     99160   198.32         298.77317      132769.77     -807630.57     -302.64302      0.3630313      0.057007777    29.867941      28.484552    
     99170   198.34         310.2429       133652.7      -807631.62     -303.15035      0.36304399     0.057101344    29.886513      28.145413    
     99180   198.36         295.21175      132295.86     -807631.57     -301.14417      0.36305655     0.056721501    29.801349      27.806282    
     99190   198.38         312.50843      133425.44     -807633.48     -301.5518       0.36306895     0.056796337    29.815076      27.467151    
     99200   198.4          303.39586      133394.24     -807631.93     -301.89431      0.36308122     0.056858927    29.806566      27.128021    
     99210   198.42         310.63693      134976.99     -807629.82     -304.95544      0.36309334     0.057433545    29.783248      26.788894    
     99220   198.44         302.0791       134771.53     -807628.98     -304.53106      0.36310532     0.057351727    29.818242      26.449765    
     99230   198.46         311.02838      134053.79     -807630.87     -303.81464      0.36311715     0.057214941    29.826367      26.110636    
     99240   198.48         294.06743      134518.66     -807627.69     -304.56677      0.36312885     0.057354736    29.822937      25.771508    
     99250   198.5          312.93834      133536.17     -807631.11     -303.76063      0.3631404      0.057201109    29.82779       25.43238     
     99260   198.52         301.87325      134126.73     -807630.49     -302.67122      0.3631518      0.056994171    29.839321      25.093252    
     99270   198.54         307.75059      131873.37     -807633.36     -300.58678      0.36316306     0.056599907    29.813554      24.754127    
     99280   198.56         306.29974      133591.6      -807631.62     -302.0339       0.36317418     0.056870656    29.796195      24.415004    
     99290   198.58         307.40298      132440.29     -807630.77     -303.03521      0.36318516     0.05705747     29.814417      24.07588     
     99300   198.6          307.7019       134956.64     -807629.33     -304.36146      0.36319599     0.057305477    29.809762      23.736758    
     99310   198.62         309.04993      134026.38     -807631.23     -302.62523      0.36320668     0.056976901    29.819031      23.397635    
     99320   198.64         310.61756      135747.99     -807628.46     -305.50418      0.36321723     0.057517266    29.878418      23.058509    
     99330   198.66         296.97562      134752.56     -807626.57     -305.4478       0.36322763     0.057505004    29.832755      22.719387    
     99340   198.68         314.20746      134137.23     -807630.66     -303.63937      0.36323789     0.057162926    29.817677      22.380267    
     99350   198.7          315.85754      132208.19     -807633.9      -300.6047       0.36324801     0.056590046    29.859221      22.041145    
     99360   198.72         302.15026      133592.35     -807629.67     -302.9094       0.36325798     0.05702235     29.844396      21.702024    
     99370   198.74         305.71829      133197.62     -807630.01     -302.97891      0.36326781     0.057033891    29.836143      21.362905    
     99380   198.76         316.9447       133855.76     -807632.93     -301.52325      0.3632775      0.056758359    29.853307      21.023786    
     99390   198.78         310.64391      133798.75     -807630.98     -302.60709      0.36328704     0.056960882    29.857372      20.684667    
     99400   198.8          314.69547      134932.44     -807628.74     -305.34211      0.36329644     0.057474219    29.876118      20.345547    
     99410   198.82         307.58913      135243.3      -807627.33     -305.74735      0.3633057      0.05754903     29.903204      20.006427    
     99420   198.84         300.66888      135577.66     -807628.47     -303.58367      0.36331481     0.05714034     29.873063      19.66731     
     99430   198.86         316.55309      133388.46     -807631.17     -303.10548      0.36332378     0.057048928    29.890051      19.328192    
     99440   198.88         311.25417      133720.37     -807629.47     -304.0472       0.36333261     0.057224782    29.86677       18.989077    
     99450   198.9          305.81122      133347.78     -807630.09     -302.61436      0.36334129     0.056953746    29.850674      18.649964    
     99460   198.92         307.91035      132958.43     -807631.66     -301.20559      0.36334983     0.056687274    29.808726      18.310854    
     99470   198.94         312.57297      133875.77     -807631.83     -301.67829      0.36335823     0.056774926    29.747         17.971749    
     99480   198.96         311.47688      134205.18     -807628.62     -304.7045       0.36336648     0.057343145    29.763981      17.632643    
     99490   198.98         326.27042      134850.79     -807629.92     -305.47291      0.3633746      0.057486472    29.839688      17.293533    
     99500   199            304.16604      135346.62     -807628.15     -304.16058      0.36338256     0.057238252    29.853979      16.954423    
     99510   199.02         302.48308      135688.32     -807627.97     -9730.585       0.36339039     0.057222003    29.73249       16.615321    
     99520   199.04         309.40676      134554.3      -807628.66     -9740.0654      0.36339807     0.057276543    29.79449       16.276217    
     99530   199.06         315.36399      133512.23     -807629.56     -9736.9981      0.3634056      0.057257318    29.769909      15.937114    
     99540   199.08         308.75948      133030.38     -807631.38     -9649.6573      0.363413       0.056742566    29.678737      15.598016    
     99550   199.1          304.67574      133266.25     -807631.02     -9643.3078      0.36342025     0.056704098    29.609298      15.258923    
     99560   199.12         321.80803      133137.36     -807631.04     -9720.4854      0.36342736     0.057156796    29.631265      14.919829    
     99570   199.14         309.82052      134835.35     -807628.02     -9764.5935      0.36343432     0.057415053    29.72894       14.58073     
     99580   199.16         311.62822      134757.78     -807629.51     -9724.4985      0.36344114     0.057178224    29.719296      14.241632    
     99590   199.18         307.18145      134746.58     -807628.99     -9721.3946      0.36344782     0.057158924    29.702532      13.902536    
     99600   199.2          308.52607      134919.79     -807628.2      -9756.1457      0.36345435     0.057362219    29.716915      13.563439    
     99610   199.22         303.91112      134602.92     -807627.84     -9746.9313      0.36346074     0.057307034    29.759829      13.224341    
     99620   199.24         322.89476      132291.75     -807633.59     -9647.5976      0.36346699     0.056722027    29.700702      12.885246    
     99630   199.26         310.71006      133213.11     -807631.33     -9667.2031      0.3634731      0.056836341    29.640368      12.546155    
     99640   199.28         307.60146      133954.59     -807629.27     -9723.1544      0.36347906     0.057164358    29.632393      12.207063    
     99650   199.3          309.40508      134982.57     -807629.13     -9735.662       0.36348487     0.057236976    29.73567       11.867969    
     99660   199.32         308.57639      133550.61     -807630.55     -9688.4405      0.36349055     0.056958468    29.757776      11.528873    
     99670   199.34         303.241        134882.31     -807628.61     -9729.1869      0.36349608     0.057197146    29.776874      11.189778    
     99680   199.36         307.75847      135237.67     -807627.99     -9771.578       0.36350147     0.057445508    29.822105      10.850682    
     99690   199.38         309.8483       134549.22     -807629.29     -9742.445       0.36350671     0.057273414    29.775357      10.511588    
     99700   199.4          315.76817      133643.95     -807632.85     -9657.5722      0.36351181     0.056773671    29.755234      10.172495    
     99710   199.42         312.70775      134047.81     -807631.4      -9696.9198      0.36351677     0.057004205    29.713177      9.8334049    
     99720   199.44         297.28402      134374.85     -807628.34     -9734.7202      0.36352158     0.057225661    29.716612      9.4943147    
     99730   199.46         303.91612      134505.87     -807629.78     -9725.3806      0.36352625     0.057170023    29.764488      9.1552236    
     99740   199.48         297.54126      133391.13     -807631.06     -9666.1556      0.36353078     0.056821165    29.758401      8.8161333    
     99750   199.5          302.46109      134185.29     -807630.2      -9725.2667      0.36353516     0.057167952    29.741278      8.4770441    
     99760   199.52         291.5324       134695.97     -807627.53     -9772.4017      0.3635394      0.057444356    29.761277      8.137955     
     99770   199.54         307.9135       134635.66     -807631.81     -9715.8959      0.3635435      0.057111558    29.768213      7.7988663    
     99780   199.56         297.34775      133959.97     -807631.38     -9689.2964      0.36354745     0.056954583    29.798136      7.4597774    
     99790   199.58         308.25394      133615.34     -807632.23     -9719.0787      0.36355126     0.057129047    28.212969      7.120729     
     99800   199.6          300.28164      134229.1      -807630.35     -9751.1947      0.36355493     0.057317248    29.769259      6.7816403    
     99810   199.62         295.31223      134078.12     -807630.56     -9725.5039      0.36355845     0.057165684    29.716976      6.4425534    
     99820   199.64         297.94127      133738.27     -807632.25     -9687.8768      0.36356183     0.056943986    29.687247      6.1034676    
     99830   199.66         299.64477      134215.82     -807631.67     -9717.5967      0.36356507     0.057118167    29.671196      5.7643826    
     99840   199.68         293.53104      134338.39     -807629.42     -9766.6048      0.36356816     0.057405739    29.72562       5.4252969    
     99850   199.7          301.05768      134311.83     -807631.42     -9736.7911      0.36357111     0.057230036    29.724836      5.0862119    
     99860   199.72         295.70959      133029.73     -807632.46     -9678.4567      0.36357392     0.056886724    29.755921      4.7471269    
     99870   199.74         299.65811      132991.43     -807631.52     -9726.2442      0.36357658     0.057167185    29.649348      4.408044     
     99880   199.76         307.7969       132674.57     -807632.25     -9738.0365      0.3635791      0.057236099    29.595258      4.0689623    
     99890   199.78         299.09141      133240.35     -807631.81     -9708.3245      0.36358148     0.057061091    29.65966       3.72988      
     99900   199.8          298.35783      132997.29     -807632.81     -9668.67        0.36358371     0.056827671    29.733922      3.3907972    
     99910   199.82         292.76578      134020.15     -807629.39     -9750.0079      0.3635858      0.057305405    29.714263      3.0517152    
     99920   199.84         304.39454      134200.63     -807630.27     -9767.8069      0.36358775     0.057409711    29.70668       2.7126338    
     99930   199.86         298.61406      135249.49     -807630.29     -9734.1408      0.36358955     0.057211557    29.705515      2.3735528    
     99940   199.88         306.82162      134116.54     -807631.71     -9716.2745      0.36359121     0.057106289    29.787263      2.0344718    
     99950   199.9          299.62315      134390.09     -807629.93     -9733.9613      0.36359273     0.057210003    29.798223      1.6953915    
     99960   199.92         303.10468      134138.67     -807630.01     -9738.2145      0.3635941      0.057234784    29.820795      1.3563117    
     99970   199.94         311.41063      132664.1      -807632.68     -9681.2808      0.36359533     0.056899973    29.821552      1.0172326    
     99980   199.96         302.89943      133673.06     -807631.21     -9681.6626      0.36359641     0.056902047    29.812232      0.67815436   
     99990   199.98         297.52158      133125.66     -807629.27     -9712.9531      0.36359736     0.057085803    29.786538      0.33907684   
    100000   200            303.58549      134748.16     -807628.34     -9761.2345      0.36359816     0.05736944     29.81728       0            
Loop time of 3390.76 on 32 procs for 100000 steps with 1080 atoms

Performance: 5.096 ns/day, 4.709 hours/ns, 29.492 timesteps/s, 31.851 katom-step/s
61.6% CPU use with 32 MPI tasks x 1 OpenMP threads

MPI task timing breakdown:
Section |  min time  |  avg time  |  max time  |%varavg| %total
---------------------------------------------------------------
Pair    | 2403.7     | 2799.6     | 3132.8     | 249.1 | 82.57
Neigh   | 0.00083013 | 0.00089883 | 0.0010941  |   0.0 |  0.00
Comm    | 182.96     | 516.38     | 912.37     | 579.8 | 15.23
Output  | 2.4922     | 2.5012     | 2.5099     |   0.3 |  0.07
Modify  | 65.563     | 66.037     | 66.535     |   3.5 |  1.95
Other   |            | 6.214      |            |       |  0.18

Nlocal:          33.75 ave          41 max          28 min
Histogram: 4 1 5 6 2 6 5 0 0 3
Nghost:        1029.62 ave        1043 max        1013 min
Histogram: 1 1 3 6 0 5 6 2 3 5
Neighs:              0 ave           0 max           0 min
Histogram: 32 0 0 0 0 0 0 0 0 0
FullNghs:      5356.69 ave        6530 max        4424 min
Histogram: 4 1 5 4 4 8 0 3 0 3

Total # of neighbors = 171414
Ave neighs/atom = 158.71667
Neighbor list builds = 2
Dangerous builds = 0

Total wall time: 0:59:55
