
units		metal
atom_style	atomic

read_data ${STRUCTURE}.data
read_data BaTiO3-sc333.data
Reading data file ...
  orthogonal box = (0 0 0) to (11.898253 11.898253 12.912076)
  2 by 4 by 4 MPI processor grid
  reading atoms ...
  135 atoms
  read_data CPU = 0.144 seconds
replicate $L $L $L
replicate 2 $L $L
replicate 2 2 $L
replicate 2 2 2
Replication is creating a 2x2x2 = 8 times larger system...
  orthogonal box = (0 0 0) to (23.796507 23.796507 25.824152)
  2 by 4 by 4 MPI processor grid
  1080 atoms
  replicate CPU = 0.159 seconds

pair_style allegro
pair_coeff	* * ${MODEL}.pth Ba Ti O
pair_coeff	* * BaTiO3-E0.pth Ba Ti O
mass 1 137.3
mass 2 47.9
mass 3 15.9994

timestep 0.002
compute polarization all allegro polarization 3
compute allegro will evaluate the quantity polarization of length 3 (src/compute_allegro.cpp:53)
compute polarizability all allegro polarizability 9
compute allegro will evaluate the quantity polarizability of length 9 (src/compute_allegro.cpp:53)

thermo_style custom pe fmax fnorm spcpu cpuremain

variable efield equal 1e-2*36.36
fix born all addbornforce 0.0 0.0 ${efield}
fix born all addbornforce 0.0 0.0 0.3636

thermo 10
min_style fire
#minimize 0.0 1e-6 100 100
velocity all create ${TEMP} ${SEED} dist gaussian rot yes mom yes
velocity all create 310 ${SEED} dist gaussian rot yes mom yes
velocity all create 310 18465 dist gaussian rot yes mom yes
fix nvt all nvt temp ${TEMP} ${TEMP} $(100*dt)
fix nvt all nvt temp 310 ${TEMP} $(100*dt)
fix nvt all nvt temp 310 310 $(100*dt)
fix nvt all nvt temp 310 310 0.2000000000000000111
run 5000
Neighbor list info ...
  update: every = 1 steps, delay = 0 steps, check = yes
  max neighbors/atom: 2000, page size: 100000
  master list distance cutoff = 8
  ghost atom cutoff = 8
  binsize = 8, bins = 3 3 4
  1 neighbor lists, perpetual/occasional/extra = 1 0 0
  (1) pair allegro/kk, perpetual
      attributes: full, newton on, kokkos_device
      pair build: full/bin/kk/device
      stencil: full/bin/3d
      bin: kk/device
Per MPI rank memory allocation (min/avg/max) = 3.516 | 3.516 | 3.516 Mbytes
    PotEng          Fmax          Fnorm          S/CPU         CPULeft    
-807708.29      1.5953203      37.045399      0              0            
-807646.72      3.3818953      45.054325      2.3466504      2126.4361    
-807635.82      2.6408538      35.642305      25.89237       1157.2547    
-807606.74      3.0774608      38.400573      25.897947      833.9229     
-807605.49      4.3367472      50.023704      25.85554       672.14262    
-807567.86      4.6683971      41.653403      25.835982      574.9486     
-807603.69      3.0223079      38.991771      25.925633      509.91341    
-807646.55      4.7609996      34.839972      25.923253      463.35199    
-807684.21      2.5966032      34.241454      25.86233       428.39037    
-807667.13      3.7442659      35.294899      25.791013      401.17043    
-807654.09      3.3076607      34.819717      25.93301       379.21286    
-807659.91      2.7412824      28.560235      25.914207      361.18992    
-807629.34      3.5263997      31.705616      25.918166      346.10408    
-807585.18      3.7365196      41.085958      25.908252      333.28534    
-807568.98      3.1974436      38.541751      25.937012      322.22785    
-807632.34      3.3228335      33.671317      25.913874      312.60439    
-807653.74      3.6964884      31.505694      25.916647      304.13439    
-807664.85      3.3180365      34.259968      25.891185      296.62624    
-807647.55      4.4339112      44.673425      25.947123      289.88713    
-807680.49      2.7596712      35.977968      25.883345      283.84086    
-807642.58      4.1195808      39.23986       25.807795      278.38774    
-807617.51      3.1392026      38.210896      25.90147       273.38509    
-807563.33      4.8588069      45.307556      25.927417      268.79373    
-807605.53      4.4358204      48.885412      25.859537      264.58908    
-807613.45      4.696041       38.989193      25.805106      260.71877    
-807641.33      3.1909698      35.366356      25.950654      257.08579    
-807643.61      4.6277782      44.935399      25.925286      253.7095     
-807681.25      2.7858424      37.791402      25.899915      250.56135    
-807663.49      3.1515035      35.096876      25.853528      247.62217    
-807637.87      3.7391953      33.620376      25.921897      244.84245    
-807608.33      3.4435673      34.772136      25.9263        242.2213     
-807604.5       4.2490868      42.407861      25.865362      239.75811    
-807598.82      3.2189549      36.129549      25.810986      237.43663    
-807607.76      2.9402476      34.256247      25.969802      235.19883    
-807642.01      3.3892132      30.955515      25.967409      233.0705     
-807673.75      2.1268673      31.945405      25.926342      231.04989    
-807676.91      2.3545191      32.19616       25.85398       229.13402    
-807645.3       4.1688574      38.015033      25.934053      227.28586    
-807647.39      2.7137756      30.974664      25.943244      225.51302    
-807622.37      3.9784312      34.231817      25.927478      223.8141     
-807601.72      4.1551152      43.071134      25.847913      222.19449    
-807571.32      4.2179578      41.27195       25.918715      220.62318    
-807623.87      2.9704225      35.375387      25.927384      219.10691    
-807650.08      3.507077       34.836452      25.917092      217.64486    
-807673.35      2.8996158      34.580036      25.868031      216.23931    
-807643.43      4.9428519      45.614798      25.912744      214.87231    
-807667.12      2.9741255      34.697285      25.929182      213.54555    
-807645.68      4.3493411      35.975185      25.915164      212.26084    
-807624.66      3.5424247      37.880985      25.885353      211.01777    
-807567.5       3.8945399      43.013198      25.93908       209.8023     
-807601.44      3.6820042      43.199781      25.961189      208.61708    
-807624.43      3.4313465      35.52542       25.914024      207.46941    
-807654.45      3.0063134      32.777846      25.92969       206.34902    
-807643.53      4.6732665      40.450709      25.933292      205.25591    
-807672.66      2.9286375      34.023546      25.915183      204.19123    
-807666.33      2.9738528      32.897809      25.807902      203.16421    
-807645.78      2.3287768      29.652979      25.874496      202.15212    
-807601.33      3.8060866      34.777239      25.965563      201.15145    
-807599.13      3.6259698      37.587652      25.925347      200.17656    
-807605.48      3.4816249      38.759501      25.843574      199.23076    
-807619.76      2.7904442      32.187704      25.893493      198.29812    
-807638.01      3.7517206      32.890159      25.946159      197.37776    
-807663.75      2.7522289      33.573624      25.9437        196.47491    
-807675.34      2.5987505      35.704679      25.819774      195.60131    
-807647.79      3.9958977      37.79205       25.902623      194.73448    
-807636.17      3.5819402      32.864151      25.926675      193.88004    
-807614.35      3.4053558      35.240647      25.936181      193.03887    
-807605.16      3.7245777      44.229015      25.869363      192.21775    
-807580.61      3.6913823      39.976037      25.893896      191.40708    
-807616.73      2.8235738      35.264111      25.928027      190.60553    
-807645.08      3.7017167      36.353758      25.957867      189.81315    
-807674.02      3.4308263      36.219269      25.884356      189.03884    
-807649.75      4.6919351      41.803862      25.875772      188.27607    
-807653.9       3.0746378      35.604125      25.912519      187.52041    
-807642.29      3.2835821      34.610141      25.924605      186.7737     
-807625.28      3.5951246      37.272231      25.918546      186.03713    
-807576.88      3.377907       39.496075      25.889163      185.31223    
-807590.88      3.0336213      39.941812      25.933094      184.59254    
-807627.65      3.4505279      32.379389      25.910479      183.88323    
-807658.73      2.6696188      32.452942      25.907165      183.18237    
-807651.6       3.7053466      36.83275       25.933578      182.48732    
-807659.49      3.9297662      35.237009      25.816613      181.80895    
-807664.39      3.5672804      32.746044      25.904202      181.131      
-807643.5       4.9150097      32.584268      25.911806      180.45951    
-807603.12      3.7892048      35.572261      25.888278      179.79656    
-807586.49      4.2475209      38.410448      25.926032      179.13737    
-807608.14      3.6692149      38.76502       25.910836      178.48564    
-807628.81      3.3056622      31.888793      25.918729      177.83945    
-807639.99      2.5479212      33.065534      25.920681      177.19905    
-807654.15      4.2354011      36.230273      25.925534      176.56403    
-807672.41      2.5303047      35.416182      25.912744      175.93542    
-807652.57      3.7553419      35.786675      25.924112      175.31139    
-807631.77      3.1095773      33.605472      25.939235      174.69154    
-807605.07      4.6686912      37.07584       25.926689      174.07754    
-807605.95      4.4251165      43.236805      25.90589       173.46974    
-807595.16      3.9212925      38.707241      25.8816        172.86815    
-807618.62      2.7291282      34.935667      25.909743      172.26928    
-807639.73      3.5275734      36.837322      25.920156      171.67415    
-807670.36      3.1564371      36.220036      25.853252      171.0874     
-807656.67      3.6006755      37.482         25.842506      170.50533    
-807649.26      2.7210317      33.831579      25.912824      169.92297    
-807632.83      3.861118       34.30437       25.855825      169.34785    
-807624.63      3.3484029      37.060111      25.906077      168.7735     
-807591.12      3.0053262      37.885756      25.86933       168.20493    
-807594.12      3.3849071      37.472499      25.905173      167.63781    
-807624.69      3.3324813      32.511355      25.92929       167.0728     
-807658.62      2.5629595      32.192323      25.909954      166.51224    
-807659.83      2.7154196      33.623683      25.896261      165.95569    
-807653.11      3.1102591      34.93261       25.925013      165.40074    
-807656.92      2.6822858      32.138535      25.915732      164.8494     
-807642.46      2.9556835      31.456508      25.903462      164.30171    
-807612.2       2.9032248      34.560019      25.932611      163.75541    
-807580.99      3.1547245      38.714447      25.930182      163.21211    
-807608.51      3.6700702      37.575421      25.907821      162.67274    
-807632.38      3.4221688      33.561806      25.936354      162.13462    
-807651.68      2.7729929      32.695273      25.923741      161.59978    
-807647.32      4.130823       38.300896      25.95837       161.06581    
-807666.75      2.8350922      34.866818      25.894126      160.53751    
-807651.46      4.097377       34.996056      25.807655      160.0158     
-807636.02      2.960524       32.69716       25.869059      159.49341    
-807595.79      4.5758748      37.338881      25.964344      158.96879    
-807602.88      3.4536139      40.100071      25.900674      158.44944    
-807607.05      3.9798804      35.668216      25.974942      157.92886    
-807629.05      3.0115555      32.908939      25.90111       157.41384    
-807638.82      3.7730082      36.151355      25.856572      156.90292    
-807665.03      3.148148       34.521591      25.997509      156.3877     
-807660.75      3.935098       34.751681      25.991572      155.87481    
-807647.97      2.8327266      32.747214      26.003279      155.36343    
-807623.88      4.2681685      33.458613      26.022584      154.8532     
-807617.43      3.3507467      35.251479      25.9808        154.3467     
-807599.58      3.8962185      38.014765      26.025186      153.84021    
-807603.03      4.0500495      36.570084      26.00223       153.33653    
-807623.63      3.8815137      33.533177      26.051878      152.83262    
-807655.56      2.6301986      32.687252      26.010903      152.33218    
-807662.73      2.4812689      34.113763      26.037637      151.8324     
-807651.89      3.2038199      35.44196       26.072448      151.33294    
-807646.61      2.9065901      33.5185        26.001607      150.83798    
-807634.34      2.9626026      32.868337      25.905219      150.34843    
-807615.5       3.0804523      35.772136      25.997698      149.85677    
-807586.07      3.3462667      37.653401      26.029851      149.36542    
-807605.93      3.3763855      36.895647      26.027717      148.87569    
-807632.58      4.0955776      34.050657      25.918345      148.39157    
-807655.95      3.2860519      33.308785      25.923173      147.90866    
-807647.75      4.9455148      38.576448      26.003642      147.42413    
-807656.78      3.3458384      34.831415      25.913663      146.94429    
-807648.06      4.4918163      35.188301      25.977699      146.46342    
-807635.16      3.3181971      33.114357      25.966552      145.98426    
-807594.26      5.2552592      37.972525      25.982597      145.50581    
-807595.68      3.407583       39.699625      26.005871      145.0278     
-807611.08      3.2166236      35.606653      25.904751      144.55459    
-807637.39      3.1774968      33.62804       25.900655      144.08268    
-807638.64      3.4126723      36.343557      25.942562      143.61046    
-807657.87      3.5333928      34.744569      25.957758      143.13887    
-807658.22      3.1751348      34.754201      25.95477       142.66851    
-807647.89      2.7274405      32.854131      25.887094      142.20152    
-807618.28      3.6616704      34.838238      25.962239      141.73308    
-807606.13      3.3273584      36.454423      25.996556      141.26459    
-807602.3       4.0681997      39.576427      25.879481      140.80096    
-807610.58      3.1620052      35.72693       25.943366      140.33625    
-807625.82      3.6971185      33.881605      26.016508      139.87022    
-807649.22      3.7698781      34.245771      26.022953      139.40501    
-807663.31      2.6963442      34.513251      25.965305      138.94259    
-807651.39      3.9183396      35.953868      25.991637      138.48032    
-807638.75      3.622266       33.873841      26.00861       138.01848    
-807626.34      2.9922425      33.162995      25.938938      137.5597     
-807613.8       4.0227676      37.736035      25.928248      137.10213    
-807594.61      3.7428362      38.039834      26.001512      136.64324    
-807608.14      3.1201551      35.96633       25.932249      136.18728    
-807634.77      3.5739336      33.994676      25.977354      135.73084    
-807658.36      2.916374       33.722582      25.996021      135.27471    
-807651.56      4.0149059      36.387294      25.981502      134.81983    
-807652.09      3.456453       34.33982       25.970804      134.36608    
-807642.02      3.4780204      34.290793      26.062319      133.91055    
-807634.27      2.9482707      33.193938      25.990349      133.45785    
-807600.14      2.9767839      36.361376      25.985416      133.00608    
-807597.55      3.2406334      37.532194      25.96052       132.55575    
-807616.07      3.115532       34.866089      25.958958      132.10621    
-807644.37      2.7210638      32.01823       25.921671      131.6584     
-807646.45      3.5234328      34.114562      25.961081      131.21024    
-807653.64      3.4404831      35.099119      25.893034      130.76459    
-807655.78      3.5209493      34.298109      25.925933      130.31873    
-807647.03      3.3499722      32.468857      25.987807      129.87192    
-807619.24      3.0866563      33.643739      25.947098      129.42684    
-807601.83      2.9276307      35.31851       26.007179      128.98087    
-807605.45      2.8860583      37.175111      26.018739      128.53528    
-807621.54      3.0322054      33.05741       25.951134      128.09206    
-807635.62      3.0597475      32.168289      25.974941      127.64886    
-807646.08      3.6627303      33.76168       26.004402      127.20555    
-807660.61      2.7775647      33.049985      25.95047       126.7642     
-807653.16      4.7595779      33.660581      25.958737      126.32323    
-807637.95      3.2236812      32.057713      25.984015      125.88224    
-807617.3       4.1697067      33.527879      26.044053      125.44041    
-807612.44      3.5950717      36.142094      25.993346      125.00037    
-807603.43      4.167081       36.401337      25.976454      124.56131    
-807617.98      2.5299225      33.286073      25.980616      124.12271    
-807632.86      2.998929       33.52999       25.980823      123.68466    
-807655.48      2.6641998      32.828358      25.947484      123.24791    
-807654.17      3.8890346      34.558595      25.923319      122.81224    
-807647.29      3.690343       33.963037      25.972609      122.37596    
-807634.2       3.6945562      33.898837      26.014026      121.93926    
-807624.75      3.581052       34.668586      26.030195      121.50273    
-807605.75      3.9473241      36.149522      26.063676      121.06599    
-807600.5       3.6434082      36.427887      25.992968      120.63131    
-807617.35      4.4695084      34.056204      26.053901      120.19581    
-807643.43      3.1053032      32.37792       26.015798      119.76163    
-807652.52      3.3171528      33.029058      25.992449      119.32843    
-807649.93      3.3109826      34.298905      25.951975      118.89656    
-807649.18      3.545107       32.511734      26.022155      118.46367    
-807641.6       3.0816638      31.812231      25.952604      118.03269    
-807620.89      3.1378266      33.251711      25.983759      117.6015     
-807597.11      3.6322946      36.843815      25.942471      117.1716     
-807603.28      3.2547497      36.237898      25.949368      116.74199    
-807624.76      3.4538244      33.761209      25.988471      116.312      
-807642.51      3.1578919      32.545219      25.88565       115.8845     
-807644.79      3.0163419      34.942257      25.983396      115.45543    
-807654.73      3.8040892      34.390641      25.986457      115.02672    
-807652.88      3.1244621      33.633344      25.989957      114.59835    
-807636.04      2.5657342      32.629353      25.963701      114.17089    
-807610.61      2.8898514      35.00882       25.997668      113.74316    
-807603.49      3.1642156      36.928281      26.022133      113.31537    
-807609.97      2.8850981      35.605256      25.943933      112.88944    
-807624.24      2.3277898      32.493283      25.931073      112.46412    
-807637.09      3.2272734      32.888555      25.963132      112.03857    
-807654.3       2.5727316      32.705718      26.000977      111.61268    
-807656.51      2.5967198      33.631263      25.946932      111.18814    
-807648.01      2.6746805      32.19681       25.96841       110.76356    
-807629.91      3.0460745      32.716843      25.982283      110.33909    
-807618.92      2.8282783      33.710505      26.030185      109.91411    
-807608.01      3.755031       36.001509      25.963739      109.49066    
-807609.13      2.8251168      34.49359       25.924054      109.06824    
-807623.02      3.2686811      32.577764      25.978898      108.64519    
-807645.45      3.5074403      31.758748      25.956481      108.22285    
-807654.96      2.6810225      32.746891      25.938035      107.80115    
-807650.96      3.0955052      33.695132      25.995765      107.37878    
-807643.96      4.6021391      33.387438      26.025231      106.95623    
-807635.54      3.5175849      32.477599      26.001869      106.5344     
-807618.8       2.9121338      34.528602      26.018232      106.11262    
-807602.22      2.9817357      36.01244       26.040401      105.69079    
-807609.53      3.4316031      35.038698      25.937649      105.27095    
-807630         3.1847712      32.527137      25.922444      104.85165    
-807646.76      2.9277908      31.925039      25.918474      104.43268    
-807649.05      3.0637039      33.85959       25.922327      104.01394    
-807650.24      2.9121518      34.293886      25.937518      103.59522    
-807645.79      3.8482937      33.610085      25.972099      103.17624    
-807633.31      3.1615162      32.964573      25.88492       102.75889    
-807611.32      3.1916577      34.664194      25.947374      102.34083    
-807604.52      3.2597779      36.267332      25.96469       101.92276    
-807613.18      3.6850675      35.59492       25.900175      101.50595    
-807633.42      2.6898604      32.495771      25.930876      101.08892    
-807640.98      3.9521802      34.006384      25.916227      100.67237    
-807648.96      3.4314867      34.060525      25.936287      100.25576    
-807650.91      3.7069235      34.082939      25.926697      99.839535    
-807646.04      2.9003581      32.078211      25.940906      99.423348    
-807624.93      3.7211991      33.700487      25.909821      99.007855    
-807612.03      3.3379287      34.543784      25.954646      98.59195     
-807608.33      3.4255321      36.332504      25.914717      98.176855    
-807614.68      3.4768133      35.031215      25.874718      97.762556    
-807628.24      2.9035366      32.687743      25.884115      97.348342    
-807641.58      3.4062724      33.303564      25.881285      96.934383    
-807654.03      3.1061618      32.828572      25.902776      96.520339    
-807648.67      2.9636762      34.004896      25.863295      96.107054    
-807639.85      3.3302444      32.61814       25.869342      95.69389     
-807623.8       3.2778987      33.319218      25.914759      95.280314    
-807616.83      2.59363        34.183117      25.929504      94.866752    
-807605.01      3.0499204      35.843604      25.914454      94.4536      
-807614.38      3.5030489      34.303722      25.911382      94.040695    
-807629.64      3.6169721      33.946413      25.882066      93.628378    
-807648.62      2.4362884      32.882662      25.872937      93.216373    
-807649.82      3.1010879      33.9746        25.928894      92.803837    
-807646.21      3.9064977      34.697169      25.92083       92.391604    
-807638.23      3.0210317      33.358466      25.930941      91.979438    
-807627.33      2.713118       34.353976      25.914618      91.567674    
-807609.58      2.7847517      35.239635      25.891923      91.156383    
-807604.11      3.6329851      36.63034       25.888135      90.745323    
-807616.33      2.8930927      35.142176      25.852765      90.33488     
-807638.17      2.53951        32.517659      25.865996      89.924447    
-807645.6       3.0964288      33.783895      25.906609      89.513694    
-807647.57      2.9325965      34.243955      25.865552      89.103614    
-807648.08      2.7737871      33.43661       25.846838      88.693926    
-807639.39      3.7781312      33.722422      25.851369      88.284347    
-807622.05      3.2251874      34.285722      25.898953      87.874373    
-807607.23      3.6329533      35.558161      25.925302      87.464262    
-807609.74      3.1674         36.694784      25.92641       87.054312    
-807621.42      2.9002998      34.667364      25.941357      86.644363    
-807636.97      2.9995118      33.214246      25.944102      86.234555    
-807642.88      2.9145295      34.539248      25.870151      85.825749    
-807652.32      2.8929637      33.906752      25.897121      85.416798    
-807647.47      3.4986276      33.827429      25.897533      85.008001    
-807636.46      3.1067416      33.334764      25.887354      84.599473    
-807620.09      3.1049395      33.799293      25.902593      84.190933    
-807613.76      2.7304627      34.895091      25.893018      83.782651    
-807612.22      2.5926343      35.069905      25.873666      83.374729    
-807623.23      3.0752389      33.901715      25.901258      82.96666     
-807634.89      3.2568381      32.884983      25.912414      82.558624    
-807649.55      3.4140287      33.366334      25.858961      82.151297    
-807652.03      3.8877706      34.478563      25.856205      81.744139    
-807645.15      3.376867       33.523142      25.841007      81.337275    
-807632.87      3.0594615      34.037721      25.914426      80.929796    
-807623.18      3.1321464      33.656259      25.968924      80.521913    
-807611.77      2.9484394      35.749766      25.933257      80.114538    
-807611.1       2.8059923      35.695688      25.942509      79.707217    
-807625.66      3.7050967      33.188894      25.965943      79.299811    
-807641.36      3.1104906      32.32292       25.946777      78.892739    
-807649.88      2.9262867      32.908912      25.906413      78.486201    
-807648.28      3.9555584      34.4779        25.925138      78.079618    
-807644.3       3.0774377      33.298312      25.906211      77.673352    
-807634.12      3.3107473      32.829737      25.948936      77.266815    
-807620.23      3.2201526      33.886497      25.910838      76.860772    
-807608.08      2.8589887      36.018289      25.926091      76.454719    
-807612.7       3.5321675      35.345349      25.923641      76.048819    
-807629.43      3.1911004      33.675004      25.927969      75.643011    
-807642.69      2.9782701      33.437254      25.888103      75.237692    
-807644.75      3.5737237      34.778968      25.933778      74.832086    
-807649.88      3.2526553      34.329855      25.903451      74.426877    
-807641.56      3.6289593      33.804759      25.897795      74.02184     
-807632.87      2.5788362      33.360333      25.890219      73.61699     
-807614.49      2.6606264      34.65691       25.924185      73.211963    
-807611.11      3.0029514      35.686167      25.914173      72.807143    
-807616.36      3.1570787      34.776156      25.855295      72.402945    
-807629.89      2.912519       33.489704      25.862506      71.998796    
-807638.91      3.4117551      33.979445      25.908531      71.594369    
-807647.96      2.8373012      33.88183       25.918713      71.189973    
-807647.44      4.1472411      34.274215      25.868585      70.786105    
-807641.16      3.2619257      33.115574      25.842471      70.382559    
-807625.47      3.9950527      33.79943       25.866552      69.978919    
-807615.19      3.7000724      35.080881      25.918826      69.574965    
-807611.33      4.5980211      35.766039      25.857228      69.171612    
-807618.98      3.197274       34.581195      25.858318      68.768352    
-807629.99      4.0856418      34.280167      25.8686        68.365112    
-807640.31      2.9923605      34.156212      25.802576      67.962488    
-807650.27      3.3655423      33.887087      25.823928      67.55979     
-807645.55      3.1057522      34.134094      25.854144      67.156955    
-807637.24      3.6706662      32.942477      25.864073      66.754141    
-807625.21      4.9480769      33.725408      25.900655      66.35115     
-807616.11      3.1324043      34.514064      25.930234      65.948042    
-807609.49      3.5164474      35.640706      25.92998       65.545039    
-807619.38      3.1960969      34.0472        25.912232      65.142269    
-807631.5       3.4405952      33.581627      25.928139      64.739485    
-807646.8       3.2961377      33.410355      25.920845      64.336853    
-807645.24      3.7648658      34.450209      25.938144      63.934199    
-807642.23      3.2480077      35.284115      25.915853      63.531802    
-807635.68      3.2835502      33.750497      25.893015      63.12966     
-807625.76      3.3211503      34.583146      25.853467      62.727884    
-807612.54      4.18764        35.004918      25.783039      62.326679    
-807608.55      4.1934714      36.685806      25.745515      61.925809    
-807621.73      3.8202193      33.868392      25.824845      61.524474    
-807635.12      2.9756735      33.989197      25.884304      61.122825    
-807641.33      2.9523138      34.011746      25.879392      60.721297    
-807646.87      2.7807011      34.624239      25.900022      60.319721    
-807642.72      3.7856996      34.816829      25.86568       59.918456    
-807637.21      3.0690162      33.871862      25.881263      59.517174    
-807622.45      3.2558923      34.888726      25.935598      59.115634    
-807612.18      2.8167984      36.299624      25.915272      58.714312    
-807611.34      3.4156145      36.425999      25.929783      58.312987    
-807624.03      3.0314026      34.470166      25.904483      57.911906    
-807633.65      3.0763032      34.188788      25.889555      57.511001    
-807642.43      3.3769664      34.100672      25.891124      57.110169    
-807646.78      3.9678933      34.101858      25.919545      56.709249    
-807642.58      3.289173       34.377562      25.915802      56.308435    
-807633.44      2.9936597      34.094459      25.88261       55.907899    
-807621.63      3.0266495      33.883607      25.913264      55.507264    
-807614.96      3.1800559      35.974809      25.940099      55.106557    
-807616.53      3.1515132      35.011144      25.920052      54.706048    
-807625.7       2.8602147      34.197849      25.899577      54.305735    
-807633.21      4.4170516      35.178068      25.902426      53.905484    
-807646.52      3.4564833      34.220635      25.880903      53.505429    
-807645.12      4.3794357      35.13924       25.878583      53.105462    
-807640.96      3.4552731      34.241407      25.918917      52.705351    
-807629.87      3.4189347      33.990827      25.9272        52.305273    
-807624.61      3.2214147      34.683235      25.91288       51.905349    
-807613.8       3.2627295      35.47139       25.937721      51.505371    
-807618.39      4.4226516      34.581492      25.917594      51.105574    
-807624.05      2.9738547      35.01128       25.960958      50.705631    
-807640.61      3.079645       33.397666      25.929252      50.305928    
-807645.2       3.0855397      34.236595      25.910216      49.906394    
-807645.06      3.4743208      34.309907      25.93439       49.506814    
-807640.42      3.6966624      33.650718      25.922258      49.107367    
-807634.6       3.3545048      33.556369      25.960897      48.707806    
-807620.68      4.2310615      34.657733      25.954285      48.308352    
-807613.54      3.4551591      35.536356      25.97414       47.908879    
-807617.04      3.0215034      35.15184       25.909278      47.509787    
-807628.79      3.4046185      34.782942      25.854195      47.11102     
-807638.39      3.3653383      34.517905      25.817884      46.712484    
-807643.41      3.4387524      34.736584      25.907745      46.313597    
-807645.04      4.0834362      34.910406      25.917012      45.914734    
-807639.07      3.7451923      34.789934      25.881436      45.516098    
-807631.11      4.1017079      34.828275      25.904052      45.117426    
-807616.44      3.5783968      35.91859       25.950889      44.718615    
-807614.28      4.1793679      36.235805      25.894036      44.320118    
-807617.81      4.0263701      35.958229      25.873392      43.921773    
-807629.1       3.3058449      34.664441      25.845375      43.523606    
-807635.91      3.5169329      34.728084      25.808413      43.125652    
-807645.88      2.8666825      34.168268      25.854911      42.727558    
-807642.89      3.1121989      35.500223      25.932294      42.329208    
-807638.66      3.1025166      34.826603      25.914811      41.930993    
-807625.83      3.6019758      34.969695      25.983415      41.53257     
-807618.07      3.1421105      36.555998      26.000203      41.134149    
-807614.8       2.9053897      36.025712      25.962322      40.735944    
-807619.61      3.1005573      36.020515      25.921876      40.337958    
-807627.65      4.1436687      35.671892      25.966819      39.939865    
-807639.01      3.4461434      34.808994      25.944878      39.541918    
-807644.12      3.9555534      35.329356      25.956886      39.143989    
-807643.21      3.3827902      35.00362       25.97053       38.746074    
-807633.02      3.5687705      34.800028      26.013444      38.34807     
-807628.47      2.9673702      34.060541      25.966927      37.950297    
-807616.08      3.0268428      35.503187      25.986961      37.552517    
-807616.41      3.4028754      36.227196      25.933252      37.154985    
-807619.02      3.641413       35.927731      25.834531      36.757848    
-807632.07      3.3851424      34.89972       25.823539      36.360798    
-807639.76      3.9667992      34.625826      25.799836      35.963875    
-807643.28      3.1700512      35.517572      25.864837      35.566784    
-807641.01      3.7155495      35.011852      25.875209      35.16971     
-807633.94      3.4987619      35.361223      25.894695      34.772625    
-807627.49      3.157465       34.996472      25.89138       34.375604    
-807616.86      3.6304023      35.750905      25.932444      33.978508    
-807617.14      2.9666433      35.293036      25.926997      33.581483    
-807621.6       3.0563341      34.885139      25.956514      33.184425    
-807635.33      3.2972441      33.887932      25.9312        32.787498    
-807638.08      3.2985036      35.062793      25.918957      32.390661    
-807644.16      3.4081643      34.743712      25.927457      31.993852    
-807639.02      3.1235738      35.292852      26.000373      31.596889    
-807637.31      2.8545704      33.656055      25.980487      31.200041    
-807622.5       3.5689887      35.672096      25.990839      30.803221    
-807618.15      3.1765672      36.90989       25.937137      30.406603    
-807615.63      3.9494231      36.724571      25.99132       30.009893    
-807626.3       3.2789802      34.996804      25.91127       29.61345     
-807631.27      4.2252103      35.596072      25.875106      29.217149    
-807643.61      3.2330997      33.909936      25.875102      28.820894    
-807643.67      4.0925366      35.122595      25.968184      28.424453    
-807641.59      3.3382383      34.043815      25.948931      28.028111    
-807632.36      3.683942       34.174452      25.97265       27.631763    
-807624.42      3.2997077      34.803657      25.919084      27.235595    
-807616.89      2.7997866      35.179935      25.914675      26.839485    
-807619.26      2.8759207      35.468903      25.949923      26.443341    
-807625.47      2.8274495      34.902778      25.857859      26.047456    
-807636.26      3.7142304      33.780926      25.900185      25.651518    
-807642.49      3.0183242      33.849425      25.892195      25.255643    
-807644.09      3.4301754      34.525248      25.934483      24.859722    
-807639.55      3.076232       34.85163       25.961263      24.463791    
-807632.02      2.971195       34.000907      25.926603      24.067981    
-807624.79      3.2725586      34.641957      25.933543      23.672203    
-807619.42      3.4565153      34.830714      25.971882      23.276394    
-807621.1       3.380622       34.579424      25.92496       22.880726    
-807625.92      3.4584238      34.763903      25.928401      22.485096    
-807638.06      3.6181789      33.967613      25.989523      22.089397    
-807641.77      3.6786559      34.404823      25.997238      21.693732    
-807643.11      4.2569389      34.518423      26.027469      21.298063    
-807638.75      3.6373269      34.510358      26.04455       20.902416    
-807633.91      3.045004       33.257405      25.98691       20.506919    
-807623.54      3.4495695      34.131767      25.986796      20.11147     
-807618.84      2.6643239      34.595224      25.922017      19.716175    
-807621.12      2.7874753      33.448228      25.92457       19.320918    
-807630.2       3.1270902      33.339187      25.917306      18.925715    
-807637.1       2.7859768      32.666565      25.958594      18.53049     
-807641.57      2.8335001      33.680602      25.965156      18.135299    
-807642.96      2.8645467      33.796693      25.956368      17.740165    
-807639.97      2.6962848      33.497129      25.973616      17.345049    
-807627.92      2.5872684      34.008557      25.927448      16.950042    
-807621.81      2.8130504      34.807026      25.912611      16.555097    
-807616.64      3.1057507      35.085058      25.829875      16.1603      
-807621.56      3.015342       35.106005      25.84006       15.765524    
-807627.74      3.8645877      35.285039      25.917564      15.370684    
-807637.29      2.9351122      34.609935      25.916781      14.975884    
-807640.55      3.7983464      35.198346      25.944356      14.581089    
-807641.66      3.2979612      34.547538      25.982826      14.186291    
-807636.14      3.1714065      34.534265      25.972834      13.791547    
-807627.3       4.0624474      34.638932      25.992896      13.396822    
-807620.4       3.1584629      34.528458      25.945033      13.002191    
-807616.52      3.5566277      35.840102      25.93004       12.607614    
-807624.91      3.0351208      34.014965      25.956411      12.213049    
-807627.94      4.0381893      34.361829      25.889905      11.818587    
-807638.44      2.8165092      33.722911      25.928659      11.424124    
-807639.99      5.0449569      34.442795      25.925138      11.029702    
-807641.35      2.7518703      33.951181      25.882712      10.635353    
-807632.16      4.0884156      35.442634      25.875518      10.241043    
-807629.43      3.297026       33.986794      25.884878      9.8467586    
-807619.25      3.6913452      35.629468      25.954453      9.4524556    
-807620.77      3.7510378      35.042946      25.89869       9.0582305    
-807620.45      3.532027       35.808169      25.879217      8.6640526    
-807631.1       3.0186365      34.238965      25.921266      8.2698797    
-807636.99      3.181934       34.466476      25.931585      7.8757353    
-807639.22      3.0140925      34.369166      25.932524      7.4816258    
-807636.58      3.7065816      35.010376      25.95955       7.0875365    
-807634.7       2.9213172      34.383648      25.973654      6.6934767    
-807628.15      3.5405777      34.037584      25.977456      6.2994523    
-807620.79      3.2883273      35.440316      25.947478      5.9054792    
-807620.29      3.3967584      35.256373      25.943233      5.5115431    
-807624.3       3.8367953      35.424151      25.929082      5.1176476    
-807629.96      2.9433881      34.994302      25.907786      4.7237935    
-807634.41      4.3757051      35.386992      25.912184      4.3299701    
-807639.67      3.2527108      34.759022      25.859829      3.936195     
-807638.23      3.2112506      35.610334      25.890893      3.5424402    
-807632.96      2.8906395      34.649877      25.870352      3.1487209    
-807624.51      3.076687       34.899985      25.956839      2.7550124    
-807622.12      2.9180685      34.621889      25.914918      2.3613457    
-807619.51      2.8849011      35.19496       25.930387      1.9677082    
-807625.08      3.3149562      34.870402      25.910205      1.5741053    
-807631.48      3.111413       34.297575      25.896439      1.1805345    
-807638.34      3.1819058      34.165498      25.884445      0.78699417   
-807641.14      3.4918157      33.897373      25.902103      0.3934822    
-807638.94      2.9830324      34.547569      25.882784      0            
Loop time of 196.734 on 32 procs for 5000 steps with 1080 atoms

Performance: 4.392 ns/day, 5.465 hours/ns, 25.415 timesteps/s, 27.448 katom-step/s
66.7% CPU use with 32 MPI tasks x 1 OpenMP threads

MPI task timing breakdown:
Section |  min time  |  avg time  |  max time  |%varavg| %total
---------------------------------------------------------------
Pair    | 101.52     | 145.15     | 191.87     | 310.4 | 73.78
Neigh   | 0          | 0          | 0          |   0.0 |  0.00
Comm    | 2.5518     | 49.272     | 92.907     | 532.8 | 25.05
Output  | 0.026144   | 0.026995   | 0.028734   |   0.3 |  0.01
Modify  | 1.9552     | 1.9705     | 1.9827     |   0.4 |  1.00
Other   |            | 0.3141     |            |       |  0.16

Nlocal:          33.75 ave          48 max          21 min
Histogram: 8 8 0 0 0 0 0 8 0 8
Nghost:        1106.25 ave        1119 max        1092 min
Histogram: 8 0 8 0 0 0 0 0 8 8
Neighs:              0 ave           0 max           0 min
Histogram: 32 0 0 0 0 0 0 0 0 0
FullNghs:       5494.5 ave        7896 max        3378 min
Histogram: 8 8 0 0 0 0 0 8 0 8

Total # of neighbors = 175824
Ave neighs/atom = 162.8
Neighbor list builds = 0
Dangerous builds = 0

reset_timestep 0


variable interval equal 1000
thermo 10

variable nintervals equal $(v_PERIOD/v_interval)
variable nintervals equal 100
variable efield equal 1e-2*36.36*cos((step/${PERIOD})*2*3.14)
variable efield equal 1e-2*36.36*cos((step/100000)*2*3.14)
fix born all addbornforce 0.0 0.0 v_efield

variable Px equal f_born[1]+c_polarization[1]
variable Py equal f_born[2]+c_polarization[2]
variable Pz equal (f_born[3]+c_polarization[3])/vol
variable pe equal pe

fix aveP all ave/time 1 $(v_interval/2) ${interval} v_efield v_Pz v_pe f_born file Pz.${MODEL}.${STRUCTURE}.${TEMP}.$L.${ITER}
fix aveP all ave/time 1 500 ${interval} v_efield v_Pz v_pe f_born file Pz.${MODEL}.${STRUCTURE}.${TEMP}.$L.${ITER}
fix aveP all ave/time 1 500 1000 v_efield v_Pz v_pe f_born file Pz.${MODEL}.${STRUCTURE}.${TEMP}.$L.${ITER}
fix aveP all ave/time 1 500 1000 v_efield v_Pz v_pe f_born file Pz.BaTiO3-E0.${STRUCTURE}.${TEMP}.$L.${ITER}
fix aveP all ave/time 1 500 1000 v_efield v_Pz v_pe f_born file Pz.BaTiO3-E0.BaTiO3-sc333.${TEMP}.$L.${ITER}
fix aveP all ave/time 1 500 1000 v_efield v_Pz v_pe f_born file Pz.BaTiO3-E0.BaTiO3-sc333.310.$L.${ITER}
fix aveP all ave/time 1 500 1000 v_efield v_Pz v_pe f_born file Pz.BaTiO3-E0.BaTiO3-sc333.310.2.${ITER}
fix aveP all ave/time 1 500 1000 v_efield v_Pz v_pe f_born file Pz.BaTiO3-E0.BaTiO3-sc333.310.2.1

thermo_style custom step time temp press pe f_born v_efield v_Pz spcpu cpuremain

# dump 4a all custom 1000 dump.hyst.${MODEL}.${STRUCTURE}.${TEMP}.$L.${ITER}.bin id type xu yu zu fx fy fz
# dump_modify 4a sort id

fix nvt all nvt temp ${TEMP} ${TEMP} $(100*dt)
fix nvt all nvt temp 310 ${TEMP} $(100*dt)
fix nvt all nvt temp 310 310 $(100*dt)
fix nvt all nvt temp 310 310 0.2000000000000000111

run $(v_PERIOD)
run 100000
WARNING: non-constant efield is experimental, strongly distrust scalar/vector output (src/fix_addbornforce.cpp:193)
Per MPI rank memory allocation (min/avg/max) = 3.516 | 3.516 | 3.516 Mbytes
   Step          Time           Temp          Press          PotEng         f_born        v_efield         v_Pz          S/CPU         CPULeft    
         0   0              299.99545      126339.07     -807638.94     -294.56312      0.3636         0.055399012    0              0            
        10   0.02           314.02924      133341.42     -807632.05     -303.35898      0.36359993     0.057053275    27.396455      3649.7618    
        20   0.04           295.88556      137616.82     -807624.05     -308.98366      0.36359971     0.058111153    27.384697      3650.1701    
        30   0.06           321.52584      142082.3      -807623.18     -313.34937      0.36359935     0.05893228     27.433062      3647.9177    
        40   0.08           294.46482      141296.35     -807620.32     -312.41149      0.36359885     0.058755972    27.384749      3648.2165    
        50   0.1            311.52023      138251.87     -807625.66     -309.392        0.36359821     0.058188192    27.39678       3647.9298    
        60   0.12           306.44895      130442.77     -807633.99     -300.29953      0.36359742     0.056478269    27.391225      3647.7389    
        70   0.14           303.88141      128381.9      -807638.55     -295.19168      0.36359649     0.055517762    27.351495      3648.2567    
        80   0.16           298.41793      124617.82     -807640.71     -292.23765      0.36359541     0.05496235     27.394448      3647.8363    
        90   0.18           303.351        129468.48     -807636.21     -297.30203      0.36359419     0.055915015    27.383702      3647.5878    
       100   0.2            312.60087      132808.98     -807632.41     -302.32895      0.36359283     0.056860666    27.435464      3646.6278    
       110   0.22           314.97869      139840.35     -807624.76     -310.14599      0.36359132     0.058331102    27.358383      3646.7084    
       120   0.24           315.43665      140990.82     -807621.71     -313.10332      0.36358968     0.058887571    27.345989      3646.8527    
       130   0.26           306.65874      141739.71     -807620.51     -312.89495      0.36358788     0.058848672    27.342349      3646.9559    
       140   0.28           321.4873       135180.95     -807628.94     -306.34456      0.36358595     0.057616994    27.34213       3646.9942    
       150   0.3            313.85967      130593.98     -807633.8      -300.10254      0.36358387     0.056443325    27.366556      3646.7613    
       160   0.32           306.04208      126683.03     -807638.1      -294.43388      0.36358165     0.055377501    27.363528      3646.5368    
       170   0.34           298.70039      126290.07     -807637.76     -293.41184      0.36357928     0.055185634    27.36211       3646.3074    
       180   0.36           312.61406      129398.5      -807635.71     -297.13816      0.36357677     0.055886874    27.343466      3646.2008    
       190   0.38           323.30948      134564.59     -807629.78     -304.2554       0.36357412     0.057225929    27.335808      3646.1207    
       200   0.4            324.99501      139805.62     -807622.38     -311.61383      0.36357132     0.058610391    27.410086      3645.5177    
       210   0.42           315.7966       142046.22     -807619.7      -312.7436       0.36356838     0.058823363    27.397608      3645.0158    
       220   0.44           315.14484      141240.57     -807620.67     -311.33202      0.3635653      0.058558357    27.378063      3644.6448    
       230   0.46           323.22825      134997.01     -807627.91     -305.10672      0.36356207     0.05738795     27.365306      3644.3481    
       240   0.48           326.36389      131327.28     -807633.39     -299.81168      0.3635587      0.056392522    27.36153       3644.0669    
       250   0.5            302.95792      126922.5      -807636.23     -293.60509      0.36355519     0.055225639    27.360328      3643.7849    
       260   0.52           321.31521      127894.57     -807638.77     -293.46593      0.36355153     0.055200018    27.350951      3643.5448    
       270   0.54           321.48901      129897.65     -807634.73     -297.57893      0.36354773     0.055974247    27.358346      3643.2589    
       280   0.56           332.77045      136055.84     -807627.77     -306.12662      0.36354379     0.057582682    27.369548      3642.914     
       290   0.58           320.23037      139795.96     -807621.9      -310.32574      0.3635397      0.058373195    27.396576      3642.4436    
       300   0.6            321.88502      143407.96     -807619.43     -312.97355      0.36353547     0.058871941    27.360024      3642.1426    
       310   0.62           313.48712      139280.83     -807621.59     -309.79547      0.3635311      0.05827483     27.361687      3641.8301    
       320   0.64           327.4251       136131.33     -807627.36     -305.97576      0.36352658     0.057557028    27.371379      3641.474     
       330   0.66           318.5769       129307.13     -807635.75     -296.50418      0.36352192     0.055776047    27.388437      3641.0487    
       340   0.68           307.98666      128098.68     -807637.32     -293.43882      0.36351712     0.055200145    27.368491      3640.7049    
       350   0.7            312.90028      125937.85     -807637.45     -294.19695      0.36351217     0.055343514    27.352268      3640.4215    
       360   0.72           323.21402      131871.84     -807632.3      -300.88866      0.36350708     0.056603133    27.409456      3639.9224    
       370   0.74           318.07729      135847.58     -807627.25     -305.43063      0.36350185     0.057458394    27.403927      3639.4506    
       380   0.76           321.92026      141676.3      -807621.03     -312.25315      0.36349647     0.058742732    27.36188       3639.1311    
       390   0.78           310.07671      140982.44     -807619.6      -312.21182      0.36349095     0.058735849    27.370055      3638.7814    
       400   0.8            328.34213      139736.77     -807623.73     -310.66451      0.36348529     0.058445667    27.356658      3638.4758    
       410   0.82           319.53584      132933.01     -807630.86     -302.52425      0.36347948     0.056915141    27.355273      3638.1715    
       420   0.84           317.75924      130282.38     -807635.83     -297.34289      0.36347353     0.055941266    27.302667      3638.0312    
       430   0.86           304.82706      126184.48     -807638.78     -292.75336      0.36346744     0.055078727    27.322449      3637.8192    
       440   0.88           300.06516      129242.72     -807635.11     -295.83315      0.3634612      0.055659115    27.302079      3637.6619    
       450   0.9            317.71772      131221.92     -807633.35     -300.27679      0.36345482     0.05649615     27.345388      3637.367     
       460   0.92           319.64793      137025.84     -807626.46     -307.48587      0.3634483      0.057853553    27.357557      3637.0339    
       470   0.94           303.79082      141021.39     -807620.21     -311.64299      0.36344163     0.058636792    27.360171      3636.6918    
       480   0.96           312.45652      141674.77     -807620.62     -312.58075      0.36343482     0.058814338    27.364626      3636.3366    
       490   0.98           319.49613      138751.24     -807624.78     -309.46104      0.36342786     0.058228456    27.366231      3635.9766    
       500   1              325.30305      132494.62     -807633.18     -301.95851      0.36342077     0.056817883    27.376744      3635.5884    
       510   1.02           299.01961      129731.97     -807635.01     -9487.8001      0.36341353     0.055790721    27.276027      3635.4642    
       520   1.04           303.36464      126335.1      -807639.58     -9363.9882      0.36340614     0.055063794    27.290714      3635.293     
       530   1.06           312.1432       129350.81     -807637.13     -9482.7045      0.36339862     0.055763046    27.33011       3635.0153    
       540   1.08           307.02274      131261.55     -807632.66     -9610.7894      0.36339095     0.056517442    27.382843      3634.6044    
       550   1.1            309.91012      139855.71     -807624.94     -9870.2631      0.36338313     0.058044558    27.377325      3634.2087    
       560   1.12           316.60068      139402.75     -807624.08     -9933.4493      0.36337518     0.058417419    27.365996      3633.8407    
       570   1.14           308.30991      142757.54     -807619.85     -10029.162      0.36336707     0.058981606    27.348982      3633.5127    
       580   1.16           318.48509      135637.68     -807628.35     -9808.8089      0.36335883     0.057687018    27.338199      3633.208     
       590   1.18           320.57305      134236.68     -807632.02     -9696.0125      0.36335044     0.057024963    27.27412       3633.046     
       600   1.2            297.88325      127047.16     -807637.52     -9425.2297      0.36334191     0.055433715    27.248396      3632.9345    
       610   1.22           306.05099      129395.97     -807637.74     -9450.8386      0.36333324     0.055585658    27.314214      3632.6706    
       620   1.24           306.76308      126784.36     -807637.43     -9470.3799      0.36332442     0.055701943    27.326704      3632.3766    
       630   1.26           309.46748      135450.92     -807629.73     -9726.7926      0.36331546     0.057211497    27.246898      3632.2494    
       640   1.28           313.47529      136786.71     -807626.64     -9849.1824      0.36330636     0.057932826    27.290183      3632.0243    
       650   1.3            307.6662       142289.25     -807620.83     -10007.828      0.36329711     0.058867478    27.23662       3631.9049    
       660   1.32           298.52906      139392.99     -807621.98     -9933.2621      0.36328772     0.05843038     27.249988      3631.751     
       670   1.34           320.80622      136961.27     -807628.05     -9838.0413      0.36327819     0.057871782    27.185181      3631.7203    
       680   1.36           305.14104      130793.75     -807632.78     -9616.8667      0.36326851     0.05657224     27.220076      3631.6109    
       690   1.38           304.28206      128746.31     -807637        -9476.6924      0.36325869     0.055749157    27.21183       3631.5102    
       700   1.4            299.7233       126853.49     -807638.13     -9422.953       0.36324873     0.055434541    27.28518       3631.2615    
       710   1.42           308.86549      130061.49     -807636.38     -9519.2767      0.36323863     0.056002765    27.349071      3630.8898    
       720   1.44           312.85661      133220.53     -807630.86     -9717.2343      0.36322838     0.05716898     27.346433      3630.5232    
       730   1.46           316.31758      138188.72     -807626.48     -9871.4878      0.36321798     0.058078155    27.354943      3630.1411    
       740   1.48           302.76992      141118.26     -807621.27     -9977.5835      0.36320745     0.058704064    27.354092      3629.7609    
       750   1.5            312.32335      139137.2      -807623.79     -9938.0542      0.36319677     0.058473208    27.348146      3629.3917    
       760   1.52           315.15147      136014.79     -807629.1      -9779.551       0.36318595     0.057542327    27.361844      3628.9987    
       770   1.54           314.63738      131191.1      -807635.33     -9576.8073      0.36317498     0.056351096    27.302506      3628.7087    
       780   1.56           302.29989      128556.54     -807637.42     -9452.1661      0.36316387     0.055619394    27.292071      3628.4347    
       790   1.58           297.23525      128096.37     -807637.55     -9422.1427      0.36315262     0.055444445    27.277622      3628.1827    
       800   1.6            311.80593      129911.67     -807636        -9534.7837      0.36314122     0.056109039    27.29089       3627.9056    
       810   1.62           315.95722      134761.66     -807630.29     -9734.2867      0.36312968     0.057284868    27.333403      3627.5566    
       820   1.64           305.2482       140055.96     -807623.33     -9905.9667      0.363118       0.058297056    27.290958      3627.2761    
       830   1.66           315.96642      141222.05     -807622.63     -9971.9888      0.36310618     0.05868751     27.289481      3626.9957    
       840   1.68           309.73398      139588.7      -807623.64     -9905.2038      0.36309421     0.058296386    27.304271      3626.69      
       850   1.7            321.26987      134348.78     -807629.93     -9750.3289      0.3630821      0.057386795    27.312927      3626.3693    
       860   1.72           306.31121      130402.24     -807633.67     -9558.3315      0.36306984     0.056258669    27.295698      3626.0741    
       870   1.74           308.12415      127931.81     -807637.94     -9423.5006      0.36305745     0.055466972    27.286297      3625.7916    
       880   1.76           306.68858      128262.44     -807636.85     -9444.8978      0.3630449      0.055594836    27.310148      3625.4713    
       890   1.78           313.66072      129174.62     -807634.03     -9563.506       0.36303222     0.056294959    27.285708      3625.1864    
       900   1.8            317.46658      136801.5      -807627.25     -9790.8186      0.36301939     0.057635056    27.261338      3624.9358    
       910   1.82           306.8227       138606.51     -807622.32     -9899.0179      0.36300642     0.058274068    27.267137      3624.6741    
       920   1.84           321.29827      141147.44     -807621.23     -9988.7142      0.36299331     0.058804222    27.280385      3624.391     
       930   1.86           321.08103      137184.04     -807625.68     -9842.6768      0.36298005     0.057946606    27.237851      3624.1671    
       940   1.88           318.20526      136642.61     -807627.68     -9756.536       0.36296665     0.057441592    27.270762      3623.8934    
       950   1.9            310.95395      129688.32     -807634.18     -9515.8412      0.36295311     0.056026592    27.274336      3623.6127    
       960   1.92           308.30914      129787.68     -807636.09     -9433.9028      0.36293942     0.055546257    27.276684      3623.327     
       970   1.94           325.90873      126208.21     -807639.76     -9396.6074      0.36292559     0.055328771    27.30116       3623.0061    
       980   1.96           311.84245      133373.18     -807630.22     -9633.654       0.36291162     0.056726725    27.332571      3622.6417    
       990   1.98           318.709        134556.36     -807628.19     -9731.7699      0.3628975      0.057306699    27.297257      3622.3247    
      1000   2              320.34385      140589.68     -807622.49     -9913.6782      0.36288325     0.058380181    27.206983      3622.1269    
      1010   2.02           322.95924      138432.4      -807623.83     -308.98041      0.36286884     0.058227586    27.385722      3621.6907    
      1020   2.04           312.43386      139671.42     -807622.13     -309.0439       0.3628543      0.058241885    27.362553      3621.2859    
      1030   2.06           320.80902      131794.27     -807630.88     -301.60549      0.36283961     0.056842356    27.354084      3620.8927    
      1040   2.08           322.23665      131412.06     -807635.16     -297.40887      0.36282478     0.056053728    27.359019      3620.4938    
      1050   2.1            304.41561      127091.09     -807635.93     -294.29492      0.3628098      0.05546912     27.366026      3620.0867    
      1060   2.12           308.23722      130165.14     -807633.92     -296.84436      0.36279469     0.055951972    27.367181      3619.6789    
      1070   2.14           320.14877      132715.22     -807631.59     -301.0252       0.36277943     0.056742403    27.368081      3619.2709    
      1080   2.16           335.74707      136882.46     -807628.33     -306.56644      0.36276402     0.057789365    27.354733      3618.8799    
      1090   2.18           311.72441      140411.13     -807622.15     -309.52697      0.36274848     0.05834994     27.352951      3618.4916    
      1100   2.2            317.30143      139690.93     -807623.39     -309.31923      0.36273279     0.0583133      27.35236       3618.1044    
      1110   2.22           321.05488      137384.65     -807626.77     -306.65117      0.36271695     0.057812837    27.369483      3617.6972    
      1120   2.24           308.52467      132811.56     -807631.65     -300.32526      0.36270098     0.056622709    27.372979      3617.2866    
      1130   2.26           302.77448      130476.51     -807633.93     -297.43343      0.36268486     0.056079983    27.356624      3616.896     
      1140   2.28           295.10785      128437.96     -807635.79     -294.77128      0.3626686      0.055580535    27.36009       3616.5018    
      1150   2.3            308.81486      130449.46     -807635.01     -297.68684      0.36265219     0.056132818    27.392402      3616.071     
      1160   2.32           313.00266      132417.68     -807632.83     -300.73846      0.36263564     0.056710829    27.406537      3615.6253    
      1170   2.34           314.38157      137374.35     -807626.91     -307.01734      0.36261895     0.057897515    27.371948      3615.2199    
      1180   2.36           302.70865      137929.32     -807623.54     -309.00824      0.36260212     0.058275664    27.425336      3614.7557    
      1190   2.38           312.51625      139395.32     -807624.9      -309.12213      0.36258514     0.058299873    27.449811      3614.2661    
      1200   2.4            311.02697      135226.93     -807629.13     -304.89769      0.36256802     0.057505867    27.423666      3613.8072    
      1210   2.42           303.64614      133985.02     -807630.98     -302.1204       0.36255076     0.056984764    27.366554      3613.412     
      1220   2.44           295.39231      129850.82     -807635.29     -296.75311      0.36253335     0.055975093    27.373947      3613.0093    
      1230   2.46           305.5818       129542.87     -807637.79     -295.63296      0.3625158      0.055766504    27.395221      3612.5845    
      1240   2.48           299.3022       129652.03     -807636.44     -296.25872      0.36249811     0.055887272    27.373784      3612.1833    
      1250   2.5            311.70992      133210.6      -807631.12     -303.33356      0.36248028     0.05722471     27.368981      3611.7878    
      1260   2.52           303.17943      135994.34     -807627.74     -305.62133      0.3624623      0.057659163    27.346546      3611.4163    
      1270   2.54           303.76458      139107.85     -807624.89     -308.51432      0.36244418     0.05820787     27.327839      3611.0643    
      1280   2.56           309.41654      138038.09     -807626.11     -308.04046      0.36242592     0.058121396    27.344613      3610.6948    
      1290   2.58           308.48146      135943.33     -807628.05     -305.88086      0.36240751     0.057716851    27.356097      3610.3136    
      1300   2.6            300.78253      132277.87     -807632.43     -300.36219      0.36238896     0.056678431    27.248804      3610.0419    
      1310   2.62           306.10399      129221.94     -807637.96     -295.4615       0.36237027     0.055756546    27.223164      3609.7948    
      1320   2.64           304.17339      129008.74     -807637        -296.07559      0.36235143     0.055875335    27.251713      3609.5171    
      1330   2.66           304.61645      130318.45     -807635.24     -297.89155      0.36233245     0.056220986    27.277875      3609.212     
      1340   2.68           306.82984      134170.95     -807630.9      -302.39365      0.36231333     0.057073679    27.350699      3608.8341    
      1350   2.7            304.65897      136629.44     -807627.7      -305.28901      0.36229407     0.057623213    27.363761      3608.4436    
      1360   2.72           302.7665       140528.67     -807623.58     -308.95664      0.36227466     0.058318599    27.387838      3608.0302    
      1370   2.74           314.33643      138021.87     -807626.31     -307.7804       0.36225511     0.058099709    27.452516      3607.5555    
      1380   2.76           299.2996       136682.86     -807627.74     -304.07545      0.36223542     0.057403446    27.379904      3607.1515    
      1390   2.78           307.86701      130955.91     -807634.42     -298.45554      0.36221558     0.056345604    27.361418      3606.7656    
      1400   2.8            301.42217      130408.35     -807635.1      -296.69061      0.3621956      0.05601549     27.376087      3606.3661    
      1410   2.82           303.04602      128030.84     -807636.04     -295.91673      0.36217548     0.055872484    27.441841      3605.906     
      1420   2.84           306.23366      131525.37     -807633.74     -298.47839      0.36215522     0.056359309    27.448811      3605.4407    
      1430   2.86           313.41066      132500.46     -807632.46     -300.72411      0.36213481     0.056786551    27.415206      3605.0077    
      1440   2.88           320.07305      138301.92     -807626.46     -307.43078      0.36211426     0.058056285    27.375621      3604.6117    
      1450   2.9            307.02411      139083.96     -807622.97     -309.1028       0.36209357     0.05837537     27.449001      3604.1497    
      1460   2.92           314.03838      139709.5      -807625.42     -307.42469      0.36207273     0.058061792    27.444281      3603.6933    
      1470   2.94           313.32025      134416.99     -807630.24     -302.43707      0.36205176     0.057123115    27.414776      3603.2645    
      1480   2.96           300.71788      133788.89     -807630.37     -300.42908      0.36203064     0.056747163    27.302451      3602.9364    
      1490   2.98           306.31547      128961.53     -807635.03     -296.50952      0.36200937     0.0560101      27.353018      3602.563     
      1500   3              303.64217      129395.75     -807636.52     -294.48729      0.36198796     0.055631394    27.377108      3602.1687    
      1510   3.02           311.73854      130305.9      -807635.02     -9506.6762      0.36196642     0.056125208    27.325159      3601.82      
      1520   3.04           318.7234       135124.42     -807628.92     -9731.7692      0.36194472     0.057457548    27.375967      3601.4271    
      1530   3.06           317.57651      136831.49     -807626.28     -9812.1225      0.36192289     0.057935459    27.342258      3601.0635    
      1540   3.08           317.11695      139631.04     -807624.89     -9851.5761      0.36190091     0.058171944    27.295966      3600.7395    
      1550   3.1            306.68298      137373.45     -807625.38     -9790.0198      0.36187879     0.057811998    27.256211      3600.449     
      1560   3.12           311.54121      135453.35     -807627.24     -9750.4717      0.36185653     0.057582001    27.262771      3600.1518    
      1570   3.14           310.97059      131028.6      -807633.25     -9554.3055      0.36183412     0.056427024    27.22292       3599.8875    
      1580   3.16           304.95598      129943.42     -807635.29     -9459.5675      0.36181157     0.055870989    27.178295      3599.6594    
      1590   3.18           311.57031      129755.21     -807636.21     -9460.8818      0.36178888     0.055882257    27.286317      3599.3395    
      1600   3.2            303.61997      132325.45     -807631.01     -9590.7803      0.36176605     0.056653099    27.344107      3598.9713    
      1610   3.22           312.78703      136299.12     -807628.56     -9709.5071      0.36174307     0.057358066    27.334616      3598.6108    
      1620   3.24           309.60355      137180.72     -807626.47     -9760.9669      0.36171995     0.057665746    27.327177      3598.2564    
      1630   3.26           312.89301      139668.31     -807623.82     -9859.6834      0.36169669     0.058252688    27.323188      3597.9051    
      1640   3.28           309.31208      136876.52     -807625.66     -9785.3299      0.36167329     0.057817136    27.322567      3597.554     
      1650   3.3            319.28992      135099.02     -807629.4      -9706.0207      0.36164974     0.057352268    27.300057      3597.2209    
      1660   3.32           308.69415      130807.87     -807634.52     -9497.2946      0.36162605     0.056122594    27.30931       3596.8799    
      1670   3.34           309.35577      130335.7      -807634.98     -9482.881       0.36160222     0.056041113    27.355877      3596.5019    
      1680   3.36           305.95222      128618.46     -807635.2      -9462.9374      0.36157824     0.05592696     27.383601      3596.1024    
      1690   3.38           308.0475       133847.76     -807631.47     -9591.1452      0.36155413     0.056688463    27.383475      3595.7034    
      1700   3.4            305.03074      133142.9      -807629.1      -9655.2116      0.36152987     0.057070957    27.370734      3595.3147    
      1710   3.42           320.09564      137916.63     -807626.76     -9795.8154      0.36150546     0.05790596     27.341465      3594.9487    
      1720   3.44           312.78239      136790.83     -807625.6      -9803.4047      0.36148092     0.057954758    27.288423      3594.6233    
      1730   3.46           313.83381      137971.55     -807625.74     -9799.628       0.36145623     0.057936388    27.290583      3594.2958    
      1740   3.48           313.06023      132559.47     -807632.27     -9590.1073      0.3614314      0.056701575    27.285502      3593.9717    
      1750   3.5            315.68431      131422.82     -807634.26     -9535.6392      0.36140643     0.056383428    27.252488      3593.672     
      1760   3.52           303.93935      129193.87     -807635.25     -9454.336       0.36138131     0.055906574    27.285934      3593.3465    
      1770   3.54           300.20475      131082.17     -807633.02     -9508.2973      0.36135605     0.056229595    27.338595      3592.9814    
      1780   3.56           320.04734      130781.33     -807634.71     -9543.3885      0.36133065     0.056441083    27.358796      3592.6013    
      1790   3.58           302.65743      136385.57     -807626.08     -9741.7529      0.36130511     0.057618314    27.367382      3592.2151    
      1800   3.6            318.84649      136888.04     -807626.69     -9797.7477      0.36127942     0.057953619    27.305098      3591.8746    
      1810   3.62           307.2816       139025.51     -807624.28     -9821.0834      0.3612536      0.058095803    27.260634      3591.5662    
      1820   3.64           314.10585      135983.18     -807629.05     -9699.5547      0.36122763     0.057381035    27.243134      3591.2699    
      1830   3.66           308.24941      133349.36     -807630.78     -9619.7352      0.36120151     0.05691295     27.299897      3590.9319    
      1840   3.68           297.75175      131108.79     -807632.37     -9522.823       0.36117526     0.056343687    27.297982      3590.5949    
      1850   3.7            303.70424      128760.27     -807636.28     -9426.5761      0.36114886     0.055778299    27.343524      3590.2253    
      1860   3.72           300.76189      131347.49     -807634.39     -9475.4926      0.36112232     0.056071865    27.3199        3589.8724    
      1870   3.74           315.16174      131300.85     -807633.26     -9581.2852      0.36109564     0.05670209     27.322752      3589.5173    
      1880   3.76           305.23208      136797.27     -807627.04     -9736.2486      0.36106881     0.057623445    27.303422      3589.1756    
      1890   3.78           315.12333      135546.04     -807629.14     -9719.1278      0.36104184     0.057526412    27.295609      3588.8392    
      1900   3.8            311.10437      138101.41     -807626.18     -9796.8924      0.36101474     0.057991047    27.312437      3588.4907    
      1910   3.82           305.02518      134160.27     -807629.42     -9674.2328      0.36098748     0.057269308    27.309103      3588.1444    
      1920   3.84           314.25064      134376.77     -807631.12     -9660.8497      0.36096009     0.057194422    27.355602      3587.766     
      1930   3.86           291.3557       129035.57     -807635.37     -9433.3188      0.36093255     0.055851649    27.344291      3587.3955    
      1940   3.88           305.8437       132027.54     -807635.4      -9496.6016      0.36090487     0.056230638    27.382717      3586.9991    
      1950   3.9            303.69981      128622.8      -807635.66     -9489.1448      0.36087705     0.056190817    27.385938      3586.6009    
      1960   3.92           301.66536      135109.18     -807629.82     -9667.63        0.36084909     0.05725217     27.38849       3586.2012    
      1970   3.94           292.98801      133583.92     -807629.46     -9650.0044      0.36082098     0.057152242    27.345399      3585.8306    
      1980   3.96           308.11016      139534.98     -807626.4      -9813.3618      0.36079273     0.058124278    27.305869      3585.4863    
      1990   3.98           296.82428      134751.63     -807627.89     -9724.6898      0.36076434     0.057603609    27.33597       3585.1218    
      2000   4              300.098        136933.06     -807628.19     -9726.8577      0.36073581     0.057621008    27.360328      3584.7413    
      2010   4.02           298.35502      130089.98     -807635.36     -296.69523      0.36070713     0.056247517    27.441311      3584.3085    
      2020   4.04           309.22738      132101.37     -807636.31     -297.12541      0.36067831     0.056333571    27.435533      3583.88      
      2030   4.06           293.56108      127793.42     -807636.51     -294.8937       0.36064935     0.055914938    27.411093      3583.4679    
      2040   4.08           298.48787      132493.68     -807632.98     -298.978        0.36062025     0.05669394     27.424618      3583.0475    
      2050   4.1            301.66849      131446.2      -807634.41     -298.03083      0.36059101     0.056518916    27.36405       3582.6663    
      2060   4.12           299.22232      136921.88     -807628.36     -303.59781      0.36056162     0.057579336    27.365578      3582.2843    
      2070   4.14           296.86816      136491.33     -807626.63     -305.02829      0.36053209     0.057855374    27.378754      3581.8941    
      2080   4.16           304.00728      136960.44     -807627.01     -305.39353      0.36050242     0.057929417    27.362487      3581.5144    
      2090   4.18           303.30771      133051.88     -807632.39     -299.73415      0.36047261     0.056860604    27.351082      3581.1419    
      2100   4.2            303.29446      131487.37     -807633.97     -297.96733      0.36044265     0.056530131    27.369783      3580.7579    
      2110   4.22           304.29198      129976.15     -807634.8      -297.06138      0.36041256     0.056362961    27.360631      3580.3797    
      2120   4.24           302.6467       129892.05     -807635        -296.35006      0.36038232     0.056232717    27.350899      3580.0076    
      2130   4.26           304.93572      131913.64     -807633.87     -297.47436      0.36035193     0.056450812    27.302172      3579.6656    
      2140   4.28           308.6478       132795.63     -807631.81     -299.79556      0.36032141     0.056896119    27.302865      3579.3229    
      2150   4.3            309.46462      136653.67     -807626.21     -305.18799      0.36029075     0.057924441    27.335918      3578.9599    
      2160   4.32           309.17493      134950.06     -807626.84     -304.20851      0.36025994     0.057743475    27.346621      3578.5903    
      2170   4.34           315.52016      136432.09     -807629.07     -302.40366      0.36022899     0.057405818    27.379769      3578.2008    
      2180   4.36           303.0559       132416.2      -807630.91     -298.70065      0.36019789     0.056707763    27.382021      3577.8102    
      2190   4.38           318.8932       133319.22     -807631.99     -299.50388      0.36016666     0.056865186    27.390984      3577.4145    
      2200   4.4            307.24656      128132.54     -807635.14     -294.57332      0.36013528     0.055933919    27.371855      3577.0304    
      2210   4.42           299.48362      133074.48     -807632.25     -296.04098      0.36010377     0.056217521    27.373211      3576.6457    
      2220   4.44           300.81845      130001.37     -807632.27     -296.22343      0.36007211     0.056257113    27.361959      3576.2677    
      2230   4.46           318.24862      136543.57     -807626.84     -303.77337      0.3600403      0.057696052    27.39569       3575.8702    
      2240   4.48           314.3523       134101.91     -807627.73     -302.37145      0.36000836     0.057434879    27.415319      3575.4615    
      2250   4.5            311.84571      139691.44     -807624.94     -304.48316      0.35997627     0.057841151    27.385326      3575.0706    
      2260   4.52           315.22088      133476.43     -807630.3      -299.668        0.35994404     0.056931535    27.312531      3574.722     
      2270   4.54           312.40526      136425.42     -807627.3      -302.09849      0.35991167     0.057398446    27.415376      3574.3141    
      2280   4.56           318.58969      128940.27     -807634.2      -296.1081       0.35987916     0.056265361    27.416473      3573.906     
      2290   4.58           317.41713      131910.45     -807634.29     -295.63309      0.35984651     0.056180198    27.385404      3573.5159    
      2300   4.6            309.00908      128429.66     -807635.04     -293.83483      0.35981371     0.055843558    27.343513      3573.1497    
      2310   4.62           315.7582       134608.79     -807629.22     -300.48068      0.35978077     0.057111836    27.396314      3572.7538    
      2320   4.64           316.55577      133894.24     -807629.18     -300.79206      0.35974769     0.057176275    27.38949       3572.362     
      2330   4.66           313.03661      138080.73     -807626.99     -302.31388      0.35971447     0.057470859    27.369103      3571.9818    
      2340   4.68           327.3444       136174.85     -807629.07     -302.28467      0.35968111     0.057470638    27.396314      3571.5866    
      2350   4.7            313.00551      135479.21     -807626.43     -302.93714      0.3596476      0.057600052    27.364296      3571.2093    
      2360   4.72           315.31857      132705.98     -807630.75     -298.97022      0.35961396     0.056851105    27.386986      3570.8197    
      2370   4.74           315.72245      130305.93     -807635.81     -293.94869      0.35958017     0.055901481    27.360568      3570.4448    
      2380   4.76           310.22831      130187.62     -807633.86     -295.15108      0.35954624     0.056135443    27.326762      3570.0885    
      2390   4.78           312.09932      130511.33     -807633.2      -296.19251      0.35951216     0.056338853    27.367895      3569.7097    
      2400   4.8            313.40756      134138.42     -807630.68     -298.90905      0.35947795     0.056860978    27.358268      3569.3362    
      2410   4.82           311.73208      133683.91     -807630.95     -298.53838      0.35944359     0.056795895    27.36153       3568.961     
      2420   4.84           312.44357      137647.52     -807626.71     -302.91226      0.35940909     0.057633541    27.373289      3568.5796    
      2430   4.86           314.6119       135440.73     -807627.63     -302.52221      0.35937446     0.057564876    27.343284      3568.2144    
      2440   4.88           311.55293      136079.55     -807627.87     -301.89247      0.35933967     0.057450607    27.334681      3567.8537    
      2450   4.9            307.97633      131651.65     -807632.87     -296.54639      0.35930475     0.056438726    27.330136      3567.4955    
      2460   4.92           302.99903      132657.69     -807632.64     -296.17671      0.35926969     0.056373869    27.360333      3567.1212    
      2470   4.94           315.06094      129491.27     -807635.1      -295.6166       0.35923448     0.056272774    27.395124      3566.7286    
      2480   4.96           302.5901       131746.8      -807632.16     -296.88084      0.35919913     0.056518993    27.389695      3566.3392    
      2490   4.98           308.45959      130981.03     -807634.05     -296.00351      0.35916364     0.056357537    27.425984      3565.931     
      2500   5              308.98215      136078.14     -807629.01     -301.26254      0.35912801     0.05736452     27.430871      3565.5205    
[...]
     98740   197.48         307.51847      133724.15     -807631.98     -9659.382       0.36236891     0.056963406    28.326647      43.266814    
     98750   197.5          303.63742      134612.46     -807629.94     -9704.9156      0.36238762     0.057228973    28.351209      42.923545    
     98760   197.52         304.4387       135181.89     -807629.38     -9722.3134      0.36240618     0.057328631    28.371512      42.58027     
     98770   197.54         305.43226      134404.61     -807630.17     -9698.2039      0.36242459     0.05718356     28.38711       42.236992    
     98780   197.56         309.79577      134452.68     -807631.35     -9676.2899      0.36244287     0.057051472    28.370792      41.893714    
     98790   197.58         300.83079      132873.82     -807630.7      -9655.0294      0.362461       0.056923273    28.331524      41.55044     
     98800   197.6          309.72665      132989.13     -807632.13     -9644.7801      0.36247899     0.056860024    28.280936      41.207172    
     98810   197.62         304.45704      132397.08     -807632.4      -9609.2298      0.36249683     0.056647651    28.262453      40.863904    
     98820   197.64         299.6773       133971.78     -807629.44     -9679.6238      0.36251453     0.057059846    28.300612      40.520629    
     98830   197.66         307.86602      133517.42     -807630.45     -9681.2797      0.36253209     0.057066843    28.348077      40.177345    
     98840   197.68         310.79056      135460.46     -807628.78     -9742.9862      0.36254951     0.057427817    28.370275      39.834055    
     98850   197.7          309.63684      134616.32     -807629.53     -9710.6654      0.36256678     0.057234582    28.410603      39.490758    
     98860   197.72         309.26649      134830.8      -807629.54     -9706.5335      0.36258391     0.057207526    28.384583      39.147463    
     98870   197.74         309.71104      134106.96     -807630        -9689.3         0.3626009      0.057103282    28.346662      38.804171    
     98880   197.76         319.65489      132901.81     -807632.26     -9658.9067      0.36261774     0.056921516    28.34177       38.460878    
     98890   197.78         311.61179      133428.62     -807632.19     -9622.4099      0.36263445     0.056703823    28.329909      38.117585    
     98900   197.8          298.15784      133285.2      -807630.55     -9612.3423      0.362651       0.056641909    28.360812      37.774286    
     98910   197.82         306.92289      133508.54     -807629.5      -9684.1837      0.36266742     0.057062661    28.390628      37.430981    
     98920   197.84         308.2352       134347.29     -807629.82     -9677.7056      0.36268369     0.057021931    28.389046      37.087674    
     98930   197.86         311.6306       135457.33     -807629.01     -9715.9669      0.36269982     0.057244824    28.375824      36.744367    
     98940   197.88         312.22735      134384.05     -807629.01     -9717.5729      0.36271581     0.057251763    28.385675      36.401057    
     98950   197.9          318.54663      136073.3      -807628.06     -9773.7226      0.36273165     0.057580058    28.370179      36.057747    
     98960   197.92         321.61884      133221.77     -807631.8      -9668.2908      0.36274735     0.056956461    28.366419      35.714435    
     98970   197.94         319.92776      133909.32     -807631.48     -9667.1052      0.36276291     0.056947034    28.358694      35.371123    
     98980   197.96         304.39944      131849.27     -807631.1      -9611.5651      0.36277832     0.056617452    28.334579      35.027812    
     98990   197.98         307.96079      134234.21     -807629.75     -9669.2738      0.36279359     0.056954991    28.351355      34.684497    
     99000   198            303.89253      132626.64     -807630.02     -9643.6499      0.36280872     0.05680169     28.32797       34.341184    
     99010   198.02         315.49614      134634.7      -807630.09     -302.80619      0.3628237      0.05707115     28.442547      33.997853    
     99020   198.04         317.41581      134930.6      -807629.4      -303.81058      0.36283855     0.057258108    28.37452       33.65453     
     99030   198.06         312.23291      136325.17     -807627.13     -305.39364      0.36285324     0.057554131    28.373974      33.311205    
     99040   198.08         316.25271      134137.69     -807629.18     -303.95346      0.3628678      0.057280418    28.385832      32.967876    
     99050   198.1          315.6531       134397.11     -807630.58     -302.45517      0.36288221     0.0569958      28.370444      32.624548    
     99060   198.12         303.14702      133067.83     -807629.82     -301.57686      0.36289648     0.056828053    28.3691        32.281218    
     99070   198.14         311.03748      133062.1      -807630.67     -301.83413      0.36291061     0.056874319    28.356363      31.937887    
     99080   198.16         311.8205       132417.78     -807631.67     -301.01969      0.36292459     0.056718668    28.37294       31.594553    
     99090   198.18         311.15019      133445.68     -807630.56     -302.0858       0.36293843     0.056917377    28.367543      31.251217    
     99100   198.2          311.57034      133418.27     -807629.21     -303.64505      0.36295213     0.057209003    28.33897       30.907883    
     99110   198.22         318.85354      135115.68     -807628.34     -305.62533      0.36296568     0.057579953    28.343021      30.564547    
     99120   198.24         305.92353      135081.12     -807628.68     -303.75965      0.36297909     0.057226343    28.357397      30.221207    
     99130   198.26         309.87175      136092.62     -807629.23     -303.89128      0.36299236     0.057249049    28.356813      29.877865    
     99140   198.28         307.95761      133053.02     -807629.71     -303.48669      0.36300548     0.057170763    28.385787      29.534518    
     99150   198.3          310.54875      132737.73     -807631.25     -302.55652      0.36301846     0.056993499    28.426758      29.191165    
     99160   198.32         313.0058       131227.8      -807633.77     -300.76818      0.3630313      0.05665462     28.444468      28.847809    
     99170   198.34         302.9264       132502.37     -807632.37     -301.11782      0.36304399     0.056718497    28.379266      28.504457    
     99180   198.36         306.82825      132955.5      -807631.81     -302.5977       0.36305655     0.056995277    28.403412      28.161101    
     99190   198.38         301.27582      134211.77     -807629.52     -304.45494      0.36306895     0.057343135    28.382518      27.817746    
     99200   198.4          305.47334      134942.17     -807630.99     -303.80118      0.36308122     0.057218068    28.428671      27.474384    
     99210   198.42         301.47617      134074.76     -807630.32     -304.17321      0.36309334     0.057286224    28.45639       27.131018    
     99220   198.44         301.31446      135198.22     -807629.27     -305.30419      0.36310532     0.05749733     28.461136      26.78765     
     99230   198.46         297.43306      132608.91     -807631.44     -302.85598      0.36311715     0.057034404    28.426956      26.444283    
     99240   198.48         299.51083      132961.24     -807632.5      -302.09755      0.36312885     0.056889743    28.465453      26.100911    
     99250   198.5          297.43204      131535.9      -807633.82     -300.66169      0.3631404      0.056617547    28.474749      25.757537    
     99260   198.52         291.55163      134211.09     -807630.55     -303.11108      0.3631518      0.057076999    28.461334      25.414162    
     99270   198.54         305.58771      132368.09     -807633.14     -302.518        0.36316306     0.056963554    28.411844      25.07079     
     99280   198.56         298.86842      134405.4      -807630.64     -304.04244      0.36317418     0.057248849    28.409516      24.727417    
     99290   198.58         308.3119       133969.09     -807632.47     -303.58463      0.36318516     0.057160919    28.383604      24.384044    
     99300   198.6          298.24492      135489.72     -807629.05     -305.46595      0.36319599     0.057513431    28.427305      24.040665    
     99310   198.62         303.35756      133357.58     -807630.93     -304.2039       0.36320668     0.057274125    28.405548      23.697287    
     99320   198.64         307.18905      133701.26     -807633.51     -302.07313      0.36321723     0.056871302    28.416789      23.353906    
     99330   198.66         294.24583      132419.87     -807632.13     -301.5202       0.36322763     0.056765577    28.40907       23.010524    
     99340   198.68         308.61308      132074.03     -807632.83     -302.61667      0.36323789     0.056970393    28.401294      22.667141    
     99350   198.7          300.20113      133007.02     -807632.03     -302.02628      0.36324801     0.056857665    28.383829      22.323757    
     99360   198.72         303.50409      133430.4      -807631.79     -302.54215      0.36325798     0.056953215    28.363711      21.980374    
     99370   198.74         303.03468      135090.75     -807629.34     -304.65798      0.36326781     0.057349965    28.335432      21.63699     
     99380   198.76         308.55754      134668.55     -807629.54     -304.97996      0.3632775      0.057409045    28.376544      21.293602    
     99390   198.78         306.38719      135552.54     -807629.16     -304.78409      0.36328704     0.057370667    28.379103      20.950212    
     99400   198.8          300.93038      134399.42     -807630.27     -302.71713      0.36329644     0.056980121    28.376527      20.60682     
     99410   198.82         311.55092      133994.71     -807630.8      -303.36536      0.3633057      0.057100682    28.407841      20.263423    
     99420   198.84         314.9505       132050        -807632.53     -301.95719      0.36331481     0.056834204    28.364486      19.920029    
     99430   198.86         304.31884      134586.29     -807630.63     -302.16143      0.36332378     0.056871242    28.289558      19.576637    
     99440   198.88         310.45788      132283.25     -807632.8      -300.76185      0.36333261     0.056606445    28.380386      19.233238    
     99450   198.9          308.60565      134950.79     -807628.69     -304.37981      0.36334129     0.057286013    28.407148      18.889835    
     99460   198.92         309.37387      133950.28     -807629.97     -303.17823      0.36334983     0.057058527    28.441671      18.546427    
     99470   198.94         317.36188      135807.37     -807629.37     -304.7218       0.36335823     0.057347704    28.435283      18.203019    
     99480   198.96         312.01922      134129.62     -807629.39     -303.93823      0.36336648     0.057198939    28.479087      17.859606    
     99490   198.98         311.8398       135521.65     -807629.38     -303.76101      0.3633746      0.057164313    28.470338      17.516192    
     99500   199            316.5191       132763.82     -807630.98     -302.8309       0.36338256     0.056988028    28.441518      17.172778    
     99510   199.02         309.10549      134096.76     -807629.72     -9694.7119      0.36339039     0.057011046    28.387571      16.829366    
     99520   199.04         310.52098      133054.56     -807631.3      -9650.1027      0.36339807     0.056747516    28.373783      16.485953    
     99530   199.06         315.12673      133832.8      -807630.32     -9700.4315      0.3634056      0.057042293    28.374075      16.142538    
     99540   199.08         317.90827      134847.31     -807629.93     -9725.0714      0.363413       0.057186021    28.343329      15.799123    
     99550   199.1          315.44248      134813.15     -807629.35     -9732.9991      0.36342025     0.057231496    28.329932      15.455706    
     99560   199.12         320.6968       134513.83     -807630.11     -9732.5183      0.36342736     0.05722755     28.344513      15.112288    
     99570   199.14         314.81603      134432.27     -807629.29     -9733.0865      0.36343432     0.057229794    28.347796      14.768867    
     99580   199.16         299.74909      134884.67     -807627.18     -9733.6964      0.36344114     0.057232307    28.388793      14.425442    
     99590   199.18         307.4156       134417.76     -807629.68     -9688.472       0.36344782     0.056965349    28.325734      14.082018    
     99600   199.2          306.6096       134111.47     -807630.25     -9666.6798      0.36345435     0.056836195    28.319185      13.738593    
     99610   199.22         321.79785      132427.72     -807632.2      -9671.6685      0.36346074     0.056864527    28.359486      13.395164    
     99620   199.24         318.82767      133841.55     -807630.21     -9721.7257      0.36346699     0.057157855    28.362671      13.051733    
     99630   199.26         315.97808      134010.56     -807630.77     -9693.9559      0.3634731      0.056993629    28.372524      12.7083      
     99640   199.28         315.03023      135267.98     -807629.28     -9737.1584      0.36347906     0.05724669     28.39141       12.364864    
     99650   199.3          303.33845      134708.79     -807627.98     -9732.8103      0.36348487     0.057220211    28.377815      12.021427    
     99660   199.32         308.39175      135252.58     -807628.04     -9753.8188      0.36349055     0.057342827    28.32407       11.67799     
     99670   199.34         300.49167      133778.14     -807628.86     -9696.2339      0.36349608     0.057003418    28.310097      11.334552    
     99680   199.36         305.91655      133869.42     -807629.86     -9689.9774      0.36350147     0.056965792    28.353651      10.991111    
     99690   199.38         318.23915      132635.59     -807632.1      -9678.8628      0.36350671     0.05689963     28.388275      10.647666    
     99700   199.4          308.13385      134420.48     -807630.23     -9696.4647      0.36351181     0.057002307    28.390701      10.304219    
     99710   199.42         311.44752      133209.42     -807630.83     -9695.7448      0.36351677     0.056997298    28.349654      9.9607719    
     99720   199.44         312.94234      133892.13     -807630.58     -9714.526       0.36352158     0.057106949    28.345086      9.6173232    
     99730   199.46         305.91754      134125.55     -807628.82     -9748.4978      0.36352625     0.057305916    28.376044      9.2738715    
     99740   199.48         307.0178       135370.62     -807628.4      -9770.6272      0.36353078     0.057435287    28.378991      8.930418     
     99750   199.5          304.38974      133773.16     -807629.52     -9730.5039      0.36353516     0.057198738    28.336672      8.586964     
     99760   199.52         313.25677      134161.3      -807631.22     -9724.0671      0.3635394      0.057160234    28.356201      8.2435075    
     99770   199.54         296.39873      134187.25     -807629.74     -9707.5026      0.3635435      0.057062221    28.375476      7.9000486    
     99780   199.56         301.01901      134380.28     -807630.23     -9720.4496      0.36354745     0.057137704    28.421697      7.5565867    
     99790   199.58         302.99818      132764.08     -807632.32     -9670.3975      0.36355126     0.056842897    28.392852      7.2131238    
     99800   199.6          296.79632      134326.51     -807630.2      -9721.1455      0.36355493     0.057140619    28.387707      6.8696594    
     99810   199.62         297.27069      133843.33     -807630.67     -9717.6249      0.36355845     0.057119372    28.393409      6.526193     
     99820   199.64         305.53642      134139.56     -807631.24     -9745.3362      0.36356183     0.057281724    28.362441      6.1827255    
     99830   199.66         297.45461      133591.35     -807631.37     -9712.2019      0.36356507     0.057086457    28.321364      5.8392571    
     99840   199.68         307.62128      135072.29     -807631.33     -9762.8485      0.36356816     0.05738366     28.316217      5.4957869    
     99850   199.7          284.19653      133890.4      -807629.04     -9738.1617      0.36357111     0.057238092    28.338455      5.1523143    
     99860   199.72         306.44453      133819.97     -807632.9      -9716.1917      0.36357392     0.057108518    28.373896      4.8088393    
     99870   199.74         293.35018      132726.2      -807632.58     -9670.4929      0.36357658     0.0568395      28.400179      4.465362     
     99880   199.76         304.99865      133293.92     -807633.23     -9700.9012      0.3635791      0.057017833    28.429451      4.1218825    
     99890   199.78         292.42063      132220.74     -807632.02     -9686.2727      0.36358148     0.056931481    28.349682      3.7784025    
     99900   199.8          297.69923      133255.84     -807632.06     -9706.0558      0.36358371     0.057047406    28.348285      3.4349206    
     99910   199.82         300.0742       133713.24     -807631.71     -9726.7821      0.3635858      0.057168897    28.333739      3.0914371    
     99920   199.84         294.91595      135008.96     -807629.45     -9772.4872      0.36358775     0.05743722     28.353893      2.7479514    
     99930   199.86         291.63892      135156.26     -807629.27     -9762.1011      0.36358955     0.057375892    28.35633       2.4044639    
     99940   199.88         291.16336      134465.19     -807629.95     -9733.1213      0.36359121     0.057205304    28.353399      2.0609746    
     99950   199.9          306.66115      133609.55     -807631.74     -9738.3439      0.36359273     0.057235761    28.386508      1.7174832    
     99960   199.92         289.8171       133198.01     -807630.12     -9709.1844      0.3635941      0.057064164    28.369297      1.3739902    
     99970   199.94         302.17282      133402.45     -807631.89     -9699.2557      0.36359533     0.057005617    28.363217      1.0304954    
     99980   199.96         303.17518      132256.51     -807632.55     -9675.73        0.36359641     0.056867179    28.343762      0.68699876   
     99990   199.98         307.74946      134269.15     -807631.14     -9733.3134      0.36359736     0.057205466    28.329562      0.34350033   
    100000   200            298.10226      133974.29     -807629.57     -9735.8462      0.36359816     0.057220226    28.323062      0            
Loop time of 3435.01 on 32 procs for 100000 steps with 1080 atoms

Performance: 5.031 ns/day, 4.771 hours/ns, 29.112 timesteps/s, 31.441 katom-step/s
62.0% CPU use with 32 MPI tasks x 1 OpenMP threads

MPI task timing breakdown:
Section |  min time  |  avg time  |  max time  |%varavg| %total
---------------------------------------------------------------
Pair    | 2537.7     | 2791.2     | 3086.2     | 234.4 | 81.26
Neigh   | 0.0016606  | 0.0017628  | 0.0019399  |   0.2 |  0.00
Comm    | 275.21     | 569.94     | 823.61     | 518.6 | 16.59
Output  | 2.3476     | 2.3567     | 2.365      |   0.3 |  0.07
Modify  | 64.674     | 65.132     | 66.292     |   4.4 |  1.90
Other   |            | 6.41       |            |       |  0.19

Nlocal:          33.75 ave          43 max          28 min
Histogram: 5 0 7 3 9 2 2 1 1 2
Nghost:        1038.34 ave        1052 max        1013 min
Histogram: 1 0 0 3 4 3 7 6 6 2
Neighs:              0 ave           0 max           0 min
Histogram: 32 0 0 0 0 0 0 0 0 0
FullNghs:      5352.19 ave        6867 max        4378 min
Histogram: 5 1 6 4 8 3 1 1 1 2

Total # of neighbors = 171270
Ave neighs/atom = 158.58333
Neighbor list builds = 4
Dangerous builds = 0

Total wall time: 1:00:39
