
units		metal
atom_style	atomic

read_data ${STRUCTURE}.data
read_data BaTiO3-sc333.data
Reading data file ...
  orthogonal box = (0 0 0) to (11.898253 11.898253 12.912076)
  2 by 4 by 4 MPI processor grid
  reading atoms ...
  135 atoms
  read_data CPU = 0.004 seconds
replicate $L $L $L
replicate 2 $L $L
replicate 2 2 $L
replicate 2 2 2
Replication is creating a 2x2x2 = 8 times larger system...
  orthogonal box = (0 0 0) to (23.796507 23.796507 25.824152)
  2 by 4 by 4 MPI processor grid
  1080 atoms
  replicate CPU = 0.003 seconds

pair_style allegro
pair_coeff	* * ${MODEL}.pth Ba Ti O
pair_coeff	* * BaTiO3-E0.pth Ba Ti O
mass 1 137.3
mass 2 47.9
mass 3 15.9994

timestep 0.002
compute polarization all allegro polarization 3
compute allegro will evaluate the quantity polarization of length 3 (src/compute_allegro.cpp:53)
compute polarizability all allegro polarizability 9
compute allegro will evaluate the quantity polarizability of length 9 (src/compute_allegro.cpp:53)

thermo_style custom pe fmax fnorm spcpu cpuremain

variable efield equal 1e-2*36.36
fix born all addbornforce 0.0 0.0 ${efield}
fix born all addbornforce 0.0 0.0 0.3636

thermo 10
min_style fire
#minimize 0.0 1e-6 100 100
velocity all create ${TEMP} ${SEED} dist gaussian rot yes mom yes
velocity all create 340 ${SEED} dist gaussian rot yes mom yes
velocity all create 340 27341 dist gaussian rot yes mom yes
fix nvt all nvt temp ${TEMP} ${TEMP} $(100*dt)
fix nvt all nvt temp 340 ${TEMP} $(100*dt)
fix nvt all nvt temp 340 340 $(100*dt)
fix nvt all nvt temp 340 340 0.2000000000000000111
run 5000
Neighbor list info ...
  update: every = 1 steps, delay = 0 steps, check = yes
  max neighbors/atom: 2000, page size: 100000
  master list distance cutoff = 8
  ghost atom cutoff = 8
  binsize = 8, bins = 3 3 4
  1 neighbor lists, perpetual/occasional/extra = 1 0 0
  (1) pair allegro/kk, perpetual
      attributes: full, newton on, kokkos_device
      pair build: full/bin/kk/device
      stencil: full/bin/3d
      bin: kk/device
Per MPI rank memory allocation (min/avg/max) = 3.516 | 3.516 | 3.516 Mbytes
    PotEng          Fmax          Fnorm          S/CPU         CPULeft    
-807708.29      1.5953476      37.04299       0              0            
-807645.61      3.4986904      44.944097      2.6586497      1876.8936    
-807633.68      2.5661996      35.85038       25.897689      1032.7137    
-807606.63      3.4775219      37.594877      25.905148      751.04466    
-807601.81      4.0345811      50.0997        25.849326      610.12037    
-807565.45      3.5521037      40.818929      25.783548      525.50881    
-807599.58      3.2365575      39.325868      25.885099      468.84654    
-807644.3       3.7993168      34.652389      25.875495      428.27322    
-807682.44      2.7506296      34.472688      25.832308      397.78634    
-807666.17      4.4360782      35.478888      25.848332      373.97521    
-807651.27      4.0538937      35.787254      25.89316       354.81611    
-807658.25      3.2200051      29.479194      25.873078      339.08361    
-807627.07      3.0636938      32.487817      25.927111      325.87599    
-807584.59      3.4929477      41.169519      25.870652      314.67252    
-807566.23      3.4929309      39.467002      25.928392      304.98444    
-807627.07      3.3363901      35.566345      25.881243      296.5594     
-807650.39      3.4315364      32.05027       25.892537      289.13409    
-807661.64      3.0078896      35.409394      25.891629      282.5373     
-807645.71      4.7748839      45.250306      25.91249       276.62225    
-807676.68      3.00091        37.326402      25.904604      271.29218    
-807641.29      4.443677       40.473161      25.913123      266.45347    
-807615.26      3.1844113      39.270143      25.959089      262.02325    
-807562.25      4.362634       46.073053      25.989424      257.951      
-807600.61      4.2019335      49.405712      25.917668      254.22148    
-807610.23      4.1039231      39.969009      25.85714       250.78851    
-807638.59      3.382232       35.975309      25.911894      247.58373    
-807639.34      4.6074545      45.667663      25.925758      244.592      
-807678.07      2.9387073      38.401625      25.871601      241.80747    
-807659.99      3.5918208      36.831498      25.823647      239.20631    
-807637.29      3.6135828      33.782662      25.900874      236.73909    
-807605.8       3.4395959      36.060982      25.908373      234.40887    
-807602.78      4.3120709      42.591203      25.875149      232.21157    
-807593.6       4.1290649      39.32596       25.770624      230.15038    
-807603.88      4.7965793      35.47959       25.830006      228.17796    
-807637.65      3.1946001      31.721149      25.891825      226.28613    
-807666.33      3.7306325      34.447062      25.875752      224.48352    
-807673.72      2.7885216      34.335362      25.827681      222.76886    
-807641.45      4.9738037      40.337875      25.915064      221.10961    
-807644.83      2.9046128      33.882385      25.923543      219.51585    
-807620.07      3.9285593      36.784951      25.925543      217.98369    
-807600.04      3.8725386      44.761923      25.863941      216.51941    
-807564.79      4.4637764      43.920292      25.866959      215.1072     
-807615.29      3.3414556      39.31312       25.902299      213.73808    
-807642.01      3.8575118      37.612305      25.912011      212.41313    
-807668.47      2.6602747      36.633116      25.876865      211.13631    
-807640.28      4.0979764      46.141685      25.888698      209.89727    
-807662.54      3.0547295      36.487617      25.906877      208.69263    
-807645.54      3.6236432      36.455566      25.862866      207.52916    
-807623.76      3.1807928      37.748465      25.885997      206.3948     
-807567.73      3.8268114      42.50497       25.914713      205.28704    
-807592.51      3.6426181      44.149875      25.903559      204.20965    
-807617.46      3.213096       36.162402      25.826283      203.16954    
-807648.43      2.9959141      33.871737      25.890678      202.14624    
-807640.22      4.3232427      40.715761      25.941466      201.1406     
-807665.88      3.074696       36.109816      25.906615      200.16222    
-807664.22      3.1559744      35.226735      25.825203      199.21522    
-807641.96      4.4038459      33.782732      25.840485      198.2864     
-807603.08      3.4191617      36.973393      25.934028      197.36575    
-807592.65      3.673246       39.735023      25.93005       196.46399    
-807599.69      4.3058795      42.497605      25.817543      195.59229    
-807611.72      3.3975672      34.582651      25.884093      194.72944    
-807631.03      3.1703104      34.070964      25.926345      193.87767    
-807656.83      3.850604       35.494374      25.913118      193.04233    
-807670.3       2.8277522      37.526367      25.847837      192.22802    
-807646.73      4.0208142      39.650686      25.819684      191.42994    
-807633.69      2.9394643      35.633661      25.907112      190.63575    
-807614.1       4.2537251      37.97255       25.925092      189.85218    
-807602.55      4.0897638      45.572833      25.881856      189.08464    
-807577.16      4.151836       41.896862      25.8616        188.33023    
-807606.46      3.372129       39.003471      25.929176      187.58019    
-807637.96      4.1031023      37.701052      25.937185      186.83983    
-807667.21      2.9116661      36.968479      25.85299       186.11705    
-807648.83      4.1915496      41.499977      25.808998      185.40752    
-807651.02      3.976321       36.547005      25.89611       184.6992     
-807641.23      3.5041398      36.361136      25.920727      183.99746    
-807627.2       2.9685943      36.695962      25.874443      183.30807    
-807581.53      3.119271       39.961366      25.887706      182.62554    
-807583.6       3.6208573      41.134669      25.914253      181.94853    
-807619.81      3.1891835      35.013944      25.894157      181.28061    
-807651.21      3.0280004      33.051087      25.891292      180.62004    
-807647.47      4.758585       37.216606      25.949971      179.96175    
-807655.02      3.6458012      36.681345      25.939252      179.31102    
-807661.96      3.3935002      35.170623      25.956044      178.66549    
-807644         3.3132902      34.513939      26.040217      178.01998    
-807609.49      2.8957605      36.632494      26.117017      177.3751     
-807585.66      3.9355651      39.420289      26.124751      176.73583    
-807601.42      3.667235       42.252824      26.095426      176.10459    
-807619.76      3.2865522      36.032946      26.089254      175.47949    
-807636.18      3.4696999      34.684427      26.137027      174.8566     
-807646.21      3.5933734      38.188687      26.078587      174.24307    
-807667.87      2.4562339      36.811813      25.992755      173.64042    
-807651.03      3.7168696      37.929878      26.021396      173.04066    
-807632.41      2.5959187      35.286832      26.094908      172.44078    
-807608.17      3.4355607      37.037199      26.182192      171.83997    
-807604.07      3.7103734      42.616302      26.068901      171.25099    
-807591.25      3.6886384      40.122876      26.048005      170.66764    
-807612.07      3.1337746      36.79375       26.064748      170.08741    
-807632.85      3.945471       37.362547      26.126491      169.50747    
-807663.61      4.0840096      36.306845      26.017197      168.93814    
-807655.54      3.5046685      38.120407      26.072147      168.36927    
-807646.21      3.3736175      36.086663      26.122116      167.80117    
-807635.56      3.8184843      34.959582      26.139842      167.23572    
-807623.99      3.9402638      36.110203      26.16601       166.67236    
-807593.12      3.7623424      39.182098      26.113621      166.11547    
-807583.07      4.4255133      40.046443      26.12827       165.56111    
-807616.84      3.7665728      34.320012      26.138162      165.00947    
-807648.44      4.1039564      34.164119      26.053247      164.46566    
-807655.76      3.0926865      34.981798      26.073928      163.92372    
-807645.72      3.9160206      38.73402       26.025128      163.38733    
-807655.43      3.3933295      34.7723        26.047962      162.85252    
-807640.59      3.069135       34.685451      26.028988      162.32144    
-807615.87      3.3161417      36.639835      26.001162      161.79445    
-807577.87      3.3940841      40.720952      26.117341      161.26408    
-807596.98      3.2387864      40.948941      26.055447      160.73943    
-807620.99      3.6233837      35.68496       26.070087      160.21653    
-807644.36      2.7835878      34.444679      26.054518      159.69681    
-807639.21      3.7432428      40.056494      26.083736      159.17802    
-807661.72      2.5890781      36.30768       26.103133      158.6606     
-807650.63      3.8762826      37.295467      25.997715      158.15049    
-807636.62      2.6730468      34.134682      26.130353      157.63624    
-807598.88      3.8771172      38.073309      25.998688      157.13032    
-807598.86      3.6373972      41.018495      26.115903      156.621      
-807596.33      3.9695334      38.762067      26.036817      156.11735    
-807618.12      2.75838        35.989288      26.091308      155.61319    
-807628.64      3.6840539      37.091546      26.100764      155.11056    
-807658.45      2.9032748      34.922324      26.089102      154.61035    
-807658.11      3.6995078      36.534749      26.050356      154.11369    
-807647.02      3.5925972      36.183541      26.032836      153.61957    
-807626.74      3.3883848      35.892654      26.172309      153.12121    
-807615.46      3.3514116      36.369337      26.184849      152.62413    
-807599.7       3.5271148      39.79014       26.002711      152.13644    
-807593.31      3.7276198      39.06206       26.086094      151.64686    
-807613.05      3.1546715      35.516439      26.115383      151.15769    
-807644.03      3.2342919      34.392624      26.136912      150.66925    
-807658.62      2.8263576      35.314142      26.042741      150.18616    
-807648.11      3.8569313      37.433711      25.984897      149.70686    
-807646.53      3.3427693      35.092565      26.06779       149.22567    
-807635.56      3.5671853      34.370744      26.133229      148.74336    
-807619.34      3.5861023      37.21444       26.080435      148.26452    
-807584.19      4.8103528      41.079391      26.064668      147.78766    
-807597.82      3.471079       39.706238      26.0215        147.31377    
-807621.79      4.2469467      37.000863      26.025099      146.84101    
-807649.24      3.294879       34.744282      26.050858      146.36854    
-807640.96      3.7424405      39.340085      26.115302      145.89495    
-807654.16      3.2353189      36.209408      26.122125      145.42237    
-807651.31      3.3724666      35.908561      26.006782      144.95518    
-807636.2       2.7413412      34.469155      26.056495      144.48735    
-807601.14      3.4786382      36.66901       26.062125      144.02046    
-807593.75      3.4794608      39.86101       26.113312      143.55291    
-807605.23      3.4003776      38.206042      26.021618      143.08967    
-807627.55      3.0050146      35.695212      26.052214      142.62643    
-807635.92      3.5728083      35.552108      26.124175      142.1618     
-807653.59      3.4394369      35.240782      26.12488       141.69822    
-807657.3       3.5096064      36.006048      26.058382      141.23792    
-807647.37      3.0181672      35.033037      25.992482      140.78079    
-807624.74      3.2931748      35.023529      16.619522      140.80754    
-807608.64      3.1489495      36.007005      7.3812701      142.48687    
-807602.62      3.2231714      39.098665      16.874136      142.46246    
-807605.49      3.3708301      37.592674      26.024778      141.97981    
-807619.69      3.810016       35.059929      26.107136      141.49581    
-807640.97      3.8551414      34.718386      26.138978      141.01207    
-807660.58      2.9378078      34.97243       10.948463      141.64723    
-807651.02      3.7465834      35.988867      26.027228      141.15924    
-807642.03      3.07118        34.583424      26.105422      140.67014    
-807627.19      3.2930573      33.757765      18.429573      140.5092     
-807618.53      3.581905       36.612545      26.018791      140.0223     
-807596.23      3.2827477      37.363146      22.088997      139.67422    
-807601.48      3.3862308      37.187167      26.135424      139.18512    
-807624.61      3.9402603      34.570539      14.052363      139.34745    
-807650.01      3.0561441      35.18144       24.341189      138.91031    
-807648.47      3.8620589      37.133276      15.640515      138.91711    
-807646.55      4.0655331      37.221862      26.209692      138.4203     
-807642.97      3.1707939      35.49921       26.231747      137.92422    
-807634.96      3.4771653      34.968182      26.230079      137.42952    
-807604.31      3.5402711      37.5578        26.226269      136.93622    
-807593.59      3.6596557      39.150886      26.229757      136.4441     
-807606.67      3.4957265      36.679862      26.259592      135.95245    
-807632.75      3.7917611      35.188976      26.273243      135.46169    
-807640.36      4.3432283      35.634533      26.192858      134.97428    
-807646.61      3.8113588      36.642688      26.274024      134.48594    
-807651.83      3.9193895      36.077525      26.282349      133.99858    
-807644.71      3.0282234      35.048629      26.266443      133.51281    
-807623.99      3.5691232      34.667974      26.262121      133.0283     
-807599.26      2.8612718      37.708636      26.259137      132.545      
-807600.34      3.657655       38.831355      26.260987      132.06276    
-807610.62      3.7403012      37.860733      26.255184      131.58177    
-807628.67      2.8247189      34.049461      26.279187      131.10127    
-807636.72      3.0567009      35.917468      26.276447      130.6219     
-807656.11      3.4398886      35.130731      26.209508      130.14519    
-807649.88      3.1526386      36.140743      26.251742      129.66848    
-807639.92      3.8491186      35.426792      26.236171      129.19315    
-807616.88      3.4955993      36.087786      26.293659      128.71746    
-807609.86      3.3884013      38.201923      26.274895      128.2432     
-807599.51      3.5150098      38.303858      26.204859      127.77152    
-807606.02      3.0067211      37.573136      26.201158      127.30086    
-807623.93      3.1361778      34.837763      26.255141      126.82989    
-807648.63      2.9571901      34.928449      26.253812      126.35986    
-807649.91      3.4297296      36.434201      26.209498      125.89173    
-807645.17      3.6680063      36.168012      26.232581      125.42396    
-807634.78      4.8177401      35.762391      26.233917      124.95704    
-807627.79      2.9533551      34.579309      26.250948      124.49059    
-807606.35      3.6820357      37.81555       26.257225      124.02487    
-807596.85      3.7549105      38.587448      26.275362      123.5596     
-807607.82      3.5010298      35.864775      26.291139      123.09482    
-807631.4       2.9367511      35.370091      26.250005      122.63174    
-807644.01      3.3688197      35.451658      26.213106      122.17023    
-807645.24      4.5919361      36.895925      26.243933      121.70886    
-807645.11      3.7899152      35.723366      26.237772      121.2484     
-807641.2       2.9947785      34.333479      26.22778       120.78889    
-807625.12      2.6926324      34.89683       26.191481      120.33088    
-807601.42      2.7124874      36.887694      26.240922      119.87259    
-807599.86      3.616887       37.222444      26.215352      119.41555    
-807614.75      3.1657732      35.719189      26.198684      118.95955    
-807632.56      3.0041978      34.337951      26.200827      118.50421    
-807639.18      3.3906825      35.945695      26.235244      118.04888    
-807649.09      3.7204564      35.839224      26.229116      117.59436    
-807647.16      3.5322449      35.881891      26.226694      117.14057    
-807642.02      3.1902524      33.829519      26.20932       116.68777    
-807614.23      3.4796406      36.274111      26.27246       116.23445    
-807606.06      3.2495034      37.127744      26.25999       115.78201    
-807603.48      3.1278443      37.842377      26.246593      115.33048    
-807618.67      2.9111058      35.230902      26.23721       114.87976    
-807627.05      3.0777136      34.899154      26.245727      114.42951    
-807643.89      3.5892456      35.043858      26.234729      113.98008    
-807652.06      2.9999695      34.540998      26.242485      113.53112    
-807647.6       3.2209576      34.496395      26.18195       113.08383    
-807629.9       3.2368014      35.016531      26.250587      112.63592    
-807620.88      2.8099807      34.94692       26.262832      112.18839    
-807609.04      3.334122       37.3256        26.292964      111.74091    
-807606.72      3.4760339      37.304222      26.258039      111.29463    
-807614.18      2.9482661      35.590798      26.273265      110.84865    
-807634.01      2.9741964      34.63491       26.238099      110.40383    
-807646.99      3.0555409      34.931637      26.197941      109.96024    
-807647.78      3.4964351      35.375278      26.21255       109.51694    
-807640.96      3.1431006      35.418011      26.204524      109.07429    
-807631.12      3.8138748      35.649044      26.219174      108.63193    
-807622.98      2.914261       35.654557      26.216485      108.19012    
-807604.84      4.05322        36.961389      26.185757      107.74932    
-807603.96      3.0064626      37.349278      26.22388       107.30841    
-807618.07      3.4553426      35.69841       26.230658      106.86789    
-807636.63      2.7451237      35.624755      26.256267      106.42745    
-807642.21      4.8334287      36.443861      26.229553      105.98793    
-807643.96      3.3365959      37.430587      26.196637      105.5494     
-807640.99      4.0626445      36.557629      26.231749      105.1108     
-807634.22      2.9412678      35.36805       26.252392      104.67236    
-807613.27      3.1953199      36.648693      26.274653      104.23404    
-807601.89      3.1987589      38.135768      26.257736      103.79645    
-807607.12      3.6117544      36.789758      26.256392      103.35934    
-807622.04      2.4284567      35.915312      26.241109      102.92291    
-807631.46      3.0990018      35.144549      26.22705       102.48713    
-807640.02      3.8555193      36.498355      26.175531      102.05254    
-807646.65      3.1340997      35.885007      26.172699      101.6184     
-807642.56      2.8737108      35.471539      26.195611      101.18435    
-807627.59      3.3250391      35.71459       26.217609      100.7504     
-807612.43      2.9209771      36.35868       26.232018      100.31666    
-807605.33      3.2552353      38.245992      26.224456      99.883443    
-807608.96      3.3593589      37.252434      26.228611      99.45057     
-807619.99      3.0173976      36.218183      26.224456      99.018155    
-807631.56      3.7152871      36.002326      26.22582       98.586118    
-807643.84      3.1764837      36.161584      26.215914      98.154607    
-807646.99      3.1798705      36.233556      26.214896      97.723494    
-807638.44      2.9391428      34.542959      26.214589      97.292766    
-807624.56      4.0017045      35.558933      26.238037      96.862104    
-807615.11      4.0882748      36.237494      26.258458      96.431552    
-807605.89      3.6708865      37.124574      26.24097       96.001604    
-807609.97      2.838702       36.611507      26.228107      95.57219     
-807620.34      3.6585273      35.38513       26.237532      95.143018    
-807639.08      3.3175874      34.781326      26.222237      94.714399    
-807645.85      2.7535207      34.792947      26.183324      94.286623    
-807642.57      2.9383027      35.925771      26.184033      93.85918     
-807636.32      3.5706046      35.491902      26.244274      93.431328    
-807628.4       2.5907192      34.923293      26.206682      93.004282    
-807613.88      2.8477735      36.226165      26.171144      92.578006    
-807604.12      3.8494718      37.619485      26.182491      92.151915    
-807610.85      3.4073623      36.287792      26.206984      91.725852    
-807629.49      2.9011049      34.578609      26.184943      91.300375    
-807639.25      3.1261093      34.748736      26.183544      90.875231    
-807642.86      3.1863566      35.35491       26.202069      90.450182    
-807642.89      2.5795902      34.819593      26.243182      90.024967    
-807638.85      3.3715618      34.409527      26.245169      89.600046    
-807627.75      3.5659603      34.455017      26.258868      89.175282    
-807608.81      3.0079245      37.066389      26.257408      88.750848    
-807605.99      3.3472242      37.328768      26.265067      88.326637    
-807617.06      3.8906343      36.119164      26.263824      87.902747    
-807627.39      2.938568       35.30475       26.263419      87.479165    
-807635.15      3.006165       35.86442       26.253095      87.055997    
-807644.46      3.2524962      35.543395      26.253846      86.633116    
-807645.76      3.0871693      34.966587      26.239931      86.210677    
-807636.17      3.0390639      34.731571      26.236344      85.788564    
-807621.55      3.7229791      35.243344      26.267659      85.366403    
-807611.86      3.1762377      36.596561      26.264364      84.944562    
-807608.42      2.9737402      37.451149      26.192482      84.523755    
-807616.68      3.7679975      35.582349      26.191385      84.103226    
-807623.96      3.52191        35.808076      26.192077      83.682954    
-807638.73      3.8446243      35.369833      26.206436      83.262797    
-807644.27      3.8162316      36.119677      26.175693      82.843213    
-807641.59      3.2988167      35.865084      26.191125      82.423728    
-807628.88      3.7591168      36.195326      26.14845       82.004922    
-807622.15      3.5962103      35.558002      26.157359      81.586272    
-807611.27      3.5238918      37.160059      26.181982      81.167624    
-807607.24      3.6615236      37.886401      26.223475      80.748817    
-807613.8       3.59822        36.532188      26.237631      80.330124    
-807628.13      4.1738813      36.36233       26.229643      79.911755    
-807639.95      3.7035613      36.399958      26.232858      79.493601    
-807642.17      4.0412192      36.48354       26.225915      79.075755    
-807636.53      4.5567649      36.88548       26.243335      78.657987    
-807631.38      4.5919039      36.472961      26.240156      78.240488    
-807621.56      3.4971559      36.609624      26.264164      77.823007    
-807606.54      3.573824       37.61523       26.264767      77.405759    
-807606.06      3.2671793      37.73224       26.278018      76.988629    
-807617.64      3.3394245      36.650985      26.266723      76.571835    
-807631.95      2.8801486      36.356455      26.278741      76.155168    
-807636.47      3.2639094      37.284461      26.246866      75.739011    
-807642.56      3.3281025      36.635316      26.220334      75.323309    
-807638.96      4.4395139      37.433217      26.199483      74.908005    
-807631.98      2.8265777      35.64397       26.204009      74.492876    
-807615         3.2253164      37.571209      26.20847       74.07792     
-807608.58      3.3512089      37.809352      26.191182      73.663321    
-807608.53      2.5337331      38.123827      26.210816      73.248765    
-807623.08      3.5243904      35.47398       26.232579      72.834236    
-807629.48      3.5954441      35.791606      26.230844      72.41993     
-807638.29      3.87776        36.264754      26.207774      72.006017    
-807644         3.3116883      35.985023      26.200614      71.592362    
-807639.42      3.2358503      35.832279      26.228033      71.178687    
-807626.39      2.8793223      36.03105       26.186397      70.765541    
-807614.89      3.4353371      36.546189      26.23815       70.352182    
-807612.28      3.6316411      37.322832      26.254479      69.938894    
-807611.94      3.8542421      37.239041      26.250388      69.525836    
-807622.05      3.2119537      34.722069      26.241117      69.113044    
-807631.89      3.5429476      35.074053      26.224402      68.700571    
-807643.71      3.1434772      34.355094      26.195174      68.288506    
-807640.46      5.3020006      35.983018      26.17309       67.876789    
-807637.63      2.8387686      34.850086      26.201947      67.465037    
-807625.2       3.7828268      36.317331      26.2264        67.053288    
-807620.04      2.9720785      35.994286      26.233579      66.641669    
-807608.17      3.8633243      38.613928      26.234958      66.230222    
-807614.02      3.6584929      37.121735      26.24675       65.818872    
-807622.6       3.6149009      36.245143      26.281934      65.407455    
-807637.44      3.0270684      35.286148      26.277588      64.996251    
-807639.11      3.0210688      36.471389      26.258779      64.585358    
-807639.89      3.0259549      36.33156       26.266381      64.174589    
-807635.2       3.467277       35.854305      26.263495      63.764017    
-807627.07      2.9349331      35.954953      26.240213      63.353775    
-807614.98      3.2693687      37.033349      26.26467       62.94354     
-807607.41      3.567385       38.651262      26.245865      62.5336      
-807614.86      3.3800808      36.526047      26.218884      62.124004    
-807626.89      3.0794348      35.996532      26.228033      61.714513    
-807635.83      3.952352       35.619438      26.245913      61.305069    
-807638.79      3.0713633      36.113726      26.212462      60.896001    
-807641.12      4.5268692      35.869298      26.214357      60.487079    
-807634.96      3.7514215      36.009956      26.224603      60.07825     
-807626.28      3.8527085      35.885797      26.212063      59.669655    
-807610.22      3.5491293      37.222667      26.194991      59.261319    
-807611.08      3.9333017      38.483273      26.179765      58.853225    
-807616.7       4.4690668      36.974288      26.215284      58.445066    
-807626.14      3.7837102      35.895454      26.219316      58.037033    
-807633.19      3.7597014      37.035303      26.256087      57.628934    
-807641.78      3.8555125      36.005036      26.266689      57.220926    
-807640.39      3.5155568      36.121901      26.19225       56.8135      
-807633.29      3.5401914      36.020913      26.212164      56.406102    
-807619.64      3.5422595      35.959921      26.231277      55.998741    
-807615.99      3.196478       36.852017      26.234011      55.591508    
-807610.4       4.2726686      36.732494      26.195188      55.184635    
-807617.07      2.730069       36.237501      26.175803      54.778007    
-807624.69      3.0626642      36.432715      26.176879      54.371509    
-807637.77      2.8017683      35.838043      26.202268      53.965008    
-807640.4       3.15822        36.997444      26.202363      53.558641    
-807637.94      3.5538237      36.475882      26.240785      53.152208    
-807629.46      3.4950938      36.927926      26.260979      52.745806    
-807622.52      3.1754981      36.68511       26.271696      52.339489    
-807615.75      3.3507326      37.12678       26.251653      51.933412    
-807610.96      2.8858601      36.79443       26.213833      51.527662    
-807615.56      3.5762833      37.200275      26.240487      51.12191     
-807628.09      3.4184718      36.498413      26.246216      50.716261    
-807636.31      3.8517636      36.581381      26.242011      50.310764    
-807636.74      3.8350716      37.473291      26.219863      49.905505    
-807635.25      3.3808783      36.613261      26.227264      49.500338    
-807632.48      3.8599372      36.264999      26.167052      49.095583    
-807623.3       3.429876       36.458522      26.198902      48.690798    
-807611.92      3.5250712      37.04625       26.211045      48.286079    
-807614.12      3.1455533      37.014268      26.213152      47.881471    
-807619.98      3.9645182      36.366592      26.192585      47.477079    
-807628.67      3.3462565      36.665119      26.244743      47.072571    
-807634.7       3.0381224      36.091828      26.25704       46.668131    
-807638.13      3.7988397      37.055006      26.242208      46.263879    
-807636.86      3.099808       36.434465      26.213646      45.859871    
-807631.8       4.0652282      36.164729      26.209035      45.456       
-807618.9       3.3569324      36.735685      26.211607      45.052233    
-807613.85      3.204951       37.385672      26.227225      44.648515    
-807613.54      3.7959657      37.275549      26.270235      44.244735    
-807621.85      3.0479145      36.31425       26.264694      43.841096    
-807628.75      4.5638966      35.976262      26.224199      43.437738    
-807637.02      2.8970714      35.624436      26.223748      43.034494    
-807639.88      3.6702592      35.809211      26.233395      42.631323    
-807637.02      4.1624518      35.500499      26.22589       42.228293    
-807627.9       3.9832226      35.908086      26.209409      41.825437    
-807618.64      3.2962059      36.6206        26.116765      41.423044    
-807617.05      3.4517391      36.199299      26.196385      41.020448    
-807615.1       3.0270945      36.481469      26.240174      40.617793    
-807622.1       3.2676852      35.24892       26.267127      40.215147    
-807632.38      3.3830957      34.751883      26.255509      39.812653    
-807639.85      3.1880479      34.749366      26.271368      39.41021     
-807639.48      3.0326425      35.392966      26.267479      39.007889    
-807633.64      2.9246168      35.570402      26.255172      38.605718    
-807627.53      3.1855011      35.35054       26.191201      38.203874    
-807623.74      3.1964289      34.781862      26.177764      37.802175    
-807613.44      3.320329       35.734046      26.193385      37.40052     
-807616.51      2.9208682      34.726792      26.257907      36.998748    
-807624.66      3.2980417      34.32812       26.248554      36.59711     
-807635.17      3.6242706      34.263418      26.257589      36.195544    
-807636.33      3.3167894      34.494819      26.244825      35.794119    
-807636.4       3.0736922      34.83253       26.223647      35.39286     
-807633.22      3.3476792      35.325174      26.158371      34.991901    
-807630.99      3.52753        34.72558       26.210412      34.590873    
-807616.8       3.2106362      36.357239      26.223152      34.1899      
-807616.25      3.1258036      36.568263      26.264125      33.7889      
-807617.27      3.6963601      36.534165      26.261591      33.388005    
-807629.2       3.0891414      35.50981       26.23315       32.987289    
-807630.39      3.7068071      35.454969      26.24368       32.586636    
-807637.08      2.8446168      34.138285      26.212029      32.186165    
-807635.64      3.8489684      35.199034      26.214203      31.785779    
-807636.8       2.7221283      33.842925      26.241179      31.385409    
-807621.58      2.5539342      34.725204      26.25927       30.985082    
-807618.25      3.5682396      35.034629      26.29048       30.584765    
-807615.87      2.9534132      35.778268      26.259308      30.184623    
-807621.09      2.8723157      35.652225      26.260055      29.78457     
-807624.04      4.0142659      35.985077      26.262068      29.384602    
-807631.82      3.6658082      35.725058      26.248078      28.984759    
-807637.98      2.9929047      35.558403      26.216963      28.58508     
-807635.84      4.8143346      36.119849      26.206747      28.18551     
-807628.14      3.3885075      35.920278      26.232242      27.785964    
-807621.65      4.6689581      37.122486      26.276498      27.3864      
-807620.37      3.0175424      36.463812      26.248631      26.986988    
-807613.71      3.5782085      37.8742        26.243512      26.587673    
-807617.21      3.0281276      36.457854      26.238655      26.188452    
-807626.24      3.4870135      36.254141      26.231588      25.78933     
-807636.7       2.4831085      35.38163       26.187512      25.390384    
-807633.5       3.7243589      37.301856      26.195781      24.9915      
-807634.52      3.2839609      36.037322      26.205059      24.592674    
-807628.27      3.160943       35.617834      26.212528      24.193911    
-807626.41      3.2272191      34.695174      26.184811      23.795282    
-807615.12      3.6302556      36.328536      26.180306      23.396738    
-807613.5       2.7095442      36.795839      26.199846      22.998232    
-807618.84      3.5543426      35.419162      26.216862      22.599769    
-807630.73      2.898906       35.473705      26.187062      22.201438    
-807634.02      3.2938588      34.665348      26.192322      21.803172    
-807636.12      2.8122693      34.840433      26.212888      21.404943    
-807633.23      3.2028958      35.851001      26.228422      21.006762    
-807632.32      3.4933578      35.046116      26.226745      20.608659    
-807620.52      3.3888679      36.904041      26.234833      20.210618    
-807616.08      3.5073444      37.173468      26.220352      19.812676    
-807615.86      3.5138404      36.980961      26.240251      19.414775    
-807624.78      3.5580814      35.97735       26.260729      19.016918    
-807629.08      3.0270547      35.473753      26.26241       18.619133    
-807633.01      3.1895164      35.336381      26.246528      18.221446    
-807636.57      3.2850147      35.279703      26.275254      17.823791    
-807635.56      3.1167986      35.564651      26.232963      17.426271    
-807629.25      3.3299143      35.268222      26.273277      17.028767    
-807617.66      4.0101017      36.504129      26.294821      16.631308    
-807621.08      3.252929       35.687536      26.234035      16.234002    
-807622.6       3.8656866      35.776127      26.226058      15.836777    
-807623.13      3.4321267      35.546253      26.236405      15.439608    
-807628.73      4.567788       35.097959      26.196393      15.042557    
-807637.85      3.8285006      35.118218      26.17909       14.645591    
-807638.91      3.2504308      34.236561      26.206881      14.248659    
-807633.09      3.0592348      34.902346      26.211449      13.851788    
-807628.14      2.9691005      34.319272      26.199612      13.454995    
-807624.31      3.1148781      34.881936      26.179076      13.058288    
-807620.75      3.3803852      34.80253       26.204095      12.661619    
-807618.55      3.1136209      35.417917      26.209577      12.265009    
-807623.4       4.1025416      35.464802      26.239049      11.868436    
-807633.61      4.1234225      35.330524      26.257474      11.471912    
-807635.69      3.8007719      35.494037      26.259573      11.075453    
-807636.16      3.7851223      35.11389       26.268385      10.679052    
-807631.43      5.0585284      35.253354      26.275538      10.282713    
-807631.47      3.2775074      34.616366      26.248973      9.8864594    
-807622.97      4.7619722      35.833639      26.23354       9.4902816    
-807616.78      3.560887       35.478302      26.17529       9.0942077    
-807619.1       4.1697173      35.354888      26.206263      8.6981716    
-807627.85      3.7762775      36.012817      26.230776      8.3021803    
-807632.24      3.5359985      35.26541       26.237688      7.9062463    
-807632.98      3.231721       35.402958      26.280839      7.5103491    
-807634.7       3.2696208      35.843216      26.181546      7.1145696    
-807634.04      2.7847278      35.196281      26.19236       6.7188419    
-807627.44      2.8143989      35.521146      26.239429      6.3231491    
-807618.81      3.2060679      36.472615      26.225049      5.9275229    
-807617.25      4.1268301      36.116551      26.266963      5.5319381    
-807621.7       3.4529902      36.488202      26.264202      5.1364155    
-807627.42      3.8792615      35.774567      26.250181      4.7409585    
-807628.31      3.3515221      35.795947      26.273142      4.3455533    
-807634.47      3.6683741      35.778129      26.284525      3.950205     
-807635.62      3.5795484      36.179778      26.206243      3.5549383    
-807632.83      3.3694362      36.325923      26.184591      3.1597323    
-807622.54      3.3817484      35.917414      26.206958      2.7645757    
-807619.38      3.3382205      36.924724      26.207965      2.3694739    
-807620.45      3.2535788      36.636604      26.219263      1.974425     
-807620.51      2.8671174      36.494641      26.223969      1.5794307    
-807622.26      3.6766441      35.84454       26.250633      1.1844891    
-807630.48      2.7371928      36.103802      26.23216       0.78960468   
-807635.47      3.1987825      35.918502      26.188695      0.39477637   
-807633.77      3.102597       36.64404       26.220713      0            
Loop time of 197.376 on 32 procs for 5000 steps with 1080 atoms

Performance: 4.377 ns/day, 5.483 hours/ns, 25.332 timesteps/s, 27.359 katom-step/s
67.6% CPU use with 32 MPI tasks x 1 OpenMP threads

MPI task timing breakdown:
Section |  min time  |  avg time  |  max time  |%varavg| %total
---------------------------------------------------------------
Pair    | 101.65     | 143.93     | 190.78     | 310.3 | 72.92
Neigh   | 0          | 0          | 0          |   0.0 |  0.00
Comm    | 4.0216     | 50.87      | 93.173     | 522.1 | 25.77
Output  | 0.033374   | 0.034287   | 0.036168   |   0.3 |  0.02
Modify  | 2.1545     | 2.1788     | 2.2333     |   1.5 |  1.10
Other   |            | 0.359      |            |       |  0.18

Nlocal:          33.75 ave          48 max          21 min
Histogram: 8 8 0 0 0 0 0 8 0 8
Nghost:        1106.25 ave        1119 max        1092 min
Histogram: 8 0 8 0 0 0 0 0 8 8
Neighs:              0 ave           0 max           0 min
Histogram: 32 0 0 0 0 0 0 0 0 0
FullNghs:       5494.5 ave        7896 max        3378 min
Histogram: 8 8 0 0 0 0 0 8 0 8

Total # of neighbors = 175824
Ave neighs/atom = 162.8
Neighbor list builds = 0
Dangerous builds = 0

reset_timestep 0


variable interval equal 1000
thermo 10

variable nintervals equal $(v_PERIOD/v_interval)
variable nintervals equal 100
variable efield equal 1e-2*36.36*cos((step/${PERIOD})*2*3.14)
variable efield equal 1e-2*36.36*cos((step/100000)*2*3.14)
fix born all addbornforce 0.0 0.0 v_efield

variable Px equal f_born[1]+c_polarization[1]
variable Py equal f_born[2]+c_polarization[2]
variable Pz equal (f_born[3]+c_polarization[3])/vol
variable pe equal pe

fix aveP all ave/time 1 $(v_interval/2) ${interval} v_efield v_Pz v_pe f_born file Pz.${MODEL}.${STRUCTURE}.${TEMP}.$L.${ITER}
fix aveP all ave/time 1 500 ${interval} v_efield v_Pz v_pe f_born file Pz.${MODEL}.${STRUCTURE}.${TEMP}.$L.${ITER}
fix aveP all ave/time 1 500 1000 v_efield v_Pz v_pe f_born file Pz.${MODEL}.${STRUCTURE}.${TEMP}.$L.${ITER}
fix aveP all ave/time 1 500 1000 v_efield v_Pz v_pe f_born file Pz.BaTiO3-E0.${STRUCTURE}.${TEMP}.$L.${ITER}
fix aveP all ave/time 1 500 1000 v_efield v_Pz v_pe f_born file Pz.BaTiO3-E0.BaTiO3-sc333.${TEMP}.$L.${ITER}
fix aveP all ave/time 1 500 1000 v_efield v_Pz v_pe f_born file Pz.BaTiO3-E0.BaTiO3-sc333.340.$L.${ITER}
fix aveP all ave/time 1 500 1000 v_efield v_Pz v_pe f_born file Pz.BaTiO3-E0.BaTiO3-sc333.340.2.${ITER}
fix aveP all ave/time 1 500 1000 v_efield v_Pz v_pe f_born file Pz.BaTiO3-E0.BaTiO3-sc333.340.2.3

thermo_style custom step time temp press pe f_born v_efield v_Pz spcpu cpuremain

# dump 4a all custom 1000 dump.hyst.${MODEL}.${STRUCTURE}.${TEMP}.$L.${ITER}.bin id type xu yu zu fx fy fz
# dump_modify 4a sort id

fix nvt all nvt temp ${TEMP} ${TEMP} $(100*dt)
fix nvt all nvt temp 340 ${TEMP} $(100*dt)
fix nvt all nvt temp 340 340 $(100*dt)
fix nvt all nvt temp 340 340 0.2000000000000000111

run $(v_PERIOD)
run 100000
WARNING: non-constant efield is experimental, strongly distrust scalar/vector output (src/fix_addbornforce.cpp:193)
Per MPI rank memory allocation (min/avg/max) = 3.516 | 3.516 | 3.516 Mbytes
   Step          Time           Temp          Press          PotEng         f_born        v_efield         v_Pz          S/CPU         CPULeft    
         0   0              337.98874      128778.53     -807633.77     -294.639        0.3636         0.055413282    0              0            
        10   0.02           340.0181       134024.26     -807625.41     -303.29532      0.36359993     0.057041303    28.681592      3486.2263    
        20   0.04           337.9968       136030.62     -807623.65     -304.76264      0.36359971     0.057317298    28.667707      3486.7131    
        30   0.06           337.56926      141560.22     -807619.97     -308.37001      0.36359935     0.0579958      28.648858      3487.4073    
        40   0.08           353.32195      141152.19     -807620.06     -310.6075       0.36359885     0.058416691    28.656358      3487.3516    
        50   0.1            349.25115      140241.24     -807618.36     -311.72783      0.36359821     0.058627498    28.634363      3487.7145    
        60   0.12           348.16033      134259.71     -807627.85     -302.13837      0.36359742     0.056824106    28.654431      3487.4326    
        70   0.14           341.80798      130787.21     -807633.41     -295.73008      0.36359649     0.055619021    28.653869      3487.1413    
        80   0.16           338.87388      127910.76     -807633.62     -295.1793       0.36359541     0.055515598    28.645184      3486.9672    
        90   0.18           334.87273      131052.2      -807630.67     -297.64474      0.36359419     0.055979471    28.605828      3487.2883    
       100   0.2            342.97688      132561.52     -807629.75     -299.83311      0.36359283     0.05639126     28.59792       3487.5714    
       110   0.22           343.20596      138374.99     -807624.96     -304.75416      0.36359132     0.057317027    28.582752      3487.9081    
       120   0.24           344.08764      140578.8      -807619.4      -310.61616      0.36358968     0.058419794    28.603553      3487.9184    
       130   0.26           341.90605      141539.34     -807616.86     -313.00391      0.36358788     0.058869164    28.649179      3487.4458    
       140   0.28           342.19375      138462.77     -807622.75     -307.3103       0.36358595     0.05779863     28.682092      3486.705     
       150   0.3            328.73788      134262.72     -807626.87     -301.45839      0.36358387     0.056698333    28.649512      3486.2805    
       160   0.32           335.73984      130268.68     -807631.85     -297.67909      0.36358165     0.055987864    28.656054      3485.8157    
       170   0.34           335.95711      129181.35     -807632.7      -297.09638      0.36357928     0.055878631    28.665027      3485.2997    
       180   0.36           337.0446       129932.89     -807633.78     -296.4192       0.36357677     0.055751649    28.657901      3484.8513    
       190   0.38           346.78489      133180.25     -807631.66     -300.1948       0.36357412     0.05646219     28.623401      3484.6342    
       200   0.4            327.33165      137583.61     -807621.7      -307.84245      0.36357132     0.057901047    28.644457      3484.2756    
       210   0.42           339.89582      140207.04     -807620.6      -311.02726      0.36356838     0.058500538    28.643849      3483.9214    
       220   0.44           335.13867      139943.92     -807621.23     -309.94656      0.3635653      0.058297767    28.680099      3483.3675    
       230   0.46           323.43884      137958.46     -807624.46     -305.32026      0.36356207     0.057428117    28.638893      3483.049     
       240   0.48           330.27852      134089.37     -807628.4      -302.59326      0.3635587      0.056915718    28.671232      3482.5646    
       250   0.5            342.33229      129160.76     -807634.46     -298.38745      0.36355519     0.056125177    28.698804      3481.9568    
       260   0.52           332.35749      129087.63     -807636.35     -295.20568      0.36355153     0.05552726     28.702619      3481.3515    
       270   0.54           319.96036      129233.27     -807633.37     -296.67081      0.36354773     0.05580343     28.62806       3481.1003    
       280   0.56           324.63075      135307.81     -807627.39     -303.40177      0.36354379     0.057070135    28.678421      3480.6237    
       290   0.58           335.50472      136598.95     -807624.48     -307.97159      0.3635397      0.057930372    28.654666      3480.2552    
       300   0.6            326.55686      140565.83     -807621.17     -309.98526      0.36353547     0.058309828    28.689834      3479.7458    
       310   0.62           322.98455      138831.37     -807622.72     -307.96449      0.3635311      0.057930409    28.633481      3479.4676    
       320   0.64           320.74834      138162.06     -807622.32     -307.97844      0.36352658     0.057933752    28.643511      3479.1469    
       330   0.66           338.82222      132574.89     -807631.2      -301.56689      0.36352192     0.056728405    28.674367      3478.7108    
       340   0.68           331.59034      131172.45     -807633.53     -298.00896      0.36351712     0.056059855    28.701422      3478.1835    
       350   0.7            314.48534      129782.59     -807633.73     -295.33863      0.36351217     0.055558284    28.665911      3477.7895    
       360   0.72           321.86928      132623.42     -807630.49     -299.41111      0.36350708     0.056325176    28.601039      3477.6167    
       370   0.74           345.16284      133336.66     -807629.22     -303.67247      0.36350185     0.057127645    28.587614      3477.4788    
       380   0.76           325.95388      138877.82     -807622.35     -307.60251      0.36349647     0.05786783     28.623184      3477.2157    
       390   0.78           333.68733      139678.08     -807621.98     -308.74903      0.36349095     0.058084402    28.656663      3476.8439    
       400   0.8            334.8968       139341.13     -807621.13     -309.44943      0.36348529     0.058217073    28.656766      3476.4729    
       410   0.82           338.99551      136333.62     -807624.78     -306.07259      0.36347948     0.057582704    28.612717      3476.2335    
       420   0.84           344.39487      132292.4      -807630.48     -300.74954      0.36347353     0.056582183    28.608704      3476.0005    
       430   0.86           326.55458      130158.54     -807631.91     -296.48936      0.36346744     0.05578162     28.62576       3475.7139    
       440   0.88           329.33866      130043.57     -807632.71     -295.78588      0.3634612      0.055650221    28.629772      3475.4133    
       450   0.9            337.97959      132683.09     -807629.56     -299.9134       0.36345482     0.05642778     28.649788      3475.0566    
       460   0.92           352.28107      134829.65     -807628.21     -303.15255      0.3634483      0.057038239    28.612969      3474.7974    
       470   0.94           335.88639      140185.96     -807621.35     -307.52148      0.36344163     0.057861316    28.620885      3474.5139    
       480   0.96           340.00035      140284.35     -807620.21     -309.15092      0.36343482     0.058168992    28.710908      3474.0005    
       490   0.98           332.1207       140659.67     -807618.92     -309.2407       0.36342786     0.058186996    28.678836      3473.573     
       500   1              344.4341       134696.28     -807625.97     -303.87202      0.36342077     0.057177939    28.66714       3473.1769    
       510   1.02           336.57538      133629.16     -807627.97     -9620.6523      0.36341353     0.056571927    28.581886      3472.9856    
       520   1.04           337.38644      129933.4      -807632.46     -9481.2541      0.36340614     0.055753362    28.57832       3472.7966    
       530   1.06           331.68329      132350.6      -807629.88     -9532.8852      0.36339862     0.056058133    28.559048      3472.6459    
       540   1.08           342.28283      131647.08     -807630.76     -9554.2544      0.36339095     0.056184981    28.541844      3472.5266    
       550   1.1            339.78295      137400.16     -807624.49     -9740.1469      0.36338313     0.057279377    28.559521      3472.3597    
       560   1.12           346.18034      137746.31     -807622.77     -9825.0243      0.36337518     0.057779785    28.556314      3472.1932    
       570   1.14           338.09946      141828.07     -807618.65     -9917.7955      0.36336707     0.058326661    28.510007      3472.1197    
       580   1.16           340.03929      138065        -807622.09     -9818.3035      0.36335883     0.057742857    28.502776      3472.0516    
       590   1.18           351.50995      137237.57     -807624.94     -9772.426       0.36335044     0.057474372    28.525206      3471.9276    
       600   1.2            345.4818       131955.04     -807630.31     -9576.0441      0.36334191     0.056320717    28.562005      3471.7211    
       610   1.22           347.803        131263.65     -807632.08     -9527.3068      0.36333324     0.05603541     28.577242      3471.4796    
       620   1.24           326.6418       130042.52     -807629.46     -9517.8491      0.36332442     0.055981143    28.523768      3471.3397    
       630   1.26           340.30862      134299.66     -807627.89     -9628.1049      0.36331546     0.056631031    28.540916      3471.1598    
       640   1.28           343.38364      135461.85     -807626.15     -9699.2579      0.36330636     0.057050972    28.526479      3471.0022    
       650   1.3            351.17813      139752.37     -807621.87     -9869.3377      0.36329711     0.058052857    28.51322       3470.8636    
       660   1.32           351.51452      138558        -807621.68     -9879.7442      0.36328772     0.058115572    28.51715       3470.7113    
       670   1.34           350.10096      139021.3      -807623.61     -9810.5689      0.36327819     0.057710177    28.548639      3470.4957    
       680   1.36           343.19448      135177.73     -807627.6      -9653.8265      0.36326851     0.05678966     28.565481      3470.246     
       690   1.38           338.21165      132775.21     -807630        -9555.8745      0.36325869     0.056214967    28.506714      3470.0972    
       700   1.4            320.8948       130880.74     -807629.25     -9504.0595      0.36324873     0.055911685    28.498481      3469.957     
       710   1.42           328.16735      131688.35     -807630.06     -9510.6426      0.36323863     0.05595197     28.505193      3469.7994    
       720   1.44           347.36339      133095.97     -807630        -9597.5604      0.36322838     0.056464908    28.489998      3469.6622    
       730   1.46           341.31936      137629.33     -807623.47     -9780.6574      0.36321798     0.057543761    28.519473      3469.4698    
       740   1.48           340.65257      139577.12     -807620.9      -9861.9829      0.36320745     0.058023917    28.5839        3469.1671    
       750   1.5            351.45641      140266.26     -807620.94     -9908.5971      0.36319677     0.05829989     28.604155      3468.8304    
       760   1.52           345.00182      137892.43     -807623.65     -9796.233       0.36318595     0.057640483    28.620982      3468.4665    
       770   1.54           331.63837      136033.55     -807625.24     -9687.9975      0.36317498     0.057005353    28.590749      3468.1505    
       780   1.56           336.56226      133156.69     -807629.43     -9578.1684      0.36316387     0.056360829    28.57783       3467.8539    
       790   1.58           337.22612      131033.68     -807632.11     -9498.379       0.36315262     0.055893056    28.562819      3467.5789    
       800   1.6            338.56437      132220.13     -807631.12     -9537.0322      0.36314122     0.056122271    28.52187       3467.3645    
       810   1.62           344.65591      133483.66     -807629.24     -9630.152       0.36312968     0.056672051    28.571369      3467.0722    
       820   1.64           342.73646      137896.95     -807623.74     -9799.9403      0.363118       0.057673086    28.592194      3466.7478    
       830   1.66           338.31725      138900.38     -807622.22     -9834.4794      0.36310618     0.057878235    28.546675      3466.4893    
       840   1.68           333.14378      139809.23     -807621.16     -9847.2574      0.36309421     0.057955346    28.541491      3466.2362    
       850   1.7            338.78016      136974.79     -807625.05     -9753.2991      0.3630821      0.057404276    28.596442      3465.9023    
       860   1.72           341.80218      135085.47     -807627.59     -9688.9813      0.36306984     0.05702765     28.573752      3465.5999    
       870   1.74           331.87259      132017.63     -807630.71     -9549.251       0.36305745     0.056207142    28.591503      3465.2719    
       880   1.76           332.82476      131675.71     -807632.19     -9508.5592      0.3630449      0.055969562    28.527763      3465.0312    
       890   1.78           338.64775      131158.45     -807631.81     -9551.0789      0.36303222     0.056221807    28.547045      3464.7618    
       900   1.8            332.77133      135805.51     -807626.91     -9685.7258      0.36301939     0.057016412    28.572828      3464.4557    
       910   1.82           337.29071      136261.16     -807625.25     -9765.5426      0.36300642     0.057488319    28.565828      3464.158     
       920   1.84           332.78816      139940.61     -807621.71     -9860.0275      0.36299331     0.058046634    28.538942      3463.8947    
       930   1.86           328.48175      138831.8      -807622.24     -9829.5625      0.36298005     0.057869399    28.534028      3463.636     
       940   1.88           332.24748      137923.3      -807623.67     -9801.5326      0.36296665     0.057706509    28.579627      3463.3163    
       950   1.9            334.67906      133106.35     -807629.49     -9629.3491      0.36295311     0.056694894    28.566831      3463.0124    
       960   1.92           332.69483      131789.21     -807632.18     -9536.2602      0.36293942     0.056148931    28.516099      3462.7718    
       970   1.94           314.25899      130773.65     -807630.41     -9513.072       0.36292559     0.056014534    28.523723      3462.5193    
       980   1.96           328.08991      131822.68     -807630.83     -9563.0577      0.36291162     0.056311026    28.506408      3462.2864    
       990   1.98           318.25546      134338.94     -807626.74     -9650.0212      0.3628975      0.056825311    28.500677      3462.0581    
      1000   2              334.71162      137503.04     -807624.48     -9794.9149      0.36288325     0.057680802    28.416877      3461.9298    
      1010   2.02           344.60454      138641.48     -807624.08     -307.90374      0.36286884     0.058024687    28.574921      3461.6063    
      1020   2.04           325.18486      139205.05     -807621.35     -307.84843      0.3628543      0.058016588    28.614461      3461.2354    
      1030   2.06           334.22969      136074.05     -807625.9      -304.46061      0.36283961     0.057380448    28.619283      3460.8592    
      1040   2.08           328.13761      133882.55     -807628.52     -300.86684      0.36282478     0.056705464    28.608344      3460.4963    
      1050   2.1            326.91888      131589.33     -807630.63     -298.41461      0.3628098      0.056245603    28.646951      3460.0892    
      1060   2.12           325.13191      130566.93     -807631.75     -296.76767      0.36279469     0.055937517    28.630963      3459.7014    
      1070   2.14           332.12736      132276.92     -807630.27     -298.99544      0.36277943     0.056359799    28.662205      3459.2792    
      1080   2.16           338.12415      134707.92     -807626.95     -302.901        0.36276402     0.05709841     28.661551      3458.859     
      1090   2.18           346.9642       137466.95     -807624.16     -306.58695      0.36274848     0.057795709    28.681513      3458.418     
      1100   2.2            346.53054      138918.3      -807622.6      -307.68826      0.36273279     0.058005829    28.651726      3458.0114    
      1110   2.22           342.93663      139379.33     -807622.62     -306.87716      0.36271695     0.057855443    28.687829      3457.5666    
      1120   2.24           333.68579      137036.91     -807623.75     -304.1057       0.36270098     0.057335466    28.653096      3457.1609    
      1130   2.26           336.4869       132145.67     -807628.24     -299.67639      0.36268486     0.056502885    28.639147      3456.7711    
      1140   2.28           331.79276      131729.04     -807630.65     -296.24259      0.3626686      0.055857959    28.632618      3456.3888    
      1150   2.3            326.63955      131043.26     -807629.69     -296.19289      0.36265219     0.055851113    28.626332      3456.0138    
      1160   2.32           350.76572      133098.91     -807629.62     -299.39054      0.36263564     0.05645665     28.589887      3455.6771    
      1170   2.34           338.71185      135563.4      -807624.44     -302.7216       0.36261895     0.057087422    28.558211      3455.3729    
      1180   2.36           344.10121      139769.19     -807621.48     -306.189        0.36260212     0.057743986    28.597459      3455.0278    
      1190   2.38           347.638        138681.85     -807621.78     -306.3217       0.36258514     0.057771717    28.619986      3454.6598    
      1200   2.4            349.2386       139233.49     -807620.77     -307.43689      0.36256802     0.057984778    28.629864      3454.2821    
      1210   2.42           339.23555      135445.56     -807624.7      -302.0537       0.36255076     0.056972184    28.590195      3453.9444    
      1220   2.44           339.42805      134591.98     -807627.39     -299.18967      0.36253335     0.05643469     28.58947       3453.6073    
      1230   2.46           340.55644      130902.07     -807630.93     -295.84082      0.3625158      0.055805714    28.590138      3453.2693    
      1240   2.48           352.16801      132192.5      -807630.15     -298.09351      0.36249811     0.056233392    28.603697      3452.9179    
      1250   2.5            342.59519      133801.68     -807627.05     -299.90976      0.36248028     0.056578801    28.6062        3452.5641    
      1260   2.52           349.88573      136562.07     -807624.9      -303.07811      0.3624623      0.057179354    28.591925      3452.2241    
      1270   2.54           347.17569      138093.73     -807621.13     -306.47919      0.36244418     0.057823899    28.581098      3451.8942    
      1280   2.56           353.0405       138757.96     -807621.91     -306.56887      0.36242592     0.057843735    28.597899      3451.5481    
      1290   2.58           342.63827      138736.41     -807622.04     -305.02427      0.36240751     0.05755522     28.620072      3451.1813    
      1300   2.6            346.6786       133540.33     -807626.8      -300.91241      0.36238896     0.056782258    28.59867       3450.8345    
      1310   2.62           339.47947      133449.41     -807628.65     -298.09645      0.36237027     0.056253787    28.586942      3450.4986    
      1320   2.64           340.31975      130054.09     -807631.25     -295.74807      0.36235143     0.055813525    28.661918      3450.094     
      1330   2.66           345.92243      132561.99     -807629.24     -298.52448      0.36233245     0.05634044     28.647885      3449.7029    
      1340   2.68           336.67216      133368.24     -807627.38     -299.38306      0.36231333     0.05650546     28.657569      3449.3038    
      1350   2.7            342.23706      138231.69     -807622.94     -304.60842      0.36229407     0.05749475     28.628942      3448.9309    
      1360   2.72           341.40037      138057.57     -807621.84     -305.83289      0.36227466     0.057728963    28.63098       3448.5566    
      1370   2.74           347.83367      139570.59     -807620.7      -308.01686      0.36225511     0.058144345    28.655528      3448.1611    
      1380   2.76           340.24345      135757.14     -807624.17     -303.67501      0.36223542     0.057327851    28.655212      3447.7665    
      1390   2.78           342.56569      134603.06     -807627.11     -301.16367      0.36221558     0.056856873    28.655614      3447.3723    
      1400   2.8            339.28572      130334.21     -807630.83     -297.26518      0.3621956      0.056123969    28.680117      3446.9577    
      1410   2.82           327.94511      132378.86     -807629.24     -297.38407      0.36217548     0.056149535    28.699927      3446.5272    
      1420   2.84           329.14187      131245.23     -807630.25     -296.8315       0.36215522     0.05604834     28.701164      3446.0968    
      1430   2.86           347.63014      134215.47     -807628.76     -301.02684      0.36213481     0.056843716    28.649175      3445.7112    
      1440   2.88           333.27231      137180.02     -807623.48     -304.58111      0.36211426     0.057518143    28.59313       3445.3728    
      1450   2.9            344.19815      139135.29     -807622.44     -307.29989      0.36209357     0.058034883    28.531681      3445.0855    
      1460   2.92           342.43189      138051.15     -807623.51     -306.1879       0.36207273     0.057828206    28.57864       3444.7585    
      1470   2.94           334.56492      136409.87     -807625.15     -303.60842      0.36205176     0.057344355    28.604058      3444.4104    
      1480   2.96           335.85834      133504.38     -807628.34     -300.73263      0.36203064     0.0568045      28.633128      3444.0386    
      1490   2.98           329.48707      130826.96     -807631.51     -296.83144      0.36200937     0.05607091     28.656147      3443.6485    
      1500   3              329.45302      131743.45     -807632.43     -295.96962      0.36198796     0.05591142     28.662062      3443.2542    
      1510   3.02           329.6757       130852.69     -807631.11     -9518.5204      0.36196642     0.056195133    28.557886      3442.9436    
      1520   3.04           335.00094      134559.5      -807627.94     -9645.1552      0.36194472     0.056946168    28.528855      3442.6555    
      1530   3.06           341.69495      135629.48     -807626.31     -9730.6507      0.36192289     0.05745441     28.544422      3442.3544    
      1540   3.08           337.36887      138685.04     -807622.84     -9819.9188      0.36190091     0.057985013    28.571363      3442.0314    
      1550   3.1            333.12253      138115.39     -807623.05     -9797.7349      0.36187879     0.057857557    28.557573      3441.7189    
      1560   3.12           331.55022      137417.33     -807624.28     -9749.2153      0.36185653     0.057574582    28.593581      3441.378     
      1570   3.14           330.50749      132879.93     -807629.51     -9577.265       0.36183412     0.056562621    28.650671      3440.9933    
      1580   3.16           321.04266      132502.79     -807630.24     -9509.118       0.36181157     0.05616365     28.608321      3440.6413    
      1590   3.18           327.74845      129319        -807632.5      -9465.5339      0.36178888     0.055909735    28.580192      3440.3106    
      1600   3.2            326.89756      131967.13     -807629.67     -9544.3948      0.36176605     0.056379099    28.554663      3439.9989    
      1610   3.22           331.57837      133044.27     -807628.81     -9588.9841      0.36174307     0.056646087    28.573034      3439.673     
      1620   3.24           337.57223      138431.38     -807624.16     -9750.7571      0.36171995     0.057605428    28.586468      3439.3367    
      1630   3.26           340.34279      137379.5      -807623.13     -9785.4292      0.36169669     0.057813982    28.613438      3438.9805    
      1640   3.28           344.26986      140423.81     -807621.57     -9833.4534      0.36167329     0.058101477    28.594724      3438.6379    
      1650   3.3            342.30558      134936.35     -807625.91     -9667.9295      0.36164974     0.057127189    28.592668      3438.2968    
      1660   3.32           344.30116      135136.43     -807627.29     -9611.8583      0.36162605     0.056799589    28.572327      3437.9704    
      1670   3.34           340.40156      131042.63     -807630.52     -9477.2366      0.36160222     0.056007756    28.570662      3437.6449    
      1680   3.36           345.74592      131291.68     -807630.62     -9482.5486      0.36157824     0.056042865    28.516361      3437.3581    
      1690   3.38           342.59631      131313.25     -807629.47     -9495.0689      0.36155413     0.056120604    28.529719      3437.061     
      1700   3.4            343.38873      136159.88     -807625.34     -9621.8055      0.36152987     0.056873497    28.538772      3436.7568    
      1710   3.42           342.34388      138016.83     -807621.32     -9739.4257      0.36150546     0.057572624    28.533716      3436.4557    
      1720   3.44           350.77774      139001.48     -807620.71     -9788.5174      0.36148092     0.057866749    28.533739      3436.1539    
      1730   3.46           346.30698      138329.79     -807620.99     -9755.1093      0.36145623     0.057673189    28.516446      3435.8637    
      1740   3.48           355.11985      136510.99     -807624.52     -9677.35        0.3614314      0.057217399    28.542487      3435.5547    
      1750   3.5            349.98511      134106.24     -807626.72     -9579.5291      0.36140643     0.056642946    28.574785      3435.223     
      1760   3.52           347.77466      131837.56     -807629.17     -9489.6052      0.36138131     0.056115133    28.516684      3434.9309    
      1770   3.54           346.82204      131691.33     -807630.94     -9426.4816      0.36135605     0.055745758    28.496083      3434.6522    
      1780   3.56           339.31001      132795.12     -807627.17     -9515.2029      0.36133065     0.056274389    28.493622      3434.3744    
      1790   3.58           355.2136       134119.92     -807625.18     -9651.0949      0.36130511     0.05708211     28.530379      3434.071     
      1800   3.6            346.34674      138917.83     -807621.35     -9736.0665      0.36127942     0.057588775    28.577767      3433.7353    
      1810   3.62           343.2703       139656.7      -807620.34     -9758.8907      0.3612536      0.057727907    28.56918       3433.4051    
      1820   3.64           357.39287      138842.85     -807622.62     -9750.5751      0.36122763     0.057682864    28.574408      3433.0713    
      1830   3.66           350.25673      135998.83     -807624.06     -9677.4336      0.36120151     0.057254309    28.586149      3432.7296    
      1840   3.68           350.89241      132785.38     -807628.86     -9531.9443      0.36117526     0.056397655    28.581162      3432.3911    
      1850   3.7            337.78985      131153.28     -807629.47     -9458.827       0.36114886     0.055969132    28.591298      3432.0459    
      1860   3.72           345.15312      131169.51     -807630.45     -9467.5887      0.36112232     0.056025093    28.561982      3431.7195    
      1870   3.74           340.97641      133960.08     -807627.12     -9562.0506      0.36109564     0.056588259    28.524098      3431.4173    
      1880   3.76           347.69486      136635.51     -807625.17     -9661.7951      0.36106881     0.057182796    28.581276      3431.078     
      1890   3.78           347.39213      138666.77     -807623.05     -9734.9733      0.36104184     0.0576202      28.571597      3430.7447    
      1900   3.8            344.61301      138801.21     -807621.62     -9775.5979      0.36101474     0.057864998    28.538374      3430.4324    
      1910   3.82           340.17277      137901.91     -807623.02     -9717.9027      0.36098748     0.057527824    28.57032       3430.0994    
      1920   3.84           343.38409      134100.45     -807627.35     -9601.0079      0.36096009     0.056840146    28.510847      3429.8036    
      1930   3.86           337.16934      132772.73     -807629.83     -9499.3433      0.36093255     0.056242559    28.513061      3429.5058    
      1940   3.88           328.87491      130572.72     -807631.42     -9418.7434      0.36090487     0.05576963     28.498737      3429.2164    
      1950   3.9            339.08928      131778.65     -807631.07     -9477.381       0.36087705     0.056121157    28.593879      3428.8677    
      1960   3.92           346.13632      132440.77     -807630.32     -9539.9302      0.36084909     0.056495926    28.603658      3428.513     
      1970   3.94           341.98692      136788.27     -807626.1      -9660.1449      0.36082098     0.057212299    28.666411      3428.1202    
      1980   3.96           334.7008       137722.61     -807622.68     -9742.059       0.36079273     0.057701953    28.607836      3427.7632    
      1990   3.98           338.45442      138664.78     -807621.44     -9798.9345      0.36076434     0.058043392    28.614559      3427.4023    
      2000   4              324.40979      137558.65     -807622.87     -9695.8891      0.36073581     0.057437553    28.562529      3427.0727    
      2010   4.02           333.48478      134826.37     -807627.31     -299.80446      0.36070713     0.056836964    28.65453       3426.6881    
      2020   4.04           337.22746      131588.66     -807631.02     -296.6877       0.36067831     0.056250584    28.640499      3426.3121    
      2030   4.06           335.89692      129878.64     -807632.09     -295.48855      0.36064935     0.056027729    28.655826      3425.9274    
      2040   4.08           338.24956      130941.91     -807632        -295.86878      0.36062025     0.056104351    28.62908       3425.5586    
      2050   4.1            333.98227      132903.35     -807629.78     -297.56537      0.36059101     0.056430645    28.627912      3425.1908    
      2060   4.12           338.56275      136792.33     -807624.67     -303.27365      0.36056162     0.057517857    28.651537      3424.8094    
      2070   4.14           333.80899      137653.92     -807622.35     -304.96972      0.36053209     0.057844266    28.645507      3424.4319    
      2080   4.16           320.52645      139550.58     -807620.57     -304.79285      0.36050242     0.057815476    28.603109      3424.0789    
      2090   4.18           328.40486      136555.01     -807624.81     -301.633        0.36047261     0.057220823    28.545036      3423.7593    
      2100   4.2            338.58865      134650.08     -807628.05     -299.70495      0.36044265     0.056859791    28.580882      3423.419     
      2110   4.22           345.94612      130610.46     -807631.86     -296.778        0.36041256     0.056309194    28.565099      3423.0875    
      2120   4.24           332.14717      130356.55     -807632.21     -294.39208      0.36038232     0.055861188    28.59003       3422.7417    
      2130   4.26           335.17409      132149.54     -807631.99     -294.93896      0.36035193     0.055969677    28.5693        3422.4076    
      2140   4.28           339.47755      134816.89     -807628.61     -298.74228      0.36032141     0.056696225    28.647691      3422.0295    
      2150   4.3            336.49868      136441.39     -807623.74     -303.02393      0.36029075     0.057513703    28.662859      3421.6433    
      2160   4.32           334.56089      138654.09     -807622.69     -303.55907      0.36025994     0.057620199    28.601698      3421.2912    
      2170   4.34           330.96483      138753        -807622.83     -302.67568      0.36022899     0.057457456    28.597334      3420.9416    
      2180   4.36           344.07465      136231.9      -807625.57     -301.50174      0.36019789     0.057239544    28.578623      3420.6022    
      2190   4.38           341.78653      134336.73     -807627.46     -298.93379      0.36016666     0.056756947    28.605721      3420.2479    
      2200   4.4            347.93556      131430.5      -807631.33     -295.56571      0.36013528     0.056122355    28.656773      3419.866     
      2210   4.42           343.43179      131083.34     -807631.52     -294.31129      0.36010377     0.055889057    28.633786      3419.4967    
      2220   4.44           346.13309      132871.97     -807630.04     -295.77798      0.36007211     0.056172517    28.694751      3419.095     
      2230   4.46           342.59707      135034.38     -807625.22     -299.77319      0.3600403      0.056936293    28.696339      3418.6929    
      2240   4.48           344.12942      137736.66     -807623.06     -301.73331      0.36000836     0.057313666    28.725487      3418.2759    
      2250   4.5            351.19899      138230.35     -807623.22     -302.23136      0.35997627     0.057413388    28.660811      3417.8936    
      2260   4.52           348.60962      137992.29     -807621.64     -303.1201       0.35994404     0.057587373    28.633076      3417.5262    
      2270   4.54           348.73295      136467.69     -807624.22     -300.33212      0.35991167     0.057062838    28.637864      3417.1564    
      2280   4.56           349.39302      134145.02     -807626.17     -298.23875      0.35987916     0.056670219    28.639078      3416.7862    
      2290   4.58           345.4815       132182.17     -807629.04     -294.70784      0.35984651     0.05600437     28.626172      3416.4229    
      2300   4.6            351.75128      132436.48     -807629.84     -294.61698      0.35981371     0.055992207    28.60827       3416.069     
      2310   4.62           354.92732      131787.34     -807628.51     -296.37892      0.35978077     0.056332221    28.605389      3415.7166    
      2320   4.64           349.78452      136037.91     -807624.54     -299.57793      0.35974769     0.056945487    28.590555      3415.3719    
      2330   4.66           342.46855      136795.37     -807622.37     -300.77899      0.35971447     0.057179072    28.565293      3415.0401    
      2340   4.68           358.95941      139117.7      -807622.6      -302.79942      0.35968111     0.057568502    28.577186      3414.7021    
      2350   4.7            346.90565      137601.28     -807621.04     -302.76593      0.3596476      0.057567496    28.582839      3414.3611    
      2360   4.72           360.29324      136490.74     -807625.31     -300.41599      0.35961396     0.057126027    28.607144      3414.0078    
      2370   4.74           352.76233      133134.98     -807628.66     -296.06415      0.35958017     0.056303787    28.610191      3413.6529    
      2380   4.76           352.7332       132684.29     -807629.26     -295.50416      0.35954624     0.056202595    28.58539       3413.3105    
      2390   4.78           351.19141      131773.29     -807630.14     -294.59211      0.35951216     0.05603444     28.623059      3412.9492    
      2400   4.8            356.6481       133622.62     -807629.44     -296.13767      0.35947795     0.056333783    28.629916      3412.5847    
      2410   4.82           349.88586      135284.59     -807627.09     -297.68878      0.35944359     0.056634261    28.638219      3412.2161    
      2420   4.84           335.10068      137353.4      -807621.83     -301.02387      0.35940909     0.057274248    28.573137      3411.8798    
      2430   4.86           347.19356      138414.85     -807621.63     -303.06989      0.35937446     0.057669091    28.585784      3411.5372    
      2440   4.88           343.68072      137796.34     -807622.64     -301.67568      0.35933967     0.057409352    28.644023      3411.1661    
      2450   4.9            349.4563       135494.69     -807626.39     -298.77564      0.35930475     0.056862996    28.666331      3410.7843    
      2460   4.92           337.93046      133240.45     -807627.41     -296.34245      0.35926969     0.056405416    28.683617      3410.3945    
      2470   4.94           353.66809      132537.81     -807630.58     -295.44834      0.35923448     0.056240744    28.669207      3410.0119    
      2480   4.96           351.68892      130279.96     -807632.62     -293.24904      0.35919913     0.055827584    28.677085      3409.6258    
      2490   4.98           337.37267      134336        -807627.86     -296.09348      0.35916364     0.056374669    28.662285      3409.2471    
      2500   5              345.34037      133948.96     -807626.97     -298.29006      0.35912801     0.056798519    28.669614      3408.8651    
[...]
     98740   197.48         348.32293      135104.33     -807624.35     -9686.4975      0.36236891     0.057123312    29.288212      43.694258    
     98750   197.5          351.79606      136156.85     -807624.66     -9690.965       0.36238762     0.057146708    29.259048      43.347415    
     98760   197.52         353.08118      134616.94     -807627.39     -9608.8778      0.36240618     0.056659745    29.271298      43.000571    
     98770   197.54         348.82153      136354.46     -807624.53     -9682.4885      0.36242459     0.057090898    29.245499      42.653732    
     98780   197.56         342.94412      136157.56     -807623.03     -9709.815       0.36244287     0.057249136    29.273757      42.30689     
     98790   197.58         343.66983      137152.97     -807623.09     -9709.9697      0.362461       0.057247185    29.293246      41.960046    
     98800   197.6          355.53718      133887.77     -807628.77     -9584.4813      0.36247899     0.056504537    29.269257      41.613206    
     98810   197.62         338.86292      136245.31     -807624.31     -9654.14        0.36249683     0.056912402    29.294396      41.266365    
     98820   197.64         349.76814      133977.72     -807625.4      -9677.8003      0.36251453     0.057049097    29.302328      40.919523    
     98830   197.66         342.10758      136285.51     -807623.73     -9699.7498      0.36253209     0.057175716    29.304409      40.572682    
     98840   197.68         344.02313      133617.38     -807627.35     -9600.1024      0.36254951     0.056585621    29.241963      40.22585     
     98850   197.7          338.70088      137387.87     -807624.16     -9683.7465      0.36256678     0.057075923    29.251815      39.879018    
     98860   197.72         339.74914      135067.83     -807623.7      -9717.1331      0.36258391     0.057269997    29.240996      39.532189    
     98870   197.74         344.1867       136421.08     -807624.2      -9727.36        0.3626009      0.057327586    29.269939      39.185357    
     98880   197.76         350.51834      134003.34     -807629.17     -9609.5287      0.36261774     0.056630523    29.249406      38.838529    
     98890   197.78         345.02468      135447.84     -807627.31     -9656.0165      0.36263445     0.056901863    29.226772      38.491704    
     98900   197.8          332.56124      133978.84     -807624.81     -9696.4106      0.362651       0.057137292    29.259436      38.144876    
     98910   197.82         334.13473      135613.02     -807626.33     -9664.8032      0.36266742     0.056948464    29.285271      37.798046    
     98920   197.84         331.83164      133981.34     -807628.63     -9593.0041      0.36268369     0.056522862    29.255084      37.451221    
     98930   197.86         336.35181      135273.49     -807626.69     -9684.2929      0.36269982     0.057058206    29.26574       37.104396    
     98940   197.88         332.72435      134619.06     -807625.78     -9708.7582      0.36271581     0.057199831    29.248062      36.757574    
     98950   197.9          331.97273      136344.38     -807625.65     -9711.9396      0.36273165     0.057216075    29.211752      36.410757    
     98960   197.92         335.17543      134303.67     -807628.46     -9643.6435      0.36274735     0.056811263    29.202833      36.063942    
     98970   197.94         332.66645      136044.01     -807625.64     -9723.8265      0.36276291     0.057281168    29.160612      35.717134    
     98980   197.96         326.35907      134566.55     -807625.17     -9716.1541      0.36277832     0.05723354     29.239234      35.370316    
     98990   197.98         328.1367       136076.64     -807626.41     -9682.5183      0.36279359     0.057033005    29.270526      35.023496    
     99000   198            331.72068      134047.91     -807628.96     -9616.0777      0.36280872     0.056639288    29.278642      34.676676    
     99010   198.02         338.02903      134968.15     -807627.58     -302.74427      0.3628237      0.057059478    29.346651      34.329849    
     99020   198.04         334.28351      134704.33     -807626.31     -303.5447       0.36283855     0.057207999    29.345135      33.983024    
     99030   198.06         329.90104      135250.64     -807627        -302.22319      0.36285324     0.05695663     29.374641      33.636196    
     99040   198.08         339.49058      134256.55     -807629.53     -301.00715      0.3628678      0.056725182    29.357482      33.289372    
     99050   198.1          333.65857      135423.54     -807626.39     -303.2329       0.36288221     0.057142357    29.341455      32.94255     
     99060   198.12         326.61492      135191.28     -807625.01     -303.62314      0.36289648     0.057213647    29.34362       32.59573     
     99070   198.14         327.74417      135527.89     -807626.22     -302.45788      0.36291061     0.05699185     29.362118      32.248909    
     99080   198.16         327.16571      134825.77     -807626.86     -301.64874      0.36292459     0.056837195    29.359715      31.902089    
     99090   198.18         329.53853      135942.49     -807625.48     -303.2729       0.36293843     0.057141043    29.356368      31.555271    
     99100   198.2          327.84601      135644.87     -807624.57     -303.84874      0.36295213     0.05724738     29.341209      31.208456    
     99110   198.22         330.82199      135709.49     -807626        -302.6846       0.36296568     0.057025917    29.295745      30.861647    
     99120   198.24         332.68507      135304.85     -807627.29     -301.52741      0.36297909     0.056805804    29.293917      30.514839    
     99130   198.26         329.78487      135573.73     -807625.2      -303.03553      0.36299236     0.057087838    29.245087      30.168037    
     99140   198.28         344.08849      134137.77     -807627.21     -302.78417      0.36300548     0.057038422    29.238172      29.821237    
     99150   198.3          337.38579      134570.88     -807626.58     -302.28924      0.36301846     0.05694315     29.238219      29.474437    
     99160   198.32         344.42927      134463.35     -807627.99     -301.70691      0.3630313      0.056831445    29.249574      29.127638    
     99170   198.34         335.24881      135155.74     -807625.06     -303.21824      0.36304399     0.057114132    29.281414      28.780837    
     99180   198.36         353.4252       134979.25     -807626.99     -303.65345      0.36305655     0.057194131    29.257989      28.434038    
     99190   198.38         326.52353      136170.71     -807624.27     -302.51217      0.36306895     0.05697722     29.241408      28.087243    
     99200   198.4          338.11157      135678.42     -807625.66     -302.563        0.36308122     0.056984868    29.221732      27.74045     
     99210   198.42         346.73202      134301.99     -807626.82     -302.53114      0.36309334     0.056976965    29.143886      27.393666    
     99220   198.44         344.40271      136601.14     -807624.78     -304.0542       0.36310532     0.057261921    29.201106      27.046877    
     99230   198.46         332.29858      134833.06     -807625.8      -301.26118      0.36311715     0.056734069    29.251378      26.700084    
     99240   198.48         345.88262      135806.56     -807626.61     -302.10476      0.36312885     0.056891101    29.310228      26.353287    
     99250   198.5          347.95948      133761.12     -807626.83     -302.15737      0.3631404      0.056899199    29.324281      26.00649     
     99260   198.52         335.73731      136201.64     -807622.89     -304.19881      0.3631518      0.057281823    29.333989      25.659693    
     99270   198.54         347.15753      134031.16     -807627.27     -301.35412      0.36316306     0.056744397    29.392755      25.312892    
     99280   198.56         335.70452      137093.74     -807623.68     -303.1938       0.36317418     0.057089057    29.371996      24.966095    
     99290   198.58         346.70022      134599.68     -807624.92     -303.51538      0.36318516     0.057147879    29.350543      24.6193      
     99300   198.6          347.37743      137679.47     -807623.5      -304.86606      0.36319599     0.057400483    29.348901      24.272507    
     99310   198.62         347.78917      134524.82     -807627.31     -301.16621      0.36320668     0.056702202    29.381633      23.925712    
     99320   198.64         347.37406      136887.38     -807625.9      -302.35575      0.36321723     0.056924511    29.403469      23.578917    
     99330   198.66         345.26436      134554.54     -807626.39     -301.7168       0.36322763     0.056802589    29.375623      23.232126    
     99340   198.68         347.04037      136027        -807625.21     -303.06846      0.36323789     0.057055447    29.347794      22.885338    
     99350   198.7          345.92253      133584.74     -807626.96     -301.19938      0.36324801     0.056701996    29.38492       22.538548    
     99360   198.72         346.50414      135415.99     -807625.76     -302.4517       0.36325798     0.056936187    29.351915      22.191762    
     99370   198.74         348.46419      134922.21     -807624.98     -303.69502      0.36326781     0.057168694    29.324106      21.84498     
     99380   198.76         356.18415      136453.98     -807624.95     -304.77932      0.3632775      0.057371277    29.324749      21.498198    
     99390   198.78         360.4255       134866.29     -807627.8      -302.75904      0.36328704     0.056989484    29.372086      21.151414    
     99400   198.8          330.4246       136444.13     -807623.91     -302.55383      0.36329644     0.056949383    29.356332      20.804633    
     99410   198.82         355.40037      133929.47     -807627.41     -302.87763      0.3633057      0.057008881    29.356826      20.457853    
     99420   198.84         337.04708      135265.17     -807625.1      -302.9529       0.36331481     0.057021617    29.33551       20.111075    
     99430   198.86         333.34614      134740.94     -807626.03     -301.85785      0.36332378     0.056814105    29.301519      19.764301    
     99440   198.88         324.59647      136048.13     -807624.83     -302.18294      0.36333261     0.056873909    29.314747      19.417528    
     99450   198.9          344.773        134657.51     -807626.71     -303.51862      0.36334129     0.057123934    29.305111      19.070756    
     99460   198.92         339.24961      135954.64     -807624.96     -304.92873      0.36334983     0.057387975    29.314417      18.723984    
     99470   198.94         343.27827      135087.69     -807627.15     -303.69496      0.36335823     0.057154457    29.254779      18.377218    
     99480   198.96         330.41523      136145.59     -807626.3      -303.1076       0.36336648     0.057042622    29.268396      18.030451    
     99490   198.98         328.24701      134852.25     -807626.64     -302.80002      0.3633746      0.056983465    29.268539      17.683686    
     99500   199            337.80135      133538.35     -807628.4      -302.59905      0.36338256     0.056944396    29.302244      17.336919    
     99510   199.02         330.62897      134040.26     -807628.61     -9652.3106      0.36339039     0.0567617      29.279702      16.990155    
     99520   199.04         344.17334      134227.09     -807630.12     -9668.0062      0.36339807     0.056852799    29.292395      16.643392    
     99530   199.06         321.41016      135278.12     -807625.58     -9717.1347      0.3634056      0.057140514    29.262336      16.296631    
     99540   199.08         336.21239      135156.05     -807627.22     -9732.7603      0.363413       0.057231234    29.269353      15.94987     
     99550   199.1          341.56077      135779.74     -807627.68     -9743.3167      0.36342025     0.057292166    29.273267      15.603111    
     99560   199.12         323.0761       135706.57     -807625.55     -9732.2053      0.36342736     0.05722571     29.292107      15.256351    
     99570   199.14         325.49564      135260.57     -807626.47     -9712.4096      0.36343432     0.057108215    29.257971      14.909595    
     99580   199.16         331.18834      134297.66     -807628.54     -9670.846       0.36344114     0.056862758    29.263281      14.562839    
     99590   199.18         327.98451      134443.7      -807627.61     -9685.0727      0.36344782     0.056945362    29.279995      14.216083    
     99600   199.2          334.33273      133834.31     -807628.65     -9677.3675      0.36345435     0.056899035    29.297837      13.869328    
     99610   199.22         331.9964       134300.88     -807628.43     -9670.4818      0.36346074     0.05685755     29.279432      13.522574    
     99620   199.24         331.48127      135857.64     -807626.25     -9733.4086      0.36346699     0.057226544    29.242202      13.175823    
     99630   199.26         332.08531      135432.97     -807625.61     -9753.761       0.3634731      0.057345241    29.269299      12.829072    
     99640   199.28         340.65796      136302.79     -807625.87     -9775.4664      0.36347906     0.05747191     29.277942      12.482322    
     99650   199.3          333.8433       135623.8      -807626.82     -9709.4302      0.36348487     0.057082757    29.272525      12.135573    
     99660   199.32         336.24684      136592.79     -807627.16     -9703.0556      0.36349055     0.057044389    29.274721      11.788825    
     99670   199.34         345.38391      133161.7      -807629.95     -9649.2913      0.36349608     0.056727445    29.257577      11.442078    
     99680   199.36         334.94         134396.13     -807627.43     -9674.5343      0.36350147     0.056875004    29.240249      11.095333    
     99690   199.38         332.42538      133869.93     -807629.11     -9604.3029      0.36350671     0.056461311    29.243492      10.748589    
     99700   199.4          337.00634      134951.61     -807627.47     -9669.8581      0.36351181     0.056845896    29.255843      10.401846    
     99710   199.42         340.08305      134695.53     -807626.73     -9702.0053      0.36351677     0.057034101    29.235718      10.055104    
     99720   199.44         342.33395      136212.02     -807625.11     -9756.8877      0.36352158     0.057355973    29.232913      9.7083632    
     99730   199.46         342.10105      136261.11     -807624.5      -9768.4714      0.36352625     0.05742333     29.191408      9.3616247    
     99740   199.48         348.546        135523.25     -807626.49     -9728.2804      0.36353078     0.057186357    29.242095      9.0148854    
     99750   199.5          340.35384      135884.99     -807625.24     -9726.5914      0.36353516     0.057175739    29.253398      8.6681468    
     99760   199.52         341.98906      134160.17     -807627.25     -9665.4273      0.3635394      0.056815536    29.252627      8.3214092    
     99770   199.54         324.33895      136367.13     -807624.65     -9664.8995      0.3635435      0.056811793    29.265237      7.9746723    
     99780   199.56         344.19107      134086.1      -807628.89     -9617.1819      0.36354745     0.056530687    29.240787      7.6279369    
     99790   199.58         338.50135      135854.06     -807625.06     -9708.6069      0.36355126     0.057067494    29.253883      7.2812022    
     99800   199.6          337.42254      135394.84     -807625.46     -9690.7191      0.36355493     0.056961774    29.273386      6.9344681    
     99810   199.62         344.26913      137664.49     -807623.76     -9770.6709      0.36355845     0.057431172    29.264597      6.5877351    
     99820   199.64         335.57034      136651.67     -807623.51     -9740.5953      0.36356183     0.057253858    29.285672      6.2410027    
     99830   199.66         340.77743      138315.58     -807623.62     -9758.2122      0.36356507     0.057356897    29.268396      5.8942717    
     99840   199.68         350.01814      134439.9      -807627.27     -9684.0608      0.36356816     0.056920565    29.258808      5.547542     
     99850   199.7          354.61109      134628.37     -807628.56     -9659.4306      0.36357111     0.056775333    29.227667      5.2008137    
     99860   199.72         348.5369       133321.41     -807629.2      -9614.6294      0.36357392     0.056511569    29.248935      4.854086     
     99870   199.74         333.38546      135721.15     -807624.77     -9689.1488      0.36357658     0.056949152    29.248911      4.5073593    
     99880   199.76         343.71534      135241.42     -807626.56     -9679.7463      0.3635791      0.056893493    29.302988      4.1606328    
     99890   199.78         350.79879      136509.31     -807626.3      -9719.8569      0.36358148     0.057128873    29.278031      3.8139077    
     99900   199.8          334.22344      137558.61     -807622.44     -9773.5861      0.36358371     0.057444316    29.276409      3.4671837    
     99910   199.82         339.538        137368.49     -807623.02     -9779.4174      0.3635858      0.057478259    29.280181      3.1204606    
     99920   199.84         340.27376      135883.69     -807625.27     -9711.7189      0.36358775     0.057080058    29.289758      2.7737385    
     99930   199.86         335.70106      134596.99     -807627.17     -9632.5416      0.36358955     0.056614417    29.256106      2.4270178    
     99940   199.88         347.34644      133828.28     -807628.13     -9653.6786      0.36359121     0.056738389    29.268174      2.0802979    
     99950   199.9          338.33123      133871        -807626.84     -9657.7927      0.36359273     0.056762332    29.327909      1.7335787    
     99960   199.92         333.52068      134988.22     -807625.33     -9686.1836      0.3635941      0.056928981    29.312256      1.3868608    
     99970   199.94         329.22638      135231.34     -807624.98     -9679.4972      0.36359533     0.056889491    29.265704      1.0401441    
     99980   199.96         338.28613      136890.73     -807623.34     -9773.9519      0.36359641     0.057444459    29.291304      0.69342831   
     99990   199.98         352.96162      136043.39     -807625.19     -9784.7067      0.36359736     0.057507519    29.27371       0.34671365   
    100000   200            347.23188      137134.31     -807625.32     -9753.0566      0.36359816     0.057321377    29.228085      0            
Loop time of 3467.13 on 32 procs for 100000 steps with 1080 atoms

Performance: 4.984 ns/day, 4.815 hours/ns, 28.842 timesteps/s, 31.150 katom-step/s
62.5% CPU use with 32 MPI tasks x 1 OpenMP threads

MPI task timing breakdown:
Section |  min time  |  avg time  |  max time  |%varavg| %total
---------------------------------------------------------------
Pair    | 2547.4     | 2794.4     | 3169.8     | 315.0 | 80.60
Neigh   | 0.0016545  | 0.0018024  | 0.0019752  |   0.2 |  0.00
Comm    | 224.5      | 599.67     | 846.95     | 679.9 | 17.30
Output  | 2.324      | 2.3319     | 2.3415     |   0.3 |  0.07
Modify  | 64.255     | 64.708     | 65.152     |   2.1 |  1.87
Other   |            | 6.025      |            |       |  0.17

Nlocal:          33.75 ave          42 max          27 min
Histogram: 2 2 6 4 6 3 2 2 4 1
Nghost:        1035.47 ave        1050 max        1012 min
Histogram: 2 0 1 3 1 6 4 8 5 2
Neighs:              0 ave           0 max           0 min
Histogram: 32 0 0 0 0 0 0 0 0 0
FullNghs:      5341.38 ave        6673 max        4230 min
Histogram: 2 3 5 4 6 3 2 3 3 1

Total # of neighbors = 170924
Ave neighs/atom = 158.26296
Neighbor list builds = 4
Dangerous builds = 0

Total wall time: 1:01:07
