
units		metal
atom_style	atomic

read_data ${STRUCTURE}.data
read_data BaTiO3-sc333.data
Reading data file ...
  orthogonal box = (0 0 0) to (11.898253 11.898253 12.912076)
  2 by 4 by 4 MPI processor grid
  reading atoms ...
  135 atoms
  read_data CPU = 0.004 seconds
replicate $L $L $L
replicate 2 $L $L
replicate 2 2 $L
replicate 2 2 2
Replication is creating a 2x2x2 = 8 times larger system...
  orthogonal box = (0 0 0) to (23.796507 23.796507 25.824152)
  2 by 4 by 4 MPI processor grid
  1080 atoms
  replicate CPU = 0.003 seconds

pair_style allegro
pair_coeff	* * ${MODEL}.pth Ba Ti O
pair_coeff	* * BaTiO3-E0.pth Ba Ti O
mass 1 137.3
mass 2 47.9
mass 3 15.9994

timestep 0.002
compute polarization all allegro polarization 3
compute allegro will evaluate the quantity polarization of length 3 (src/compute_allegro.cpp:53)
compute polarizability all allegro polarizability 9
compute allegro will evaluate the quantity polarizability of length 9 (src/compute_allegro.cpp:53)

thermo_style custom pe fmax fnorm spcpu cpuremain

variable efield equal 1e-2*36.36
fix born all addbornforce 0.0 0.0 ${efield}
fix born all addbornforce 0.0 0.0 0.3636

thermo 10
min_style fire
#minimize 0.0 1e-6 100 100
velocity all create ${TEMP} ${SEED} dist gaussian rot yes mom yes
velocity all create 310 ${SEED} dist gaussian rot yes mom yes
velocity all create 310 9506 dist gaussian rot yes mom yes
fix nvt all nvt temp ${TEMP} ${TEMP} $(100*dt)
fix nvt all nvt temp 310 ${TEMP} $(100*dt)
fix nvt all nvt temp 310 310 $(100*dt)
fix nvt all nvt temp 310 310 0.2000000000000000111
run 5000
Neighbor list info ...
  update: every = 1 steps, delay = 0 steps, check = yes
  max neighbors/atom: 2000, page size: 100000
  master list distance cutoff = 8
  ghost atom cutoff = 8
  binsize = 8, bins = 3 3 4
  1 neighbor lists, perpetual/occasional/extra = 1 0 0
  (1) pair allegro/kk, perpetual
      attributes: full, newton on, kokkos_device
      pair build: full/bin/kk/device
      stencil: full/bin/3d
      bin: kk/device
Per MPI rank memory allocation (min/avg/max) = 3.516 | 3.516 | 3.516 Mbytes
    PotEng          Fmax          Fnorm          S/CPU         CPULeft    
-807708.29      1.5955922      37.04204       0              0            
-807644.67      3.7299204      46.400556      2.388036       2089.5842    
-807635.81      2.729675       35.833709      25.909715      1138.8013    
-807606.15      3.5257016      39.139893      25.90596       821.62559    
-807604.4       4.1045486      51.045126      25.86334       662.92364    
-807565.46      4.1712551      42.06869       25.844592      567.57557    
-807602.17      2.9799056      39.738311      25.885971      503.83028    
-807645.25      3.8552492      35.545349      25.859944      458.21491    
-807684.59      2.6499988      34.829332      25.79889       423.96305    
-807665.78      3.5832462      35.380989      25.852324      397.19285    
-807654.15      3.5495428      34.244305      25.88409       375.67605    
-807660.27      2.9926987      27.183386      25.899962      357.99064    
-807630.05      4.4287171      31.32774       25.867129      343.20838    
-807584.1       4.2321955      39.063063      25.828736      330.66236    
-807571.79      4.8436554      37.598244      25.868882      319.83246    
-807632.61      3.4772135      33.024106      25.868218      310.39534    
-807655.92      3.6980243      29.64769       25.862022      302.09232    
-807663.83      2.7364283      33.756412      25.880553      294.71277    
-807648.64      4.2825956      43.594108      25.926596      288.09188    
-807680.94      2.6204401      35.972322      25.897634      282.13823    
-807642.8       4.0869754      38.507319      25.873262      276.75007    
-807615.2       3.116678       39.005499      25.892061      271.83185    
-807562.81      5.0679321      45.952415      25.908703      267.32025    
-807606.96      4.0258447      49.758288      25.856978      263.18339    
-807613.56      4.1660579      38.962988      25.837302      259.36491    
-807641.37      3.0582114      35.575276      25.886125      255.80706    
-807643.54      4.2758117      45.286282      25.900103      252.48938    
-807683.92      2.8124787      37.88479       25.869396      249.39688    
-807660.47      3.7269538      36.052665      25.796116      246.51618    
-807637.26      3.4641358      33.167871      25.890366      243.78448    
-807608.5       3.1034707      34.05135       25.896149      241.2078     
-807606.02      4.2728723      43.688218      25.781164      238.7985     
-807596.19      3.2359689      36.639277      25.766285      236.51882    
-807608.23      3.3159155      33.994996      25.899236      234.32558    
-807644.58      3.0595338      29.960766      25.920386      232.23433    
-807674.16      2.3225153      32.24374       25.930723      230.23848    
-807676.59      2.8176349      32.094331      25.893161      228.3393     
-807643.55      4.0905883      37.930969      25.960215      226.50943    
-807650.27      2.4653216      30.042568      25.982766      224.75152    
-807623.67      3.7260902      33.257977      25.943117      223.07098    
-807601.26      3.6458349      42.535843      25.89658       221.46316    
-807569.61      4.3115461      41.225081      25.969189      219.90284    
-807626.81      3.0931442      35.443918      25.988737      218.39534    
-807649.7       4.4248264      36.037772      26.004747      216.93753    
-807672.06      3.1042593      35.319904      25.932874      215.53955    
-807641.75      6.0706566      46.799264      25.978985      214.17964    
-807668.68      3.1346073      35.134163      25.947748      212.86671    
-807643.57      4.6048218      37.167203      25.951779      211.59266    
-807622.49      3.283388       37.854591      25.928394      210.35891    
-807564.59      4.7505127      43.669429      25.967998      209.15437    
-807603.57      4.0163718      43.524071      25.97801       207.98127    
-807624.41      3.8683636      35.9775        25.9551        206.84207    
-807653.76      3.6119729      32.778064      26.011352      205.72469    
-807642.19      4.0154032      41.601506      25.98927       204.63772    
-807674.44      2.6485292      34.342572      25.961561      203.58015    
-807665.03      3.2451885      33.583767      25.905895      202.55373    
-807642.7       2.980169       30.229048      25.955203      201.54436    
-807600.17      3.4543215      34.283155      26.004695      200.55119    
-807599.39      3.2318335      38.046207      25.990515      199.58061    
-807606.68      3.7292867      38.889894      25.932705      198.6363     
-807619.6       3.3791505      32.700398      25.968954      197.70666    
-807638.01      2.8854217      33.385759      25.997098      196.79188    
-807664.81      3.7508096      34.487183      25.987685      195.89519    
-807676.45      2.7376413      35.410763      25.856502      195.02828    
-807644.88      4.2501192      38.930383      25.921808      194.16975    
-807634.77      2.9651287      33.415262      26.00821       193.31718    
-807614.82      3.6438974      35.7061        26.024646      192.4772     
-807604.27      4.1045949      44.654078      25.919251      191.66092    
-807579.53      3.8606782      40.899969      25.992521      190.8504     
-807617.88      3.314671       35.756287      26.027149      190.04901    
-807647.25      3.9428362      36.971948      26.021416      189.26007    
-807674.1       2.8906157      36.572412      25.951021      188.48883    
-807646.44      4.3586657      43.008321      25.961364      187.72739    
-807654.24      2.8932197      36.064195      26.014844      186.97162    
-807642.9       4.1132302      35.355105      25.979655      186.2289     
-807624.34      3.5232166      37.638084      25.999577      185.49404    
-807573.09      4.1103241      41.247309      26.021818      184.76656    
-807593.84      3.2005841      39.818194      26.069595      184.04413    
-807628.34      3.1626155      33.53037       26.005881      183.33548    
-807658.43      2.8269239      31.84375       5.7141022      189.91208    
-807649.31      3.8806874      37.037469      25.915774      189.11851    
-807659.65      4.3092848      35.084049      25.82242       188.34223    
-807665.91      3.2244009      32.268841      25.830898      187.57478    
-807642.47      3.4591947      31.881676      25.83866       186.81592    
-807602.7       3.342392       35.006662      21.342911      186.46964    
-807586.93      3.3091067      38.669869      25.929019      185.71588    
-807609.03      4.2988519      39.513854      25.873229      184.97468    
-807627.06      3.6009132      33.106734      25.900811      184.23968    
-807639.69      4.0866269      33.453413      25.922545      183.5111     
-807654.72      3.8371292      36.671997      20.116313      183.3044     
-807673.09      2.8697434      35.380388      25.830367      182.59029    
-807650.93      4.3826282      36.776129      25.835494      181.88302    
-807631.3       2.9102656      33.478442      16.703795      182.12111    
-807606.99      3.9693046      35.858134      16.510081      182.37196    
-807607.31      3.8359684      42.980755      25.92347       181.65463    
-807594.61      3.6613069      37.490471      25.884362      180.94676    
-807618.76      2.7131365      34.472527      25.900525      180.24457    
-807644.02      4.0274227      34.943997      25.928737      179.54716    
-807672.25      2.9249342      34.745253      25.863144      178.86012    
-807656.63      3.6375377      36.166097      25.854448      178.17968    
-807648.78      3.3197803      33.775653      25.885592      177.50325    
-807637.85      3.1036332      32.27987       25.911962      176.83101    
-807625.08      3.3874902      35.94746       25.911709      176.1644     
-807591         3.8269748      36.304625      25.894478      175.50423    
-807593.67      3.5696056      36.962465      25.982677      174.84434    
-807628.94      3.2725192      31.355381      25.914921      174.19347    
-807660.62      3.5225708      30.860248      25.882298      173.54941    
-807657.89      3.8696115      33.934275      25.928202      172.90765    
-807653.2       4.522933       35.120159      25.957293      172.26907    
-807658.96      3.0701894      31.847989      25.936553      171.63624    
-807643.13      3.5263402      31.862168      25.850742      171.01244    
-807610.37      3.1298547      34.213299      25.923015      170.38914    
-807584.13      3.0660728      37.308553      25.923235      169.77006    
-807609.55      3.2759114      36.359256      25.922315      169.15516    
-807634.47      3.5903079      31.229666      25.834277      168.54873    
-807647.66      2.5815881      32.639172      25.869457      167.94436    
-807648.15      4.355881       37.036245      25.895508      167.34245    
-807668.86      2.6168586      33.496887      25.841621      166.74686    
-807652.87      3.4218808      34.001272      25.831569      166.1553     
-807632.17      2.4794592      32.145767      25.89763       165.56402    
-807599.25      3.5611864      35.674225      25.924498      164.97488    
-807603.9       3.2672326      40.008913      25.876479      164.39135    
-807605.64      3.6227052      35.743357      25.847737      163.81239    
-807625.78      3.111638       32.774744      25.855746      163.23617    
-807639.3       3.621966       34.54492       25.884684      162.66171    
-807666.6       3.6070257      33.687197      25.919481      162.08869    
-807660.34      2.8059434      34.386573      25.864863      161.52107    
-807646.07      3.5417161      33.631951      25.900375      160.95474    
-807626.14      3.7220911      33.254369      25.91532       160.39058    
-807618.5       3.7025809      36.272094      25.919387      159.82901    
-807597.35      4.0505533      38.589401      25.862817      159.27254    
-807596.7       4.1188042      38.08034       25.858557      158.71885    
-807624.44      3.8644621      33.120897      25.857544      158.16773    
-807654.35      2.9761385      33.670718      25.908178      157.617      
-807660.22      2.6789262      34.156486      25.864135      157.07052    
-807649.28      3.5367275      36.135627      25.908755      156.5246     
-807648.28      3.0314321      33.048289      25.892998      155.98167    
-807638.18      3.3921417      32.518603      25.919303      155.43999    
-807612.95      3.2232149      34.860837      25.878748      154.90215    
-807585.35      4.7736062      38.754319      25.907498      154.36538    
-807605.88      3.203753       36.26084       25.928995      153.82994    
-807634.56      3.4375561      33.300034      25.9068        153.29746    
-807651.84      3.4937093      33.542321      25.854822      152.76901    
-807647.75      3.8216795      37.253865      25.854402      152.24255    
-807658.77      3.0979717      34.370291      25.907765      151.71606    
-807650.87      3.2263977      33.722218      25.842376      151.1939     
-807633.01      2.9335412      32.919802      25.769434      150.67625    
-807597.41      3.5046076      36.931807      25.929413      150.15461    
-807597.35      3.5744055      40.19672       25.892024      149.63614    
-807609.97      3.7774225      36.710777      25.851662      149.12085    
-807634.68      3.2392804      33.467547      25.65141       148.61434    
-807638.68      4.0567147      37.285668      25.908375      148.10042    
-807660.36      2.9404761      35.054348      25.850126      147.59019    
-807657.96      3.6361146      35.60792       25.846001      147.0817     
-807647.86      3.45592        32.967531      25.800281      146.57634    
-807620.31      3.9466263      34.014376      25.905609      146.06898    
-807612.58      2.9001651      35.603048      25.886519      145.56381    
-807600.83      3.3701124      38.468745      25.878275      145.06043    
-807610.81      2.9861843      34.920808      25.883426      144.55835    
-807625.33      4.2264379      33.483178      25.917351      144.05665    
-807652.09      2.9770636      32.684861      25.915761      143.55645    
-807661.6       2.6136247      33.719264      25.923399      143.05743    
-807653.04      3.6693299      34.598586      25.872935      142.56137    
-807640.8       4.2002141      33.896947      25.907184      142.06561    
-807630.39      2.6527213      33.181578      25.889969      141.57171    
-807614.59      4.1770294      36.336053      25.891097      141.07908    
-807595.81      3.081144       36.967581      25.795958      140.59059    
-807608.08      3.6749314      35.810775      25.930545      140.09931    
-807635.24      4.2766503      32.908119      25.887375      139.61055    
-807656.15      3.4698407      33.12181       25.884834      139.12307    
-807650.86      3.8856445      35.464798      25.825447      138.63852    
-807651.31      3.6188904      34.465754      25.883702      138.15342    
-807646.46      3.1553499      32.800836      25.830651      137.67099    
-807631.71      4.5936523      33.555418      25.85682       137.18891    
-807599.54      3.4140975      35.921597      25.897901      136.70679    
-807597         3.3087816      37.652425      25.905445      136.22555    
-807615.17      3.0794926      34.533545      25.918533      135.74503    
-807641.84      2.7269878      31.750786      25.893312      135.26628    
-807643.56      3.5138607      34.669084      25.892408      134.78858    
-807653.94      3.3138357      34.169193      25.841318      134.31328    
-807655.77      3.2660406      33.460678      25.841327      133.83895    
-807645.2       3.2097725      31.898937      25.827413      133.36596    
-807618.78      3.0198593      33.334561      25.891556      132.89224    
-807602.27      2.863622       35.841216      25.923348      132.41865    
-807602.92      2.7287499      35.795396      25.928432      131.94589    
-807617.56      3.1547364      35.160086      25.921363      131.47425    
-807630.97      3.5293095      33.063892      25.931512      131.00327    
-807647.13      3.0080435      34.044155      25.950721      130.53274    
-807657.92      2.9793254      34.357371      25.967542      130.06269    
-807652.49      3.221703       34.520113      25.920917      129.59468    
-807634.88      3.481001       33.481913      25.9362        129.12717    
-807622.02      2.7117439      33.316492      25.998317      128.65902    
-807608.15      3.3755506      36.365231      25.945844      128.193      
-807602.41      4.0875891      36.981651      25.946089      127.7278     
-807612.41      3.1638095      33.847397      25.967904      127.26291    
-807635.37      3.7936284      32.347705      25.967056      126.79886    
-807652.25      3.5070193      33.59262       25.904442      126.33706    
-807653.83      3.2141973      33.985932      25.89378       125.87628    
-807646.76      2.8346405      34.252175      25.905305      125.41598    
-807639.15      3.4242893      32.909023      25.92369       124.95602    
-807626.73      2.912707       34.163569      25.958357      124.49603    
-807604.78      3.5317686      36.61208       25.970481      124.03652    
-807600.98      3.3890282      37.496429      25.956027      123.57805    
-807618.46      4.0788034      33.596912      25.924629      123.12099    
-807641.08      2.5357416      32.597237      25.948426      122.66412    
-807647.8       3.3685305      34.358433      25.9227        122.2085     
-807650.72      3.6045886      34.565486      25.931423      121.75337    
-807646.98      3.1224834      34.100577      25.91964       121.29915    
-807643.87      2.5123893      32.018675      25.927812      120.84543    
-807620.73      2.9565387      32.741898      25.937661      120.39215    
-807601.75      3.5073214      36.874285      25.94026       119.93947    
-807605.62      3.4492524      35.627801      25.922578      119.48778    
-807627.69      3.0772086      33.442705      25.919748      119.03677    
-807635.79      3.9135205      34.148215      25.903528      118.5867     
-807647.7       2.9835807      33.513247      25.941491      118.13647    
-807652.77      3.0516328      34.851612      25.94599       117.68675    
-807653.29      3.6384294      33.437868      25.919143      117.23816    
-807633.72      3.3136331      33.643828      25.940993      116.78972    
-807617.14      2.8346126      34.345136      26.017137      116.3404     
-807607.09      3.3541808      36.146418      25.984026      115.89229    
-807610.31      3.3914504      36.894126      25.944152      115.44552    
-807620.76      3.752097       34.293792      25.91973       114.99976    
-807636.77      3.2995417      33.413699      25.94136       114.55414    
-807650.65      4.2072406      33.820231      25.938601      114.10911    
-807653.58      3.2205011      34.138101      25.917942      113.66499    
-807644.94      3.3564894      34.62252       25.932649      113.22112    
-807630.64      3.9607894      34.348742      25.969859      112.77709    
-807622.04      3.1713221      33.949801      25.979957      112.33341    
-807608.13      2.737741       36.771116      25.925756      111.8912     
-807606.46      2.7269807      35.725303      25.920668      111.44957    
-807621.86      2.6801733      33.602607      25.942539      111.00805    
-807644.79      3.1130721      31.933462      25.912299      110.56753    
-807649.07      3.0282992      34.427275      25.921644      110.12733    
-807648.51      3.4060033      34.547168      25.938723      109.6873     
-807641.24      3.2605492      34.962591      25.926493      109.24795    
-807636.27      3.6113462      33.438095      25.951911      108.80862    
-807616.99      3.5320655      35.360737      25.96619       108.36952    
-807601.7       3.9316316      37.950379      25.920058      107.93163    
-807606.02      4.1375849      35.907077      25.927807      107.49405    
-807629.26      3.4107608      33.790464      25.955227      107.05646    
-807641.46      3.7718341      33.811983      25.942126      106.61952    
-807646.64      3.9299203      34.709466      25.945496      106.18295    
-807646.5       2.6883025      34.332         25.940641      105.74689    
-807646.37      3.7674038      34.285148      25.916019      105.31162    
-807631.6       3.3799549      34.106252      25.905164      104.87693    
-807609.96      3.4257972      36.271623      25.933842      104.44219    
-807602.51      4.1798523      37.068472      25.95478       104.00753    
-807613.63      3.2418842      36.317059      25.963497      103.57314    
-807626.89      3.1385885      34.152099      25.926467      103.13971    
-807637.82      3.2938996      34.402584      25.986966      102.70575    
-807646.97      3.4078337      35.231946      25.948842      102.27275    
-807651.51      3.2672         34.750135      25.971674      101.8398     
-807642.64      3.6959711      34.478896      25.916903      101.40802    
-807624.62      2.7344247      34.386166      25.959257      100.976      
-807614.22      3.1582739      35.318823      25.958834      100.54434    
-807607.54      3.356382       36.947814      25.972499      100.11286    
-807611.46      2.7161425      36.037775      25.948691      99.68208     
-807623.8       3.0826619      34.09291       25.94493       99.251704    
-807642.54      3.6655304      33.629517      25.943594      98.821695    
-807650.31      3.4573932      34.797374      25.91316       98.392451    
-807650.61      3.5282133      34.446654      25.895159      97.963789    
-807636.22      4.611572       35.44887       25.903882      97.535332    
-807630.56      4.0858239      33.820962      25.96114       97.106427    
-807614.49      3.4425601      35.633342      25.930641      96.678261    
-807608.22      3.1374767      35.77527       25.91036       96.250688    
-807609.36      3.4195149      35.346788      25.960161      95.822773    
-807631.53      3.5062809      33.461359      25.966978      95.395089    
-807643.86      3.2039664      33.591821      25.976494      94.967602    
-807649.37      3.2111446      34.219338      25.947675      94.540801    
-807644.44      3.6862579      35.096015      25.912297      94.114761    
-807642.6       3.3852532      33.730116      25.921759      93.688898    
-807628.67      3.0928626      33.754336      25.948583      93.262994    
-807613.25      4.1912033      35.995523      25.951993      92.837345    
-807606.6       3.3067711      35.823966      25.973328      92.411728    
-807616.87      4.6490765      35.031658      25.933252      91.986899    
-807634.03      3.6344346      33.634379      25.963197      91.561991    
-807642.26      5.6152603      34.132783      25.94209       91.137625    
-807646.63      3.7080515      34.139202      25.929711      90.713688    
-807647         6.4649229      35.285454      25.923082      90.290106    
-807643.59      3.3346935      32.843583      25.935465      89.866648    
-807625.28      4.6159208      34.159829      25.998564      89.442727    
-807613.67      3.3091797      34.374609      26.014911      89.018896    
-807610.5       3.387239       35.280299      25.963958      88.595928    
-807621.64      3.6555816      34.886527      25.980711      88.173037    
-807630.77      2.5325472      33.140006      25.974551      87.750483    
-807643.11      3.9210882      33.515966      25.953816      87.328424    
-807648.98      2.8595286      33.922571      25.917159      86.907031    
-807649.12      3.6262882      33.883186      25.938192      86.485653    
-807637.61      3.1669697      32.927327      25.962918      86.064253    
-807622.6       3.473902       34.725152      25.975107      85.642973    
-807614.51      3.0522823      34.657892      25.951544      85.222195    
-807611.87      3.0136948      36.739895      25.971559      84.801448    
-807617.72      2.9054837      34.863043      25.954333      84.381128    
-807631.7       3.5892987      33.992545      25.937732      83.961221    
-807644.88      2.9277839      34.171358      25.917266      83.541761    
-807649.95      3.76911        34.030444      25.921128      83.122489    
-807643.13      3.8688997      34.716338      25.937873      82.703272    
-807634.4       4.2354487      34.346263      25.947499      82.284184    
-807623.92      3.28948        34.377616      25.942605      81.865372    
-807614.43      3.0398653      34.560968      25.921198      81.446996    
-807607.26      3.5253318      36.575482      25.92477       81.028802    
-807620.76      3.0669403      34.289514      25.915465      80.610915    
-807638.62      3.9206935      33.301886      25.916258      80.193233    
-807644.05      3.1170576      33.716632      25.897869      79.775938    
-807645.16      3.4169895      34.382251      25.934274      79.3585      
-807641.62      3.8153917      34.680896      25.961487      78.941012    
-807637.07      3.3621823      34.008148      25.953661      78.523808    
-807620.3       3.4901174      34.772082      25.968865      78.106671    
-807608.16      2.9353359      36.597332      25.950928      77.689908    
-807610.02      3.3511195      36.344165      25.962522      77.273241    
-807623.75      3.2923225      34.522517      25.940269      76.856981    
-807634.19      2.8219125      34.144603      25.936538      76.440952    
-807643.67      3.1668055      33.935974      25.956159      76.024942    
-807644.84      2.7597383      34.87232       25.963497      75.609064    
-807644.39      3.3566618      34.593204      25.926812      75.193705    
-807633.05      3.2301462      33.680638      25.91934       74.778599    
-807617.9       3.6267194      35.514559      25.908389      74.363774    
-807609.19      3.6250571      36.047488      25.909153      73.949124    
-807613.06      3.0783254      36.223543      25.924925      73.534519    
-807623.33      3.1849005      34.10678       25.926817      73.120081    
-807634.35      2.840628       33.839193      25.926394      72.705825    
-807645.14      3.4686609      33.954432      25.943212      72.291608    
-807649.55      3.8622491      34.039062      25.944603      71.877557    
-807642.12      2.6245349      33.783862      25.926756      71.46383     
-807630.32      3.3086457      33.435191      25.924775      71.050291    
-807620.3       2.9135622      34.065533      25.921884      70.636947    
-807611.62      3.4521436      36.210816      25.932513      70.223687    
-807614.59      3.0359389      35.123135      25.92477       69.810658    
-807624.69      3.172504       33.715048      25.912585      69.39789     
-807637.91      3.3477304      33.285044      25.928606      68.985161    
-807647.01      4.0570126      33.10728       25.951774      68.572419    
-807645.42      3.060516       33.926378      25.92738       68.160028    
-807640.63      3.0567138      33.145034      25.923986      67.747823    
-807632.9       3.0739026      32.791328      25.922831      67.335786    
-807621.37      3.4970881      33.706728      25.951252      66.923695    
-807611.21      3.468942       35.320273      25.972779      66.511608    
-807614.05      3.9852127      34.851301      25.934819      66.099956    
-807629.63      2.6453937      33.200682      25.95073       65.688345    
-807637.21      3.5659862      33.928006      25.965969      65.276781    
-807645.58      3.4529481      33.486095      25.92769       64.865643    
-807646.49      3.3343672      33.749304      25.916469      64.454734    
-807643.06      3.1229877      33.334012      25.941289      64.043799    
-807629.84      3.8330473      33.644852      25.93301       63.63307     
-807618.39      3.8652002      33.791514      25.939823      63.222441    
-807610.5       2.983984       35.41486       25.919453      62.812095    
-807617.65      3.155189       35.043047      25.888953      62.402096    
-807627.67      3.1363852      33.40641       25.884305      61.992265    
-807638.71      3.585325       33.196554      25.931263      61.58226     
-807646.84      3.3763628      33.200536      25.939536      61.172342    
-807646.48      3.2693912      34.123318      25.947772      60.762512    
-807639.5       3.0502702      33.112895      25.955481      60.352771    
-807628.99      2.8773609      33.222863      25.96272       59.943125    
-807618.08      3.287609       34.893336      25.951859      59.533685    
-807612.02      2.8776947      35.752668      25.979646      59.124211    
-807618.42      3.1095257      34.587579      25.91973       58.715242    
-807627.97      3.0248722      34.427062      25.971385      58.30609     
-807642.12      3.253012       33.386416      25.997807      57.896915    
-807645.27      3.5098028      34.435659      25.948092      57.488173    
-807645.8       3.0156856      33.870215      25.917853      57.07974     
-807637.45      3.4043208      33.935222      25.919298      56.671424    
-807626.34      3.4402265      34.551268      25.871794      56.263509    
-807615.76      2.8392291      35.047631      25.87734       55.85568     
-807612.02      3.030137       35.706914      25.919077      55.447732    
-807619.15      3.1377119      34.202676      25.96022       55.039676    
-807630.91      3.3419925      33.28373       25.932973      54.631896    
-807641.52      3.0725917      33.752839      25.884418      54.224505    
-807644.3       3.2949179      35.011076      25.911882      53.817079    
-807644.37      3.3513583      34.269934      25.900989      53.40983     
-807634.86      3.0482076      34.128365      25.926605      53.002558    
-807624.68      2.5978431      34.192323      25.926296      52.595406    
-807615.18      2.8819397      35.238821      25.942497      52.188284    
-807610.16      3.5094227      35.835277      25.945896      51.781261    
-807618.93      3.2298791      35.179823      25.919537      51.37449     
-807630.94      3.1019525      34.912543      25.939132      50.967732    
-807641         3.6271519      34.853458      25.916497      50.561201    
-807644.79      4.0572577      35.363445      25.914898      50.154788    
-807641.05      2.9598865      34.803365      25.895133      49.748581    
-807636.76      3.6827296      34.32808       25.886332      49.342523    
-807624.05      3.3884583      34.578044      25.911155      48.936451    
-807612.97      2.8346464      34.983331      25.916858      48.530457    
-807612.87      3.4617691      35.479563      25.954823      48.124392    
-807618.78      2.6364112      34.550577      25.918064      47.718606    
-807632.64      2.9437753      33.402781      25.937144      47.312837    
-807640.64      2.6142022      33.924626      25.969449      46.907027    
-807643.47      3.0628783      34.760875      25.946173      46.50143     
-807643.47      3.4551665      33.947391      25.921438      46.096047    
-807633.73      2.6398541      34.382431      25.967895      45.690562    
-807623.91      3.3095267      35.185641      25.953981      45.285243    
-807614.57      2.828298       35.646608      25.964933      44.87998     
-807613.94      3.5846163      35.825683      25.921926      44.475002    
-807621.44      3.5174941      35.669048      25.924169      44.070114    
-807633.14      3.3630062      34.245591      25.928127      43.665307    
-807641.79      3.4457183      34.119533      25.930132      43.26059     
-807645.23      2.9310474      33.84239       25.944086      42.855913    
-807641.43      2.831555       33.624651      25.925455      42.451409    
-807633.38      2.6745989      33.311454      25.935707      42.046959    
-807623.93      2.6817066      33.751684      25.926366      41.64264     
-807614.3       2.843778       34.527665      25.9317        41.238395    
-807615.11      3.0648202      34.865323      25.92026       40.834288    
-807625.33      2.9923195      33.77583       25.968022      40.430092    
-807635.38      3.5854224      34.110739      25.943964      40.026081    
-807641.93      3.4301872      34.395308      25.963657      39.622091    
-807645.35      3.9468933      34.057315      25.916239      39.218365    
-807640.22      3.0052589      34.727794      25.927953      38.814687    
-807631.67      4.1372099      34.54581       25.893092      38.411221    
-807621.41      3.1831158      35.277823      25.931193      38.007708    
-807615.95      3.4135331      35.418203      25.893265      37.604413    
-807615.13      3.7999536      36.150695      25.935674      37.201058    
-807627.69      2.4131603      33.482264      25.966651      36.797686    
-807635.94      3.0300447      33.238388      25.965422      36.394408    
-807641.25      3.2511567      33.812218      25.949253      35.991271    
-807643.94      3.4899794      33.685337      25.944833      35.588235    
-807640.35      3.4317679      33.780581      25.901317      35.185422    
-807631.27      3.938028       33.358005      25.930132      34.7826      
-807621.24      2.8829703      34.751976      25.934265      34.379848    
-807618.14      2.9416176      34.383063      25.942594      33.977154    
-807616.73      3.2446267      35.7494        25.936447      33.574561    
-807627.34      3.5135729      33.881932      25.925054      33.172083    
-807634.99      3.388247       34.591976      25.935785      32.769654    
-807641.92      2.8863928      34.236185      25.949769      32.367265    
-807642         2.8965081      34.634881      25.932045      31.965008    
-807639.1       3.8203133      34.019524      25.97937       31.562698    
-807630.3       3.0997309      33.911728      25.947676      31.160557    
-807620.31      3.2882385      35.139191      25.933952      30.758533    
-807616.51      2.9851997      35.754658      25.95682       30.356525    
-807617.04      3.3078226      36.064931      25.950554      29.954612    
-807626.66      3.1125037      34.927325      25.955672      29.552764    
-807636.1       3.6513478      34.461577      25.967271      29.150964    
-807641.44      3.8729477      35.076466      25.939116      28.749313    
-807642.4       2.6480967      34.23241       25.95586       28.347695    
-807636.1       3.2989479      34.077304      25.948725      27.946171    
-807628.18      2.8971827      34.589355      25.943064      27.544736    
-807618.94      2.6540624      35.276319      25.928697      27.143407    
-807614.28      2.6885943      35.492668      25.953786      26.742094    
-807617.31      3.665719       35.512714      25.962158      26.340835    
-807628.57      2.8042076      34.221015      25.94266       25.939694    
-807637.26      3.6481682      34.371941      25.932933      25.538645    
-807640.22      2.5765145      34.580416      25.96874       25.137591    
-807640.38      4.3174723      34.890003      25.959173      24.73663     
-807637.14      2.6441115      34.684846      25.930477      24.3358      
-807626.86      3.1616388      34.857996      25.973729      23.934951    
-807616.56      3.0559634      35.796274      25.970026      23.534181    
-807613.75      2.8101485      36.016665      25.996073      23.133432    
-807620.34      3.0525072      35.514364      25.965656      22.732813    
-807627.69      3.1827732      34.678044      25.949529      22.332295    
-807635.76      3.557262       34.718278      25.965354      21.931815    
-807639.01      2.9361284      34.750345      25.988136      21.531363    
-807641.31      4.4151961      34.708971      25.992467      21.130974    
-807636.62      3.2292208      34.707119      25.931318      20.73076     
-807625         3.7610482      35.361769      25.970629      20.330545    
-807619.15      3.4884009      35.370688      25.97095       19.930397    
-807616.7       3.5407651      35.521593      25.981063      19.530299    
-807623.27      2.9996774      33.631533      25.956623      19.130307    
-807629.1       2.8118931      33.330556      25.99359       18.730323    
-807637.95      2.8683633      33.391997      26.00111       18.330395    
-807641.92      2.8006312      33.408829      25.949496      17.930611    
-807641.58      3.0860119      32.93951       25.896733      17.530965    
-807634.08      3.217059       33.596928      25.933088      17.131327    
-807627.04      2.8510065      34.019122      25.961513      16.731712    
-807621.43      2.842164       34.389655      25.987282      16.332126    
-807617.05      3.2224831      35.423939      25.963824      15.932634    
-807623.22      3.3438809      34.293403      25.983038      15.533181    
-807632.47      3.40933        34.805419      25.972019      15.133803    
-807639.93      2.867793       33.587552      25.947431      14.734518    
-807641.06      2.8787263      33.746775      25.925843      14.335316    
-807639.2       3.6956375      33.432935      25.954609      13.936141    
-807635.56      3.153475       33.2308        25.95963       13.53702     
-807626.47      3.55987        33.043492      25.966211      13.137951    
-807619.35      3.1340725      34.183243      25.967506      12.738941    
-807617.68      3.1956027      34.415662      25.95746       12.34        
-807625.12      2.7253675      33.737341      25.966828      11.941108    
-807632.36      4.6147442      34.307598      25.971798      11.542271    
-807638.75      2.9106561      33.981819      25.950728      11.14351     
-807640.31      3.4819289      33.96933       25.927847      10.744826    
-807639.53      3.0657562      33.373455      25.929838      10.346195    
-807633.53      3.07516        33.877993      25.964827      9.9475906    
-807624.83      2.6212         33.980333      25.921032      9.5490761    
-807620.62      2.7810113      34.627337      25.951067      9.1505934    
-807621.01      2.909173       34.788712      25.934784      8.7521768    
-807625.86      2.8534231      34.488903      25.947342      8.3538056    
-807631.94      3.1973206      34.342247      25.941174      7.9554924    
-807638.65      2.914387       33.792373      25.915027      7.5572477    
-807640.43      3.0373627      34.102697      25.958049      7.1590306    
-807638.53      4.2430192      33.659582      25.941785      6.7608757    
-807628.69      3.4426504      34.522654      25.952892      6.3627677    
-807625.67      4.4584823      34.384162      25.983335      5.9646985    
-807621.37      2.7056076      34.728153      25.956632      5.566695     
-807620.02      3.4205342      34.940455      25.974931      5.1687367    
-807623.51      2.9053259      34.64695       25.94596       4.7708421    
-807635.34      3.2821722      33.639364      25.959611      4.372994     
-807639.17      2.9643084      33.295312      25.941193      3.975203     
-807638.22      3.750543       33.903428      25.920178      3.5774678    
-807634.89      3.3366791      33.412403      25.917729      3.1797818    
-807629.71      2.7622635      34.264442      25.924707      2.7821424    
-807622.97      3.3373514      34.369509      25.92597       2.384551     
-807617.76      3.6732107      35.736204      25.954425      1.9870032    
-807619.55      2.7599905      34.78944       25.951528      1.5895053    
-807628.87      3.3869601      34.854009      25.934878      1.1920578    
-807633.35      2.7950777      35.352739      25.944888      0.79465729   
-807639.05      3.0905367      34.57426       25.901975      0.39730609   
-807636.43      4.0846075      34.982158      25.932783      0            
Loop time of 198.643 on 32 procs for 5000 steps with 1080 atoms

Performance: 4.350 ns/day, 5.518 hours/ns, 25.171 timesteps/s, 27.184 katom-step/s
67.3% CPU use with 32 MPI tasks x 1 OpenMP threads

MPI task timing breakdown:
Section |  min time  |  avg time  |  max time  |%varavg| %total
---------------------------------------------------------------
Pair    | 102.29     | 145.18     | 192.15     | 309.4 | 73.09
Neigh   | 0          | 0          | 0          |   0.0 |  0.00
Comm    | 3.9219     | 50.902     | 93.803     | 522.4 | 25.63
Output  | 0.034525   | 0.035555   | 0.037779   |   0.4 |  0.02
Modify  | 2.1291     | 2.1891     | 2.2337     |   1.9 |  1.10
Other   |            | 0.3325     |            |       |  0.17

Nlocal:          33.75 ave          48 max          21 min
Histogram: 8 8 0 0 0 0 0 8 0 8
Nghost:        1106.25 ave        1119 max        1092 min
Histogram: 8 0 8 0 0 0 0 0 8 8
Neighs:              0 ave           0 max           0 min
Histogram: 32 0 0 0 0 0 0 0 0 0
FullNghs:       5494.5 ave        7896 max        3378 min
Histogram: 8 8 0 0 0 0 0 8 0 8

Total # of neighbors = 175824
Ave neighs/atom = 162.8
Neighbor list builds = 0
Dangerous builds = 0

reset_timestep 0


variable interval equal 1000
thermo 10

variable nintervals equal $(v_PERIOD/v_interval)
variable nintervals equal 100
variable efield equal 1e-2*36.36*cos((step/${PERIOD})*2*3.14)
variable efield equal 1e-2*36.36*cos((step/100000)*2*3.14)
fix born all addbornforce 0.0 0.0 v_efield

variable Px equal f_born[1]+c_polarization[1]
variable Py equal f_born[2]+c_polarization[2]
variable Pz equal (f_born[3]+c_polarization[3])/vol
variable pe equal pe

fix aveP all ave/time 1 $(v_interval/2) ${interval} v_efield v_Pz v_pe f_born file Pz.${MODEL}.${STRUCTURE}.${TEMP}.$L.${ITER}
fix aveP all ave/time 1 500 ${interval} v_efield v_Pz v_pe f_born file Pz.${MODEL}.${STRUCTURE}.${TEMP}.$L.${ITER}
fix aveP all ave/time 1 500 1000 v_efield v_Pz v_pe f_born file Pz.${MODEL}.${STRUCTURE}.${TEMP}.$L.${ITER}
fix aveP all ave/time 1 500 1000 v_efield v_Pz v_pe f_born file Pz.BaTiO3-E0.${STRUCTURE}.${TEMP}.$L.${ITER}
fix aveP all ave/time 1 500 1000 v_efield v_Pz v_pe f_born file Pz.BaTiO3-E0.BaTiO3-sc333.${TEMP}.$L.${ITER}
fix aveP all ave/time 1 500 1000 v_efield v_Pz v_pe f_born file Pz.BaTiO3-E0.BaTiO3-sc333.310.$L.${ITER}
fix aveP all ave/time 1 500 1000 v_efield v_Pz v_pe f_born file Pz.BaTiO3-E0.BaTiO3-sc333.310.2.${ITER}
fix aveP all ave/time 1 500 1000 v_efield v_Pz v_pe f_born file Pz.BaTiO3-E0.BaTiO3-sc333.310.2.2

thermo_style custom step time temp press pe f_born v_efield v_Pz spcpu cpuremain

# dump 4a all custom 1000 dump.hyst.${MODEL}.${STRUCTURE}.${TEMP}.$L.${ITER}.bin id type xu yu zu fx fy fz
# dump_modify 4a sort id

fix nvt all nvt temp ${TEMP} ${TEMP} $(100*dt)
fix nvt all nvt temp 310 ${TEMP} $(100*dt)
fix nvt all nvt temp 310 310 $(100*dt)
fix nvt all nvt temp 310 310 0.2000000000000000111

run $(v_PERIOD)
run 100000
WARNING: non-constant efield is experimental, strongly distrust scalar/vector output (src/fix_addbornforce.cpp:193)
Per MPI rank memory allocation (min/avg/max) = 3.516 | 3.516 | 3.516 Mbytes
   Step          Time           Temp          Press          PotEng         f_born        v_efield         v_Pz          S/CPU         CPULeft    
         0   0              308.19275      127658.32     -807636.43     -294.1636       0.3636         0.055323874    0              0            
        10   0.02           312.7973       129899.69     -807634.93     -296.38514      0.36359993     0.055741692    28.65387       3489.5998    
        20   0.04           324.66487      135858.45     -807628.39     -304.64603      0.36359971     0.057295368    28.686679      3487.2461    
        30   0.06           323.56778      141474.83     -807620.46     -312.52903      0.36359935     0.058777995    28.691278      3486.0429    
        40   0.08           314.54692      143719.43     -807617.38     -314.37472      0.36359885     0.059125201    28.721637      3484.3464    
        50   0.1            321.83454      140550.7      -807622.87     -310.06848      0.36359821     0.058315419    28.730743      3482.9696    
        60   0.12           327.97474      135535.58     -807629.26     -304.64952      0.36359742     0.057296384    28.673219      3483.0973    
        70   0.14           314.97364      130369.48     -807632.78     -299.52604      0.36359649     0.056332941    28.642171      3483.6291    
        80   0.16           301.21627      127003.6      -807637.6      -292.99635      0.36359541     0.055105042    28.699714      3483.067     
        90   0.18           310.6564       127092.71     -807639.74     -292.31163      0.36359419     0.054976448    28.71548       3482.339     
       100   0.2            313.13082      129450.43     -807634.81     -297.92248      0.36359283     0.056031917    28.73008       3481.5105    
       110   0.22           322.34472      136559.06     -807626.54     -307.75264      0.36359132     0.057880969    28.664081      3481.4972    
       120   0.24           314.7754       140072.09     -807621.55     -311.98913      0.36358968     0.058678019    28.677567      3481.2915    
       130   0.26           316.03309      142682.09     -807621.2      -312.72215      0.36358788     0.058816172    28.730461      3480.5705    
       140   0.28           312.81199      140211.21     -807623.28     -310.50122      0.36358595     0.058398776    28.729457      3479.9115    
       150   0.3            309.3797       135877.6      -807627.03     -306.52732      0.36358387     0.057651697    28.720577      3479.3656    
       160   0.32           311.3072       129039.22     -807636.33     -297.63412      0.36358165     0.055979406    28.700134      3478.9991    
       170   0.34           299.48441      126722.14     -807640.74     -291.69291      0.36357928     0.054862331    28.714846      3478.53      
       180   0.36           301.30211      125826.3      -807639.24     -293.64079      0.36357677     0.055229075    28.725187      3478.0047    
       190   0.38           315.65608      131211.67     -807634.46     -300.53486      0.36357412     0.056526151    28.68353       3477.7635    
       200   0.4            311.6453       135138.52     -807628.36     -306.26405      0.36357132     0.057604169    28.656067      3477.6789    
       210   0.42           306.95397      141466.3      -807622.07     -311.87292      0.36356838     0.058659598    28.68515       3477.4004    
       220   0.44           305.13369      140519.78     -807620.94     -312.91902      0.3635653      0.058856855    28.734946      3476.8417    
       230   0.46           304.84186      140672.63     -807621.97     -311.7476       0.36356207     0.058637043    28.646435      3476.7677    
       240   0.48           307.50726      133050.75     -807631.25     -302.95462      0.3635587      0.056983687    28.589407      3476.9603    
       250   0.5            312.26533      129942.19     -807637.46     -297.21799      0.36355519     0.055905208    28.641707      3476.8546    
       260   0.52           306.48979      124803.26     -807641.21     -292.78185      0.36355153     0.055071346    28.671847      3476.5894    
       270   0.54           295.6799       129249.74     -807636.39     -296.03649      0.36354773     0.055684115    28.678394      3476.2887    
       280   0.56           304.95608      130107.01     -807634.57     -299.24657      0.36354379     0.056288538    28.635555      3476.1703    
       290   0.58           322.27077      136493.66     -807629.21     -306.88564      0.3635397      0.057726103    28.643495      3476.0026    
       300   0.6            296.21744      140105.04     -807620.53     -312.02298      0.36353547     0.058693135    28.68126       3475.6702    
       310   0.62           307.42881      142669.59     -807619.72     -314.28468      0.3635311      0.059119283    28.745805      3475.0848    
       320   0.64           308.49989      138170.79     -807625.49     -308.66093      0.36352658     0.058062135    28.73302       3474.5627    
       330   0.66           315.01498      133920.19     -807632.47     -302.44954      0.36352192     0.056894441    28.730478      3474.0602    
       340   0.68           306.01893      128132.42     -807636.36     -297.26408      0.36351712     0.055919733    28.708806      3473.6439    
       350   0.7            301.21347      126412.74     -807638.47     -294.34426      0.36351217     0.055371224    28.697258      3473.2714    
       360   0.72           296.5508       127169.4      -807637.78     -294.32497      0.36350708     0.055368371    28.690036      3472.9245    
       370   0.74           309.60716      131247.86     -807633.8      -300.05237      0.36350185     0.056446622    28.643162      3472.7311    
       380   0.76           322.8547       136970.18     -807626.47     -309.15651      0.36349647     0.058160176    28.654541      3472.4932    
       390   0.78           303.54076      142067.08     -807620.11     -312.72577      0.36349095     0.058832537    28.668948      3472.2048    
       400   0.8            316.30675      140685.67     -807623.12     -311.34508      0.36348529     0.058573703    28.667811      3471.9169    
       410   0.82           308.92563      137462.08     -807625.39     -307.97697      0.36347948     0.057940984    28.646182      3471.6897    
       420   0.84           313.95487      132961.51     -807630.21     -303.8122       0.36347353     0.057158384    28.572093      3471.6717    
       430   0.86           294.91017      129438.59     -807634.25     -296.92788      0.36346744     0.055864123    28.637858      3471.4519    
       440   0.88           310.76314      125839.43     -807640.95     -292.28085      0.3634612      0.054990772    28.645713      3471.2047    
       450   0.9            306.17389      128393.03     -807636.49     -296.01707      0.36345482     0.055694697    28.61811       3471.0275    
       460   0.92           306.59242      133342.58     -807629.85     -302.67357      0.3634483      0.056948118    28.620547      3470.8362    
       470   0.94           316.70696      137941.74     -807625.03     -308.72995      0.36344163     0.058088695    28.687667      3470.4651    
       480   0.96           312.62086      140515.03     -807621.98     -311.07283      0.36343482     0.058530613    28.668511      3470.1432    
       490   0.98           306.15335      141359.88     -807620.5      -311.46507      0.36342786     0.058605537    28.672059      3469.8115    
       500   1              319.16759      138022.91     -807624.87     -308.74179      0.36342077     0.058094256    28.70144       3469.408     
       510   1.02           322.61713      131871.72     -807632.38     -9650.4984      0.36341353     0.056747429    28.648762      3469.1317    
       520   1.04           322.44957      127761.8      -807638.66     -9440.5978      0.36340614     0.055514287    28.623677      3468.9111    
       530   1.06           313.2108       126335.53     -807639.62     -9363.687       0.36339862     0.055063163    28.573455      3468.8009    
       540   1.08           299.98518      130783.19     -807632.9      -9515.0011      0.36339095     0.055954147    28.54008       3468.7572    
       550   1.1            320.59429      132961.66     -807630.49     -9681.3139      0.36338313     0.056933394    28.610127      3468.5473    
       560   1.12           321.8769       138604.91     -807624.92     -9856.2419      0.36337518     0.057963372    28.58822       3468.3799    
       570   1.14           309.71756      141037.74     -807619.77     -9959.5783      0.36336707     0.058572386    28.577875      3468.2282    
       580   1.16           312.59208      142134.41     -807618.54     -10001.864      0.36335883     0.058822401    28.560005      3468.1072    
       590   1.18           325.34181      136714.11     -807625.88     -9817.8931      0.36335044     0.057741777    28.568627      3467.9606    
       600   1.2            335.09926      132514.86     -807632.85     -9627.5761      0.36334191     0.056623799    28.526462      3467.8929    
       610   1.22           316.17751      127867.92     -807636.39     -9422.9786      0.36333324     0.055421798    28.54853       3467.7719    
       620   1.24           313.89988      128730.02     -807635.03     -9448.0757      0.36332442     0.055570756    28.554355      3467.6319    
       630   1.26           312.4256       129355.21     -807633.5      -9486.9133      0.36331546     0.055800564    28.588175      3467.42      
       640   1.28           337.83742      134450.66     -807630.73     -9682.6372      0.36330636     0.056953209    28.618636      3467.1459    
       650   1.3            328.01328      138344.59     -807622.83     -9889.1609      0.36329711     0.05816946     28.651703      3466.8079    
       660   1.32           315.45424      143170.89     -807616.91     -10017.426      0.36328772     0.058925455    28.600789      3466.5631    
       670   1.34           313.79465      140209.7      -807620.31     -9901.7772      0.36327819     0.058246705    28.596699      3466.3225    
       680   1.36           328.83671      137288.73     -807625.75     -9790.7836      0.36326851     0.057595325    28.557783      3466.1484    
       690   1.38           328.70371      131847.56     -807631.27     -9616.0328      0.36325869     0.056568864    28.510307      3466.0531    
       700   1.4            324.79227      128995        -807634.57     -9491.5198      0.36324873     0.055837915    28.541127      3465.8967    
       710   1.42           312.75703      128265.26     -807636.14     -9388.6257      0.36323863     0.055234133    28.549259      3465.7209    
       720   1.44           330.09279      130313.33     -807635.67     -9488.0602      0.36322838     0.05582069     28.606023      3465.4444    
       730   1.46           333.55224      134167.09     -807628.66     -9739.1656      0.36321798     0.057299647    28.5713        3465.2237    
       740   1.48           319.3595       139591.4      -807621.13     -9926.7178      0.36320745     0.05840479     28.564318      3465.011     
       750   1.5            321.40894      140354.05     -807621.98     -9918.8568      0.36319677     0.058360256    28.544541      3464.8267    
       760   1.52           320.12189      138899.96     -807623.8      -9868.2459      0.36318595     0.058064203    28.556274      3464.6193    
       770   1.54           315.66056      136919.62     -807625.63     -9804.024       0.36317498     0.057688067    28.599161      3464.3405    
       780   1.56           331.00531      130297.64     -807634.62     -9598.3896      0.36316387     0.056479817    28.543442      3464.1467    
       790   1.58           319.30135      128636.33     -807637.81     -9450.9865      0.36315262     0.055614175    28.554355      3463.9321    
       800   1.6            304.60223      127472.8      -807637.46     -9408.2468      0.36314122     0.055364411    28.565036      3463.6978    
       810   1.62           306.01046      132514.76     -807631.6      -9610.1834      0.36312968     0.056554538    28.570468      3463.4526    
       820   1.64           314.51897      134636.17     -807628.41     -9759.8599      0.363118       0.057437211    28.626927      3463.1213    
       830   1.66           299.5858       140161.92     -807622.02     -9900.2435      0.36310618     0.058265272    28.650023      3462.7559    
       840   1.68           302.9924       139655.92     -807622.66     -9899.5012      0.36309421     0.058262824    28.614576      3462.442     
       850   1.7            313.20913      139811.57     -807623.07     -9933.4822      0.3630821      0.058464767    28.577949      3462.1795    
       860   1.72           312.26204      134177.1      -807629.08     -9742.628       0.36306984     0.057343406    28.602349      3461.8805    
       870   1.74           321.13859      130287.61     -807635.99     -9561.1752      0.36305745     0.056277328    28.619941      3461.5559    
       880   1.76           300.99245      127647.01     -807637.74     -9420.0928      0.3630449      0.055448829    28.572686      3461.2958    
       890   1.78           311.02864      128976.98     -807637.24     -9483.2069      0.36303222     0.055822283    28.551849      3461.0622    
       900   1.8            302.03619      130570.86     -807632.99     -9583.3656      0.36301939     0.056413854    28.571392      3460.7995    
       910   1.82           320.20151      135141.78     -807630.12     -9757.5921      0.36300642     0.057441516    28.598362      3460.499     
       920   1.84           310.05732      137711.86     -807625.54     -9863.3941      0.36299331     0.058066454    28.617459      3460.1723    
       930   1.86           305.54745      141083.96     -807621.58     -9970.3573      0.36298005     0.058698297    28.60555       3459.8606    
       940   1.88           307.69434      137559.91     -807624.52     -9887.4464      0.36296665     0.058212326    28.603378      3459.5509    
       950   1.9            305.90887      134046.85     -807629.72     -9713.03        0.36295311     0.057187584    28.592446      3459.2543    
       960   1.92           303.76145      130029.62     -807636.06     -9503.1676      0.36293942     0.055954084    28.573211      3458.9808    
       970   1.94           308.20894      127856.49     -807637.52     -9474.7767      0.36292559     0.055789045    28.580649      3458.6965    
       980   1.96           299.8882       128502.14     -807635.74     -9494.4282      0.36291162     0.055906909    28.62872       3458.3515    
       990   1.98           313.65256      131867.19     -807635.47     -9564.0701      0.3628975      0.056319178    28.629905      3458.005     
      1000   2              311.41544      136121.72     -807629.76     -9738.1333      0.36288325     0.057346423    28.607167      3457.6859    
      1010   2.02           311.34829      138918.96     -807624.44     -309.62875      0.36286884     0.058349765    28.755475      3457.1895    
      1020   2.04           308.58482      139835.99     -807623.14     -310.49811      0.3628543      0.058515943    28.709245      3456.7504    
      1030   2.06           296.7054       136094        -807625.73     -306.25054      0.36283961     0.057717788    28.657697      3456.3732    
      1040   2.08           313.76935      134039.86     -807631.68     -302.55777      0.36282478     0.05702416     28.670476      3455.9817    
      1050   2.1            308.96792      129204.37     -807634.87     -298.72344      0.3628098      0.056303813    28.652805      3455.6114    
      1060   2.12           297.41311      130044.07     -807635.12     -296.65273      0.36279469     0.055915852    28.692141      3455.1967    
      1070   2.14           296.33808      128427.76     -807636.78     -294.81901      0.36277943     0.055572553    28.680859      3454.796     
      1080   2.16           324.56373      132821.92     -807634.51     -300.89499      0.36276402     0.056720266    28.676764      3454.4009    
      1090   2.18           306.06828      135206.02     -807627.02     -305.86663      0.36274848     0.057659918    28.692659      3453.989     
      1100   2.2            317.21916      139062.96     -807624.53     -309.65591      0.36273279     0.058376773    28.701159      3453.5691    
      1110   2.22           301.68028      137398.9      -807624.54     -307.45216      0.36271695     0.057963849    28.645433      3453.2107    
      1120   2.24           302.79792      138095.16     -807624.87     -307.08049      0.36270098     0.057896327    28.615778      3452.8845    
      1130   2.26           316.30338      132977.78     -807630.65     -303.04032      0.36268486     0.057137141    28.637767      3452.5344    
      1140   2.28           309.91495      130822.93     -807633.53     -298.97812      0.3626686      0.056373756    28.668507      3452.1519    
      1150   2.3            305.59081      128205.82     -807637.34     -294.39766      0.36265219     0.055512599    28.63346       3451.8066    
      1160   2.32           307.87965      130420.47     -807634.38     -297.42423      0.36263564     0.056085859    28.666618      3451.4268    
      1170   2.34           320.21135      132231.29     -807631.44     -301.92822      0.36261895     0.056937806    28.712584      3451.0004    
      1180   2.36           319.27399      136519.15     -807626.91     -306.07893      0.36260212     0.057723229    28.736926      3450.5507    
      1190   2.38           305.21706      138591.18     -807623.56     -307.26528      0.36258514     0.057949675    28.679343      3450.1611    
      1200   2.4            308.42708      139447.26     -807622.25     -308.80895      0.36256802     0.058243559    28.653246      3449.7974    
      1210   2.42           314.07319      136451.33     -807625.08     -306.5705       0.36255076     0.057824124    28.693337      3449.3946    
      1220   2.44           317.20547      133038.64     -807630.93     -300.87334      0.36253335     0.056752272    28.681675      3449.0042    
      1230   2.46           320.14952      129901.92     -807635.44     -296.52502      0.3625158      0.055934777    28.683008      3448.6131    
      1240   2.48           315.53991      129270.09     -807635.7      -295.46175      0.36249811     0.055736929    28.658264      3448.2467    
      1250   2.5            327.07138      130312.76     -807634.91     -297.73114      0.36248028     0.056167798    28.6851        3447.8548    
      1260   2.52           324.09687      133204.62     -807631.07     -301.09494      0.3624623      0.056805204    28.685496      3447.4632    
      1270   2.54           316.49466      137248.74     -807625.73     -305.26007      0.36244418     0.057593887    28.655701      3447.1005    
      1280   2.56           324.49545      139038.14     -807623.65     -308.39889      0.36242592     0.058189025    28.688571      3446.7072    
      1290   2.58           320.65837      139221.74     -807622.1      -309.33775      0.36240751     0.058369135    28.676522      3446.3257    
      1300   2.6            319.98081      136096.53     -807626.65     -304.66177      0.36238896     0.057489763    28.642006      3445.9766    
      1310   2.62           315.82966      133274.96     -807630.61     -300.08481      0.36237027     0.05662901     28.620291      3445.6475    
      1320   2.64           309.80584      129944.37     -807633.35     -296.59007      0.36235143     0.055972428    28.632836      3445.3067    
      1330   2.66           316.78537      129863.82     -807634.02     -296.91688      0.36233245     0.056037039    28.658936      3444.9421    
      1340   2.68           312.7813       130000.35     -807633.35     -297.15136      0.36231333     0.056084252    28.709872      3444.5322    
      1350   2.7            315.69067      134874.05     -807630.23     -300.75639      0.36229407     0.056767682    28.741546      3444.0951    
      1360   2.72           330.48769      136381.74     -807627.1      -306.16167      0.36227466     0.057791023    28.756722      3443.6461    
      1370   2.74           324.78259      139356.81     -807622.25     -310.36345      0.36225511     0.058587312    28.727228      3443.2242    
      1380   2.76           323.69784      138161.28     -807626.04     -306.74937      0.36223542     0.05790823     28.707507      3442.8205    
      1390   2.78           312.19905      136988.81     -807627.94     -303.60574      0.36221558     0.057317912    28.684439      3442.4374    
      1400   2.8            315.27415      131861.91     -807632.28     -300.12796      0.3621956      0.056664466    28.638305      3442.0944    
      1410   2.82           304.53689      129552.49     -807633.29     -297.9362       0.36217548     0.056253784    28.646522      3441.7443    
      1420   2.84           310.93703      128230.22     -807638.11     -294.39662      0.36215522     0.055588582    28.658632      3441.384     
      1430   2.86           296.58232      130732.79     -807634.22     -296.59351      0.36213481     0.056006558    28.637211      3441.0418    
      1440   2.88           308.17844      134352.34     -807629.28     -303.50095      0.36211426     0.057314162    28.668111      3440.6738    
      1450   2.9            308.91916      136581.73     -807625.53     -307.66453      0.36209357     0.058103746    28.69753       3440.2817    
      1460   2.92           315.20784      138651.52     -807626.34     -307.82343      0.36207273     0.058137101    28.707898      3439.8818    
      1470   2.94           299.84802      136453.59     -807626.69     -305.5443       0.36205176     0.057709996    28.682686      3439.503     
      1480   2.96           310.29032      135178.9      -807628.86     -304.85694      0.36203064     0.05758353     28.699612      3439.111     
      1490   2.98           304.26702      130650.62     -807633.22     -299.71888      0.36200937     0.056616343    28.699422      3438.7197    
      1500   3              306.02896      130260.21     -807637.48     -295.60643      0.36198796     0.055842809    28.728202      3438.3061    
      1510   3.02           294.35857      128631.69     -807637.25     -9417.9929      0.36196642     0.055601642    28.618615      3437.9803    
      1520   3.04           309.47819      131478.19     -807632.86     -9623.1482      0.36194472     0.056816237    28.658362      3437.6227    
      1530   3.06           309.61376      132818.27     -807631.16     -9680.5141      0.36192289     0.05715838     28.666969      3437.2586    
      1540   3.08           296.35207      138577.22     -807625.69     -9793.3245      0.36190091     0.057827978    28.673123      3436.8898    
      1550   3.1            317.93153      135825.72     -807628.68     -9795.3053      0.36187879     0.05784321     28.61536       3436.566     
      1560   3.12           293.58728      138328.64     -807622.77     -9869.5712      0.36185653     0.058285351    28.593708      3436.2586    
      1570   3.14           307.27628      132400.16     -807631.43     -9653.5409      0.36183412     0.057013101    28.609162      3435.9388    
      1580   3.16           310.1485       132123.01     -807635.28     -9535.753       0.36181157     0.056320964    28.587879      3435.6349    
      1590   3.18           298.01694      127813.12     -807636.41     -9444.6601      0.36178888     0.055786441    28.609162      3435.3142    
      1600   3.2            304.15434      130788.14     -807633.9      -9547.1903      0.36176605     0.056395612    28.606521      3434.9952    
      1610   3.22           295.46807      131815.04     -807632.18     -9561.4091      0.36174307     0.05648319     28.650385      3434.6431    
      1620   3.24           313.75484      135110.68     -807631.56     -9657.5411      0.36171995     0.057054728    28.644149      3434.2956    
      1630   3.26           303.41034      136795.05     -807625.73     -9791.8741      0.36169669     0.05785206     28.595301      3433.9842    
      1640   3.28           308.24019      138687.11     -807623.69     -9873.788       0.36167329     0.058339796    28.606464      3433.664     
      1650   3.3            309.43251      135770.91     -807627.38     -9755.9063      0.36164974     0.057647039    28.601441      3433.3472    
      1660   3.32           304.97452      133606.59     -807630.54     -9625.9447      0.36162605     0.05688283     28.614891      3433.0203    
      1670   3.34           308.86589      130381.25     -807633.92     -9530.0015      0.36160222     0.056319582    28.655024      3432.6642    
      1680   3.36           308.83629      129593.25     -807634.43     -9507.3863      0.36157824     0.056189658    28.639623      3432.3192    
      1690   3.38           299.49778      130131.98     -807634.01     -9473.4382      0.36155413     0.055992756    28.619987      3431.9881    
      1700   3.4            305.80574      131738.71     -807633.11     -9522.767       0.36152987     0.056288091    28.643101      3431.6405    
      1710   3.42           310.0551       135959.67     -807627.6      -9712.2581      0.36150546     0.057412028    28.629739      3431.3022    
      1720   3.44           311.46047      137885.43     -807624.15     -9826.8655      0.36148092     0.058093451    28.598025      3430.986     
      1730   3.46           317.30298      139039.32     -807624.85     -9820.2341      0.36145623     0.058058213    28.620605      3430.6536    
      1740   3.48           315.64987      135600.9      -807628.05     -9705.543       0.3614314      0.05738409     28.652765      3430.299     
      1750   3.5            310.51459      136388.3      -807628.44     -9663.8554      0.36140643     0.05714156     28.669529      3429.9329    
      1760   3.52           326.08954      129429.69     -807634.81     -9526.4918      0.36138131     0.056333255    28.638666      3429.588     
      1770   3.54           308.21468      130846.1      -807633.91     -9467.6409      0.36135605     0.055989164    28.631359      3429.2481    
      1780   3.56           309.62737      128317.24     -807636.13     -9403.5838      0.36133065     0.055614256    28.605127      3428.9256    
      1790   3.58           307.26639      135036.26     -807628.98     -9614.5158      0.36130511     0.056865761    28.622253      3428.5915    
      1800   3.6            316.03463      133941.14     -807627.89     -9691.0052      0.36127942     0.057322238    28.658064      3428.2333    
      1810   3.62           307.02319      140063.66     -807622.68     -9810.3525      0.3612536      0.058032325    28.631164      3427.893     
      1820   3.64           316.5955       135888.96     -807626.82     -9722.1923      0.36122763     0.057514955    28.593285      3427.5776    
      1830   3.66           316.32319      138870.87     -807624.42     -9791.841       0.36120151     0.057931174    28.657157      3427.2199    
      1840   3.68           316.14465      131278.13     -807630.58     -9596.4888      0.36117526     0.056779545    28.64062       3426.8732    
      1850   3.7            316.24598      132630.36     -807632.38     -9532.3585      0.36114886     0.056404228    28.61114       3426.5454    
      1860   3.72           316.17999      128313.78     -807636.92     -9392.2254      0.36112232     0.055579126    28.605493      3426.2211    
      1870   3.74           317.56178      131516.48     -807632.21     -9546.1895      0.36109564     0.056494393    28.626305      3425.8832    
      1880   3.76           314.58383      131677.26     -807631.78     -9554.2942      0.36106881     0.056546558    28.650678      3425.5297    
      1890   3.78           320.02148      135746        -807628.19     -9694.2116      0.36104184     0.057378937    28.621418      3425.1947    
      1900   3.8            321.75214      136210.08     -807627.03     -9744.0159      0.36101474     0.057678053    28.574038      3424.8895    
      1910   3.82           302.9245       138931.88     -807622.56     -9809.321       0.36098748     0.058068999    28.513198      3424.6221    
      1920   3.84           311.34262      136143.67     -807627.04     -9713.7384      0.36096009     0.057507536    28.594935      3424.3027    
      1930   3.86           324.07076      133176.54     -807632.98     -9590.0739      0.36093255     0.056779745    28.610889      3423.9731    
      1940   3.88           303.45165      130923.41     -807633.24     -9503.1879      0.36090487     0.056269636    28.619513      3423.6379    
      1950   3.9            302.49918      129368.56     -807634.64     -9467.6496      0.36087705     0.056063532    28.615955      3423.3048    
      1960   3.92           302.47448      131433        -807633.67     -9511.7662      0.36084909     0.056329137    28.674455      3422.9358    
      1970   3.94           307.49844      132261.06     -807633.43     -9555.9157      0.36082098     0.056595       28.666223      3422.572     
      1980   3.96           303.45507      137255.57     -807627.43     -9737.3688      0.36079273     0.057674173    28.662493      3422.2107    
      1990   3.98           300.34175      136100.74     -807626.94     -9749.1753      0.36076434     0.057748647    28.639377      3421.8633    
      2000   4              308.47039      138002.6      -807628.12     -9749.8098      0.36073581     0.057756974    24.121943      3424.7201    
      2010   4.02           295.98445      133005.9      -807630.37     -300.87748      0.36070713     0.057040389    28.723211      3424.3067    
      2020   4.04           302.98317      134056.56     -807631.29     -300.92962      0.36067831     0.057054831    28.754458      3423.8756    
      2030   4.06           291.58847      128837.59     -807635.28     -295.48955      0.36064935     0.056027918    28.743081      3423.452     
      2040   4.08           288.77076      131739.21     -807633.58     -296.71656      0.36062025     0.056265112    28.716609      3423.0446    
      2050   4.1            312.46875      129004.34     -807637.52     -296.11718      0.36059101     0.056156008    28.713287      3422.6396    
      2060   4.12           301.23646      135592.87     -807629.25     -302.71184      0.36056162     0.057411306    28.739758      3422.2199    
      2070   4.14           310.96527      133641.17     -807630.39     -303.00173      0.36053209     0.057470992    28.754366      3421.7926    
      2080   4.16           301.14905      138513.74     -807626.6      -305.25254      0.36050242     0.057902674    28.712331      3421.39      
      2090   4.18           294.83386      135044.92     -807628.11     -302.8738       0.36047261     0.057456206    28.684772      3421.0036    
      2100   4.2            306.95494      135979.78     -807628.85     -303.60279      0.36044265     0.057599286    28.692187      3420.6134    
      2110   4.22           294.99889      129940.35     -807633.3      -297.42306      0.36041256     0.056431585    28.713983      3420.2113    
      2120   4.24           300.86508      131107.65     -807635.74     -295.49905      0.36038232     0.056071237    28.759183      3419.7844    
      2130   4.26           300.7612       128620.24     -807636.6      -294.54194      0.36035193     0.055894336    28.787047      3419.3428    
      2140   4.28           313.44488      132412.02     -807633.73     -298.85956      0.36032141     0.056718482    28.746844      3418.9243    
      2150   4.3            307.50894      133258.69     -807631.18     -300.46529      0.36029075     0.057028075    28.720618      3418.5209    
      2160   4.32           308.44963      135997.54     -807629.31     -302.2258       0.36025994     0.057367125    28.705043      3418.1266    
      2170   4.34           302.37392      137173.71     -807626.55     -303.90188      0.36022899     0.057690227    28.715515      3417.7269    
      2180   4.36           311.76744      135696.83     -807626.82     -304.74639      0.36019789     0.057855536    28.698197      3417.3372    
      2190   4.38           298.47362      135343.19     -807628.73     -300.70564      0.36016666     0.057093357    28.67913       3416.9582    
      2200   4.4            305.44954      132002.46     -807633.07     -297.02343      0.36013528     0.05639915     28.672571      3416.583     
      2210   4.42           311.93491      131732.14     -807633.75     -296.98743      0.36010377     0.05639725     28.683519      3416.2022    
      2220   4.44           302.69515      130267.24     -807633.69     -295.65398      0.36007211     0.056148967    28.720607      3415.8018    
      2230   4.46           311.5263       133276.69     -807632.03     -298.20095      0.3600403      0.056637675    28.730283      3415.3968    
      2240   4.48           314.42822      132670.41     -807631.99     -298.56629      0.36000836     0.056712096    28.716229      3414.9997    
      2250   4.5            317.54438      137069.66     -807626.83     -303.93829      0.35997627     0.057737643    28.691135      3414.6162    
      2260   4.52           313.63387      135044.97     -807627.52     -302.58167      0.35994404     0.057485079    28.745124      3414.2048    
      2270   4.54           311.53875      137230.39     -807626.57     -302.99329      0.35991167     0.057568458    28.730496      3413.8016    
      2280   4.56           310.46091      132365.73     -807630.96     -298.4481       0.35987916     0.056709998    28.720181      3413.4042    
      2290   4.58           309.42112      133856.79     -807630.04     -299.04268      0.35984651     0.056828134    28.756734      3412.9883    
      2300   4.6            303.28766      130016.69     -807632.68     -295.50843      0.35981371     0.056161627    28.708928      3412.5976    
      2310   4.62           311.49048      132315.24     -807633.58     -295.57079      0.35978077     0.056178621    28.720538      3412.2014    
      2320   4.64           305.62469      131539.61     -807632.54     -295.78647      0.35974769     0.056224786    28.726819      3411.8023    
      2330   4.66           324.39263      135815.33     -807629.47     -301.34478      0.35971447     0.057286631    28.681072      3411.4269    
      2340   4.68           319.67605      134925.92     -807627.63     -302.54158      0.35968111     0.057519481    28.682267      3411.0512    
      2350   4.7            314.22474      136475.76     -807626.51     -302.73944      0.3596476      0.057562461    28.69734       3410.6682    
      2360   4.72           316.62826      134812.53     -807628.75     -300.85733      0.35961396     0.057209951    28.678751      3410.2947    
      2370   4.74           313.16204      135042.79     -807628.49     -300.60623      0.35958017     0.057167575    28.676677      3409.9225    
      2380   4.76           311.15984      131936.28     -807631.67     -297.18219      0.35954624     0.056521743    28.683387      3409.5471    
      2390   4.78           317.82192      130715.45     -807635.14     -294.59109      0.35951216     0.056034247    28.719219      3409.1542    
      2400   4.8            307.80291      130138.8      -807633.75     -294.66233      0.35947795     0.056053132    28.729989      3408.7564    
      2410   4.82           312.54422      133034.48     -807630.82     -298.26419      0.35944359     0.056743731    28.683364      3408.3819    
      2420   4.84           306.20216      134563.64     -807627.96     -300.30368      0.35940909     0.057137221    28.700878      3407.999     
      2430   4.86           321.70243      135971.96     -807629.12     -301.32208      0.35937446     0.057336512    28.717514      3407.6083    
      2440   4.88           310.10567      137167.58     -807626.53     -302.32621      0.35933967     0.057533149    28.769214      3407.1929    
      2450   4.9            310.55518      135175.01     -807626.47     -302.55716      0.35930475     0.057582696    28.71881       3406.8024    
      2460   4.92           319.14613      133300.01     -807630.33     -299.9531       0.35926969     0.057092664    28.67186       3406.4348    
      2470   4.94           310.52647      131145.04     -807633.38     -295.77114      0.35923448     0.056302192    28.723499      3406.0426    
      2480   4.96           309.50557      130741.02     -807633.49     -295.66143      0.35919913     0.056286847    28.762574      3405.6322    
      2490   4.98           305.37243      130269.92     -807632.5      -296.29481      0.35916364     0.056413       28.713102      3405.2458    
      2500   5              306.52448      134405.32     -807630.41     -298.6423       0.35912801     0.056865592    28.666768      3404.8815    
[...]
     98740   197.48         312.39291      133464.45     -807630.06     -9674.9579      0.36236891     0.05705526     29.95355       42.733556    
     98750   197.5          317.18663      135494.04     -807630.16     -9684.6114      0.36238762     0.057109241    29.968378      42.394332    
     98760   197.52         304.05778      134188.6      -807628.51     -9676.9247      0.36240618     0.057060991    29.966195      42.055109    
     98770   197.54         302.93401      136607.74     -807625.48     -9758.74        0.36242459     0.057540499    29.954678      41.715888    
     98780   197.56         315.35619      132708.81     -807630.02     -9665.4574      0.36244287     0.056987603    29.982447      41.376665    
     98790   197.58         313.68302      134298.75     -807629.45     -9665.7081      0.362461       0.056986231    29.955744      41.037447    
     98800   197.6          322.36495      131445.09     -807631.63     -9633.3515      0.36247899     0.056792647    29.960683      40.698229    
     98810   197.62         310.24697      136048.53     -807626.53     -9736.5179      0.36249683     0.057398031    29.949904      40.359014    
     98820   197.64         321.15488      132482.75     -807631.56     -9623.3733      0.36251453     0.056728258    29.936729      40.019801    
     98830   197.66         316.70829      136163.4      -807628.54     -9692.8729      0.36253209     0.05713518     29.879529      39.680598    
     98840   197.68         318.24247      133315.91     -807629.66     -9665.7254      0.36254951     0.056972421    29.935615      39.341387    
     98850   197.7          318.34366      135954.06     -807627.01     -9746.2098      0.36256678     0.057444081    29.969419      39.002174    
     98860   197.72         307.4894       133470.17     -807629.14     -9631.558       0.36258391     0.056765642    29.956114      38.662963    
     98870   197.74         309.60745      136063.63     -807627.55     -9687.3329      0.3626009      0.057091688    29.926786      38.323757    
     98880   197.76         310.07973      133291.02     -807628.25     -9671.1264      0.36261774     0.056993529    29.932254      37.984551    
     98890   197.78         334.50472      134742.73     -807630.79     -9696.7019      0.36263445     0.057141618    29.947054      37.645345    
     98900   197.8          313.02976      133645.93     -807628.86     -9663.9532      0.362651       0.056946033    29.930627      37.306142    
     98910   197.82         324.07482      134903.06     -807629.7      -9687.9119      0.36266742     0.057084629    29.917844      36.966941    
     98920   197.84         317.45171      133965.07     -807628.94     -9689.1496      0.36268369     0.05708936     29.902542      36.627743    
     98930   197.86         328.20759      134372.82     -807629.31     -9726.8616      0.36269982     0.057309014    29.938256      36.288542    
     98940   197.88         310.89951      134257.35     -807628.53     -9680.005       0.36271581     0.057030429    29.942789      35.949341    
     98950   197.9          310.16139      134586.87     -807628.68     -9678.7238      0.36273165     0.05702039     29.954559      35.61014     
     98960   197.92         315.07002      135265.32     -807629.09     -9696.1488      0.36274735     0.057120574    29.954321      35.27094     
     98970   197.94         318.65786      132913.22     -807630.52     -9678.1035      0.36276291     0.057011823    29.942676      34.931743    
     98980   197.96         316.66267      134335.02     -807629.85     -9698.5552      0.36277832     0.057129873    26.136976      34.593047    
     98990   197.98         306.56192      132017.55     -807630.88     -9637.4558      0.36279359     0.056767574    29.886589      34.253853    
     99000   198            312.49819      135464        -807629.16     -9728.542       0.36280872     0.05730171     29.932035      33.914655    
     99010   198.02         301.38677      132843.48     -807629.06     -303.04865      0.3628237      0.057116846    30.044732      33.575446    
     99020   198.04         311.38423      136081.53     -807629.62     -304.15055      0.36283855     0.057322181    30.056494      33.236236    
     99030   198.06         299.17828      132256.8      -807631.28     -301.21934      0.36285324     0.056767446    30.019371      32.897032    
     99040   198.08         299.79803      136221.74     -807627.24     -305.4417       0.3628678      0.057560879    30.014903      32.557829    
     99050   198.1          311.85966      130059.87     -807633.41     -301.34273      0.36288221     0.056786166    30.02505       32.218627    
     99060   198.12         307.28193      135573.26     -807630.11     -303.94849      0.36289648     0.057274954    29.983345      31.87943     
     99070   198.14         301.19843      130888.3      -807633.54     -300.0016       0.36291061     0.056529016    29.983609      31.540234    
     99080   198.16         296.01463      136788.45     -807628.29     -304.42423      0.36292459     0.057360158    30.018679      31.201036    
     99090   198.18         301.03955      131673.25     -807631.54     -302.12505      0.36293843     0.056924772    29.984632      30.861843    
     99100   198.2          307.41372      136857.92     -807629.01     -305.33886      0.36295213     0.057528129    26.844198      30.523005    
     99110   198.22         298.22138      131830.96     -807631.63     -301.63136      0.36296568     0.056827486    30.046585      30.183803    
     99120   198.24         310.33059      136184.17     -807630.07     -304.69814      0.36297909     0.057403148    30.03415       29.844604    
     99130   198.26         300.09837      131376.1      -807631.12     -302.37562      0.36299236     0.056963519    30.03136       29.505407    
     99140   198.28         316.05625      134442.74     -807632.39     -303.13942      0.36300548     0.057105344    30.044807      29.16621     
     99150   198.3          301.88106      131838.64     -807632.99     -300.65198      0.36301846     0.056634734    30.055409      28.827013    
     99160   198.32         302.28049      134226.69     -807629.76     -303.815        0.3630313      0.05722854     30.053069      28.487817    
     99170   198.34         301.57573      133139.04     -807630.7      -302.74777      0.36304399     0.057025516    30.010619      28.148627    
     99180   198.36         302.15916      134560.37     -807630.14     -303.26312      0.36305655     0.057120611    30.019157      27.809437    
     99190   198.38         313.61217      133825.76     -807632        -302.8852       0.36306895     0.05704748     30.050892      27.470246    
     99200   198.4          304.50371      134419.25     -807629.64     -303.83174      0.36308122     0.057223823    30.044032      27.131056    
     99210   198.42         309.09057      135016.2      -807629.08     -304.94857      0.36309334     0.05743225     30.020215      26.79187     
     99220   198.44         307.94174      133897.33     -807631.31     -302.45768      0.36310532     0.056961252    26.342338      26.45305     
     99230   198.46         303.26281      134357.26     -807630.42     -302.52835      0.36311715     0.056972704    30.000062      26.113864    
     99240   198.48         302.96365      132291.85     -807629.99     -302.83746      0.36312885     0.05702908     29.9871        25.774679    
     99250   198.5          297.97297      135025.75     -807627.71     -304.17908      0.3631404      0.057279907    29.977764      25.435497    
     99260   198.52         309.49809      132453.45     -807631.86     -301.54895      0.3631518      0.056782843    29.909126      25.096321    
     99270   198.54         319.4161       135782.55     -807630.44     -304.07931      0.36316306     0.057257544    26.181629      24.757496    
     99280   198.56         302.58049      134428.24     -807628.51     -303.63541      0.36317418     0.057172208    30.024187      24.418309    
     99290   198.58         314.47849      136319.31     -807628.33     -305.17962      0.36318516     0.057461235    30.04593       24.07912     
     99300   198.6          313.7616       132425.67     -807631.23     -302.11034      0.36319599     0.056881634    30.029678      23.739934    
     99310   198.62         320.3685       134648.77     -807631        -303.03118      0.36320668     0.05705333     30.007732      23.400751    
     99320   198.64         300.46026      132505.09     -807628.6      -302.6714       0.36321723     0.056983939    30.042311      23.061567    
     99330   198.66         304.42144      134931.66     -807627.62     -303.93981      0.36322763     0.057221103    30.053687      22.722383    
     99340   198.68         322.43063      131328.35     -807633.18     -300.86053      0.36323789     0.056639785    30.030377      22.383202    
     99350   198.7          318.0074       136351.89     -807628.51     -304.69502      0.36324801     0.057360065    30.042191      22.044022    
     99360   198.72         310.67706      134238.95     -807628.15     -304.10014      0.36325798     0.057246505    30.045936      21.704842    
     99370   198.74         308.52236      137272.8      -807626.65     -305.08433      0.36326781     0.057430222    30.061404      21.365663    
     99380   198.76         326.47693      133143.74     -807632.2      -302.09353      0.3632775      0.056865706    30.022481      21.026488    
     99390   198.78         318.91157      135506.57     -807628.97     -304.13519      0.36328704     0.057248523    30.021814      20.687314    
     99400   198.8          310.71037      132319.57     -807629.32     -302.68096      0.36329644     0.056973314    30.024942      20.348141    
     99410   198.82         319.53442      135047.89     -807630.13     -303.00921      0.3633057      0.057033646    30.03524       20.008968    
     99420   198.84         309.56784      132782.81     -807630.57     -301.21345      0.36331481     0.056694218    30.047884      19.669796    
     99430   198.86         319.5908       134441.71     -807629.06     -304.03685      0.36332378     0.057224224    30.037408      19.330626    
     99440   198.88         308.44972      134260.94     -807627.52     -304.17459      0.36333261     0.057248758    30.040685      18.991457    
     99450   198.9          315.03514      135802.77     -807627.74     -304.83132      0.36334129     0.057370991    29.958608      18.652295    
     99460   198.92         312.02993      135010.89     -807628.58     -303.66658      0.36334983     0.057150435    30.015319      18.31313     
     99470   198.94         305.33469      135842.04     -807627.2      -304.18781      0.36335823     0.057247209    30.007456      17.973966    
     99480   198.96         316.54628      135719.37     -807628.47     -304.59998      0.36336648     0.057323477    30.010858      17.634804    
     99490   198.98         318.82803      133141.39     -807631.09     -302.4519       0.3633746      0.056917954    30.029533      17.295642    
     99500   199            319.36792      134125.9      -807631.41     -302.32399      0.36338256     0.056892635    30.02182       16.956481    
     99510   199.02         308.45666      132390.76     -807630.77     -9659.2317      0.36339039     0.0568024      29.961241      16.617325    
     99520   199.04         312.68204      135388.43     -807628.89     -9746.618       0.36339807     0.057315076    29.978009      16.278169    
     99530   199.06         299.44902      133451.12     -807629.46     -9685.619       0.3634056      0.056955189    29.321062      15.93905     
     99540   199.08         311.15127      135962.74     -807628.89     -9766.8358      0.363413       0.057431607    29.936441      15.599898    
     99550   199.1          302.64725      134298.7      -807629.43     -9729.358       0.36342025     0.057210086    29.938525      15.260746    
     99560   199.12         320.56351      135402.85     -807630.53     -9784.6416      0.36342736     0.057534037    29.968509      14.921594    
     99570   199.14         305.02191      132571.41     -807632.07     -9680.2548      0.36343432     0.056919148    29.968628      14.582444    
     99580   199.16         304.73865      134776.38     -807631.65     -9698.6971      0.36344114     0.057026517    29.960495      14.243295    
     99590   199.18         300.17187      131672.96     -807632.54     -9661.5559      0.36344782     0.05680709     29.994896      13.904145    
     99600   199.2          308.54837      133598.8      -807631.4      -9738.5023      0.36345435     0.057258482    29.996442      13.564996    
     99610   199.22         295.15565      132945.37     -807631.14     -9693.9144      0.36346074     0.056995322    29.954559      13.225851    
     99620   199.24         302.02996      134773.01     -807631.61     -9709.8414      0.36346699     0.057087983    29.9382        12.886707    
     99630   199.26         294.12553      133691.65     -807629.79     -9737.3264      0.3634731      0.057248617    29.951545      12.547564    
     99640   199.28         309.26076      134412.46     -807630.85     -9770.2198      0.36347906     0.057441065    29.929476      12.208422    
     99650   199.3          306.90537      133647.09     -807631.69     -9732.2674      0.36348487     0.057217019    29.959668      11.869281    
     99660   199.32         296.64363      134206.78     -807631.22     -9701.0344      0.36349055     0.057032507    29.984714      11.530139    
     99670   199.34         287.99966      133832.14     -807630.61     -9680.9378      0.36349608     0.056913493    30.005638      11.190998    
     99680   199.36         302.3404       132482.32     -807632.29     -9689.2022      0.36350147     0.056961234    29.959128      10.85186     
     99690   199.38         294.84939      133497.64     -807629.98     -9725.2695      0.36350671     0.057172443    29.886739      10.512725    
     99700   199.4          300.23664      133509.58     -807631.73     -9690.8952      0.36351181     0.056969566    29.835547      10.173593    
     99710   199.42         306.52551      135387.49     -807630.32     -9755.8252      0.36351677     0.057350486    29.916031      9.8344591    
     99720   199.44         308.88686      134151.45     -807630.45     -9759.6225      0.36352158     0.057372049    29.929195      9.4953258    
     99730   199.46         312.38636      135515.9      -807630.46     -9768.188       0.36352625     0.057421664    29.939752      9.1561931    
     99740   199.48         302.9756       132900.83     -807631.31     -9693.5163      0.36353078     0.056982001    29.952792      8.8170612    
     99750   199.5          307.64922      133963.19     -807631.39     -9703.8052      0.36353516     0.057041796    29.971131      8.4779297    
     99760   199.52         303.83194      132261.66     -807630.78     -9701.7474      0.3635394      0.057029034    29.956126      8.1387998    
     99770   199.54         301.65139      134711.25     -807629.79     -9714.5036      0.3635435      0.057103374    29.959555      7.7996708    
     99780   199.56         302.89921      132800.68     -807630.77     -9682.9736      0.36354745     0.056917417    29.920795      7.4605439    
     99790   199.58         314.18363      134744.16     -807630.54     -9731.6707      0.36355126     0.057203063    29.922596      7.1214179    
     99800   199.6          308.28674      134246.39     -807628.65     -9762.0778      0.36355493     0.057381218    29.931622      6.7822927    
     99810   199.62         304.21773      135438.44     -807628.24     -9748.4938      0.36355845     0.057300817    29.948106      6.4431682    
     99820   199.64         322.31259      133436.16     -807631.71     -9711.4794      0.36356183     0.057082719    29.944411      6.1040448    
     99830   199.66         313.54309      134608.29     -807629.7      -9731.0739      0.36356507     0.057197383    29.975316      5.7649218    
     99840   199.68         306.82847      133931.76     -807629.94     -9691.8845      0.36356816     0.056966551    29.99526       5.4257996    
     99850   199.7          317.2469       133887.47     -807630.66     -9708.0261      0.36357111     0.057060964    29.978229      5.0866788    
     99860   199.72         313.09407      133075.28     -807631.55     -9659.6577      0.36357392     0.05677623     29.89467       4.7475604    
     99870   199.74         314.43561      134949.14     -807629.56     -9724.9301      0.36357658     0.057159461    29.869662      4.4084433    
     99880   199.76         299.80632      135066.34     -807627.31     -9731.498       0.3635791      0.057197668    29.835498      4.0693276    
     99890   199.78         314.98809      135314.49     -807629.46     -9727.4005      0.36358148     0.057173211    29.881256      3.730212     
     99900   199.8          318.19993      134862.23     -807629.84     -9726.9274      0.36358371     0.057170079    29.953601      3.3910966    
     99910   199.82         317.00786      135056.78     -807628.99     -9749.0536      0.3635858      0.057299797    29.968773      3.051982     
     99920   199.84         315.88877      134281.54     -807629.21     -9734.7823      0.36358775     0.057215611    29.957781      2.7128687    
     99930   199.86         314.24248      133968.26     -807630.18     -9696.6295      0.36358955     0.056991088    29.952849      2.3737564    
     99940   199.88         313.70637      133902.11     -807630.29     -9691.0154      0.36359121     0.056957831    29.953995      2.0346452    
     99950   199.9          311.6319       134412.47     -807629.16     -9718.7713      0.36359273     0.057120725    29.950198      1.695535     
     99960   199.92         305.76695      134563.86     -807628.31     -9718.7517      0.3635941      0.057120395    29.963906      1.3564259    
     99970   199.94         326.3917       133923.56     -807631.2      -9718.2358      0.36359533     0.057117169    29.954165      1.0173178    
     99980   199.96         309.25334      135696.76     -807628.49     -9731.4568      0.36359641     0.057194703    29.95721       0.67821083   
     99990   199.98         312.31511      134952.22     -807628.88     -9733.9077      0.36359736     0.057208959    29.499037      0.3391054    
    100000   200            312.67951      134866.54     -807628.79     -9739.5823      0.36359816     0.057242185    29.578239      0            
Loop time of 3391.05 on 32 procs for 100000 steps with 1080 atoms

Performance: 5.096 ns/day, 4.710 hours/ns, 29.489 timesteps/s, 31.849 katom-step/s
61.2% CPU use with 32 MPI tasks x 1 OpenMP threads

MPI task timing breakdown:
Section |  min time  |  avg time  |  max time  |%varavg| %total
---------------------------------------------------------------
Pair    | 2458.3     | 2792.9     | 3110.8     | 253.5 | 82.36
Neigh   | 0.001231   | 0.001339   | 0.0015776  |   0.3 |  0.00
Comm    | 204.6      | 522.84     | 857.15     | 586.1 | 15.42
Output  | 2.4633     | 2.5117     | 2.527      |   0.6 |  0.07
Modify  | 65.561     | 66.259     | 67.128     |   3.8 |  1.95
Other   |            | 6.551      |            |       |  0.19

Nlocal:          33.75 ave          40 max          27 min
Histogram: 3 2 2 4 3 5 6 1 2 4
Nghost:        1029.44 ave        1048 max        1007 min
Histogram: 2 3 5 2 1 2 3 8 2 4
Neighs:              0 ave           0 max           0 min
Histogram: 32 0 0 0 0 0 0 0 0 0
FullNghs:      5387.81 ave        6431 max        4277 min
Histogram: 3 2 3 3 3 6 4 2 2 4

Total # of neighbors = 172410
Ave neighs/atom = 159.63889
Neighbor list builds = 3
Dangerous builds = 0

Total wall time: 0:59:53
