
units		metal
atom_style	atomic

read_data ${STRUCTURE}.data
read_data BaTiO3-sc333.data
Reading data file ...
  orthogonal box = (0 0 0) to (11.898253 11.898253 12.912076)
  2 by 4 by 4 MPI processor grid
  reading atoms ...
  135 atoms
  read_data CPU = 0.006 seconds
replicate $L $L $L
replicate 2 $L $L
replicate 2 2 $L
replicate 2 2 2
Replication is creating a 2x2x2 = 8 times larger system...
  orthogonal box = (0 0 0) to (23.796507 23.796507 25.824152)
  2 by 4 by 4 MPI processor grid
  1080 atoms
  replicate CPU = 0.003 seconds

pair_style allegro
pair_coeff	* * ${MODEL}.pth Ba Ti O
pair_coeff	* * BaTiO3-E0.pth Ba Ti O
mass 1 137.3
mass 2 47.9
mass 3 15.9994

timestep 0.002
compute polarization all allegro polarization 3
compute allegro will evaluate the quantity polarization of length 3 (src/compute_allegro.cpp:53)
compute polarizability all allegro polarizability 9
compute allegro will evaluate the quantity polarizability of length 9 (src/compute_allegro.cpp:53)

thermo_style custom pe fmax fnorm spcpu cpuremain

variable efield equal 1e-2*36.36
fix born all addbornforce 0.0 0.0 ${efield}
fix born all addbornforce 0.0 0.0 0.3636

thermo 10
min_style fire
#minimize 0.0 1e-6 100 100
velocity all create ${TEMP} ${SEED} dist gaussian rot yes mom yes
velocity all create 350 ${SEED} dist gaussian rot yes mom yes
velocity all create 350 8079 dist gaussian rot yes mom yes
fix nvt all nvt temp ${TEMP} ${TEMP} $(100*dt)
fix nvt all nvt temp 350 ${TEMP} $(100*dt)
fix nvt all nvt temp 350 350 $(100*dt)
fix nvt all nvt temp 350 350 0.2000000000000000111
run 5000
Neighbor list info ...
  update: every = 1 steps, delay = 0 steps, check = yes
  max neighbors/atom: 2000, page size: 100000
  master list distance cutoff = 8
  ghost atom cutoff = 8
  binsize = 8, bins = 3 3 4
  1 neighbor lists, perpetual/occasional/extra = 1 0 0
  (1) pair allegro/kk, perpetual
      attributes: full, newton on, kokkos_device
      pair build: full/bin/kk/device
      stencil: full/bin/3d
      bin: kk/device
Per MPI rank memory allocation (min/avg/max) = 3.516 | 3.516 | 3.516 Mbytes
    PotEng          Fmax          Fnorm          S/CPU         CPULeft    
-807708.29      1.5958157      37.041557      0              0            
-807643.01      3.6631189      46.385542      2.2215333      2246.1973    
-807634.05      2.662404       36.279074      25.896207      1217.0009    
-807607.45      3.2556869      38.145902      25.892077      873.68839    
-807602.68      4.1325612      50.273845      25.844584      701.92696    
-807563.79      3.5350154      41.634318      25.833723      598.73143    
-807596.87      3.0912154      40.7553        25.89342       529.73193    
-807642.89      4.1684997      35.611297      25.892147      480.33755    
-807680.33      2.4931143      35.48756       25.866439      443.21878    
-807663.4       4.3600518      35.986625      25.829865      414.29261    
-807649.67      3.4975473      36.997045      25.917211      391.0103     
-807658.68      2.9451793      30.336818      25.901322      371.90152    
-807624.94      3.6638729      33.989041      25.90009       355.91393    
-807581.97      3.5099807      41.995816      25.866014      342.34564    
-807564.97      4.177841       41.116615      25.905779      330.63982    
-807626.3       4.359099       36.92373       25.866523      320.46226    
-807648.81      4.5032187      33.821137      25.838143      311.52142    
-807659.18      3.3378336      36.045374      25.857251      303.57878    
-807643.83      4.7147309      45.833288      25.869692      296.47071    
-807675.82      3.2160289      37.934745      25.828453      290.08578    
-807640.24      3.7491793      39.915872      25.815474      284.30531    
-807614.39      2.8409725      39.296261      25.890059      279.01301    
-807562.62      3.7478856      45.814023      25.89158       274.16623    
-807600.27      4.151022       49.787328      25.861342      269.71668    
-807609.8       4.604685       39.548871      25.84659       265.61009    
-807635.53      3.0197497      37.058055      25.898282      261.78639    
-807640.51      5.2240223      45.273878      25.932749      258.21777    
-807676.67      3.3633264      39.462022      25.86528       254.90254    
-807660.34      2.9563852      36.90119       25.793807      251.81457    
-807634.35      3.3943654      34.657989      25.876705      248.89265    
-807606.46      3.2800327      36.04052       25.920097      246.12962    
-807604.13      3.90004        42.085504      25.8618        243.53311    
-807593.7       3.1930371      38.645953      25.806089      241.08694    
-807602.35      2.9717772      35.289227      25.886291      238.74855    
-807638.26      4.06915        32.688922      25.91238       236.51965    
-807668.69      3.0423848      34.062537      25.8874        234.40101    
-807672.61      2.9849464      34.713375      25.810481      232.39345    
-807640.19      6.2788684      41.008881      25.869313      230.46244    
-807645.31      3.798469       33.561641      25.867813      228.61298    
-807619.9       7.1978224      37.574218      25.847775      226.84209    
-807598.67      4.7135197      44.703517      25.819794      225.14522    
-807563.96      7.3317332      46.237815      25.887742      223.50086    
-807617.08      4.2051848      38.839334      25.880816      221.91752    
-807643.5       5.396908       38.774793      25.893402      220.38787    
-807667.24      3.4124855      36.276682      25.857545      218.91574    
-807638.27      5.0977618      47.269768      25.875461      217.48914    
-807662.82      3.0813222      35.931422      25.861926      216.10976    
-807643.74      4.4959213      37.04468       25.81836       214.77891    
-807621.81      3.840428       38.042541      25.849203      213.48303    
-807565.39      4.536542       43.443824      25.900488      212.2172     
-807595.55      3.7096083      44.259971      25.841682      210.99446    
-807616.85      3.7945718      38.49999       25.81324       209.80825    
-807647.04      5.624166       35.426617      25.858745      208.6469     
-807636.23      4.8717271      42.232812      25.881027      207.51196    
-807666.63      4.6879256      36.420631      25.830787      206.41096    
-807662.25      3.7795609      36.247289      25.781759      205.34188    
-807637.65      4.3130501      34.38936       25.833938      204.29091    
-807600.52      3.2588118      36.579372      25.889146      203.25682    
-807595.01      4.0967803      39.115037      25.909525      202.24275    
-807599.79      4.1675173      42.039222      25.811351      201.26095    
-807610.2       3.4354693      35.882423      25.887891      200.29056    
-807632         3.0410399      34.760505      25.925001      199.33534    
-807654.97      3.5432879      36.974524      25.898282      198.4013     
-807670.35      2.9043555      37.316795      25.817131      197.49308    
-807642.72      3.9341025      40.354379      25.831929      196.59962    
-807631.6       3.3736481      35.837007      25.888425      195.71609    
-807612.34      4.2652536      37.354365      25.922983      194.84424    
-807601.56      4.4471114      45.28705       25.857148      193.99325    
-807575.17      3.8010326      41.894693      25.842848      193.15728    
-807608.47      2.9641427      37.836411      25.89343       192.32959    
-807639.04      3.9414276      37.349896      25.904176      191.51354    
-807665.53      3.3973609      37.65476       25.833267      190.716      
-807646.69      4.3292518      41.748382      25.834129      189.92979    
-807648.4       3.2777662      37.391528      25.850911      189.15304    
-807640.98      4.6611238      36.118878      25.862982      188.38579    
-807622.43      3.8312156      38.2059        25.838758      187.63074    
-807578.15      4.6833135      41.245543      25.857022      186.88385    
-807582.7       3.7674051      41.451681      25.858731      186.14618    
-807621.14      3.9403754      34.098566      25.840516      185.41898    
-807650.53      2.7872367      32.943701      25.864477      184.69849    
-807645.3       3.7112634      36.793011      25.852293      183.98729    
-807651.96      3.7148193      36.837225      25.720287      183.29438    
-807661.43      3.0053016      34.047794      25.830549      182.60042    
-807641.55      3.190266       34.082317      25.841491      181.91303    
-807604.85      2.9040796      37.098855      25.88725       181.22941    
-807583.82      3.4770868      39.996593      25.936375      180.54921    
-807600.49      3.7454622      42.785417      25.853679      179.8818     
-807617.22      4.1527578      36.647194      25.84526       179.22144    
-807631.77      3.8843851      36.563713      25.893832      178.5639     
-807644.82      4.4429803      39.354816      25.876929      177.91362    
-807664.81      3.7561232      37.646032      25.811458      177.27367    
-807649.28      4.0780512      38.005365      25.781615      176.64128    
-807628.91      3.3335673      35.690022      25.881401      176.00758    
-807606.72      4.7901214      37.257824      25.907457      175.37749    
-807602.75      4.1217517      43.351863      25.835005      174.75727    
-807592.06      4.0044794      39.158577      25.804629      174.14391    
-807609.95      3.132224       36.69169       25.855201      173.53206    
-807633.1       4.2427178      36.179168      25.865112      172.92423    
-807662.12      2.7295058      36.148894      25.813784      172.32407    
-807653.78      3.7991766      37.68077       25.809243      171.72849    
-807643.74      3.7303335      36.032749      25.801262      171.13755    
-807632.04      3.8810288      35.16689       25.875334      170.54625    
-807623.02      3.4624168      36.482878      25.865313      169.95956    
-807590.61      4.1761442      39.767109      25.850738      169.37758    
-807587.08      4.0275057      39.421419      25.883347      168.79751    
-807617.4       3.7534784      35.377075      25.827693      168.22425    
-807649.1       2.7606016      34.036197      25.867373      167.65231    
-807653.98      3.0596445      35.967655      25.821554      167.08634    
-807645.28      4.3230492      38.731106      25.873576      166.52086    
-807651.83      3.3148498      34.656819      25.836194      165.96067    
-807640.03      3.2915051      34.669541      25.855359      165.4026     
-807612.69      3.2631032      36.357503      25.847532      164.84804    
-807580.33      3.4280702      39.563413      25.869275      164.29534    
-807602.66      3.4211893      38.764854      25.833541      163.74742    
-807624.09      3.4576138      34.998022      25.824712      163.20276    
-807643.37      2.4773019      33.461833      25.851289      162.65951    
-807641.03      3.6556547      38.401982      25.912586      162.11593    
-807659.67      3.3405251      35.466866      25.907532      161.57529    
-807649.44      3.4713004      36.225533      25.823976      161.04131    
-807633.77      2.9818147      34.359629      25.869542      160.50762    
-807597.89      3.7438206      37.84066       25.867841      159.97646    
-807600.1       3.4515057      40.673907      25.878772      159.44717    
-807600.3       3.9362245      38.736498      25.842587      158.92191    
-807620.15      3.8768669      35.633823      25.83191       158.39938    
-807631.38      4.604757       36.956329      25.866116      157.87749    
-807657.06      3.7480062      35.662328      25.889548      157.35671    
-807654.64      3.6879303      36.994245      25.763764      156.84366    
-807644.32      3.9192553      35.614585      25.891285      156.32697    
-807624.6       4.0917059      35.731817      25.894122      155.81219    
-807614.03      3.6880357      37.107212      25.863196      155.30073    
-807597.69      3.6654245      39.949484      25.843468      154.79204    
-807596.26      4.594966       39.710455      25.873712      154.28393    
-807613.39      3.0631181      36.561983      25.903459      153.77642    
-807643.74      3.7129616      35.697298      25.890896      153.27126    
-807654.73      3.007752       36.731275      25.848414      152.7696     
-807646.17      3.8744389      38.327813      25.781856      152.27235    
-807640.05      3.3532004      36.466031      25.83136       151.77471    
-807632.01      3.4725774      35.805676      25.813761      151.27939    
-807612.69      3.4388571      38.335731      25.842055      150.78452    
-807585.7       4.1979414      41.018409      25.843478      150.29115    
-807598.08      4.0835808      39.100591      25.869785      149.79829    
-807623.4       3.7695278      36.391704      25.839541      149.30808    
-807646.04      4.3350746      36.239918      25.862958      148.81845    
-807642.65      4.3984409      38.640685      25.861869      148.33029    
-807648.69      4.2524877      37.594647      25.883703      147.84274    
-807644.57      3.2225432      35.961324      25.862346      147.35737    
-807630.9       3.7182227      36.117286      25.861057      146.8734     
-807597.79      3.2931728      38.448838      25.86065       146.39076    
-807593.47      4.0488074      40.201663      25.896567      145.90815    
-807604.35      4.0040776      38.73472       25.900066      145.4267     
-807627.99      3.7384045      36.14764       25.897368      144.94662    
-807632.73      5.1860054      38.503589      25.906721      144.46747    
-807649.4       4.5381891      37.535287      25.896651      143.98988    
-807649.86      3.9358324      38.446786      25.872103      143.51432    
-807642.04      4.3778378      37.453571      25.823929      143.04154    
-807616.72      3.8502281      38.379953      25.867883      142.56839    
-807604.91      3.8882112      39.305819      25.902976      142.0952     
-807599.29      3.7427249      40.463543      25.882706      141.62378    
-807608.29      4.0260897      38.59876       25.867074      141.15395    
-807618.82      3.553999       36.299015      25.890082      140.68442    
-807641.99      4.6314216      35.70051       25.865345      140.21672    
-807652.34      2.9882164      35.923087      25.805838      139.7519     
-807648.08      4.0942596      35.549005      25.835996      139.2871     
-807634.53      4.1507853      35.66521       25.870633      138.82217    
-807625.69      3.2946601      35.021838      25.882366      138.35785    
-807612.33      3.5751748      37.558647      25.848127      137.89551    
-807597.07      4.2173667      40.378953      25.848472      137.43406    
-807603.55      3.4337547      38.053271      25.860054      136.97317    
-807626.32      4.7711357      36.955259      25.786195      136.51534    
-807644.58      3.4180978      35.934158      25.776479      136.05864    
-807644.03      3.7439517      38.320181      25.745893      135.60363    
-807644.19      4.1015169      36.577281      25.802245      135.14777    
-807637.28      3.9566653      36.535197      25.868226      134.69082    
-807627.79      3.4894432      35.836472      25.809869      134.23634    
-807604.82      4.1404606      38.766421      25.903508      133.78       
-807595.53      4.1573101      40.445058      25.923365      133.32392    
-807611.97      4.362195       37.951598      25.866889      132.87019    
-807631.65      3.5241614      37.280213      25.880374      132.41684    
-807640.26      3.5909294      36.788283      25.889059      131.96402    
-807644.21      4.1950058      37.59639       25.91068       131.51136    
-807648.36      4.5787063      36.596521      25.889635      131.06       
-807641.79      3.1622299      35.329802      25.857159      130.61021    
-807618.5       4.055688       36.625846      25.910281      130.15974    
-807600.98      3.5195036      38.679679      25.914253      129.70986    
-807600.58      4.2713612      39.67378       25.898701      129.26108    
-807615.4       3.6075267      38.046289      25.808263      128.81528    
-807626.13      3.9246706      37.132472      25.870974      128.36852    
-807639.06      4.3916011      36.970168      25.871769      127.92239    
-807650.25      3.008308       36.694809      25.833278      127.47784    
-807647.89      3.6380905      37.039236      25.853494      127.03341    
-807631.47      3.824266       36.916832      25.883789      126.58884    
-807614.35      3.3633563      37.663122      25.896106      126.14459    
-807606.68      3.4733627      38.595432      25.926468      125.70021    
-807601.46      3.4873046      39.432378      25.902304      125.25702    
-807608.32      3.2781135      37.549066      25.845267      124.81575    
-807626.9       2.9438866      35.766407      25.839693      124.37518    
-807644.88      2.649363       35.878323      25.864749      123.93457    
-807646.45      2.788064       37.031766      25.82729       123.49537    
-807639.99      3.608985       37.092919      25.836494      123.05649    
-807628.42      3.7660479      37.437324      25.87456       122.61727    
-807621.91      3.0330259      37.586387      25.843354      122.17927    
-807604.42      3.7146335      39.980293      25.81683       121.74238    
-807599.76      3.839991       39.4951        25.829549      121.30569    
-807609.85      4.676072       37.916228      25.827448      120.86954    
-807631.8       3.1107964      36.753835      25.846993      120.43344    
-807638.38      3.9966108      37.537227      25.86653       119.9974     
-807640.33      3.1198478      37.483821      25.859821      119.56198    
-807639.83      3.6120796      36.092372      25.87514       119.12672    
-807635         2.9344717      35.742728      25.908312      118.69122    
-807618.23      3.2773889      36.399254      25.851949      118.25737    
-807603.1       3.5078807      38.036034      25.907314      117.82283    
-807602.99      3.6026647      38.905364      25.92092       117.38847    
-807617.3       3.3447143      37.523473      25.881075      116.95538    
-807631.21      2.9386794      36.307995      25.849312      116.52336    
-807636.93      3.3952183      36.948953      25.862208      116.09151    
-807645.1       2.9432575      36.600258      25.861713      115.66009    
-807642.86      3.1734132      36.329461      25.855357      115.2292     
-807632.35      2.8714731      35.535979      25.856879      114.7987     
-807610.48      3.1549271      37.551406      25.867044      114.3684     
-807607.95      3.3413062      37.45863       25.870549      113.93843    
-807604.91      3.3539204      38.859914      25.869465      113.50888    
-807619.38      3.0518909      36.821366      25.841054      113.08025    
-807629.5       4.5171809      37.136452      25.852075      112.65179    
-807643.34      3.4206903      36.340391      25.890262      112.223      
-807645.03      3.4581925      37.000794      25.849387      111.79533    
-807640.76      3.7374544      36.334528      25.813209      111.3687     
-807625.08      4.6319042      36.511399      25.836051      110.94199    
-807614.63      4.0390996      36.672411      25.86382       110.51514    
-807607.37      3.4544266      38.143395      25.76129       110.09047    
-807607.5       3.1391208      37.579333      25.780888      109.66578    
-807619.75      3.212193       35.209361      25.853382      109.24012    
-807635.52      3.0541551      34.758351      25.842817      108.81499    
-807647.31      2.8904222      35.024883      25.845644      108.39014    
-807641.4       3.3207001      36.518533      25.841642      107.96568    
-807636.78      4.0852394      36.182499      25.858415      107.54126    
-807628.18      3.0944318      35.436331      25.909864      107.11629    
-807616.6       3.3389011      37.295949      25.913245      106.69159    
-807604.03      4.0654132      39.078264      25.877188      106.26782    
-807606.24      3.0215839      38.364775      25.910492      105.84382    
-807622.98      3.3910831      36.512431      25.916918      105.42003    
-807635.11      3.5615349      36.775123      25.869572      104.99732    
-807639.98      4.5085035      36.931047      25.846591      104.57528    
-807639.92      4.3786147      37.461796      25.847721      104.15352    
-807638.89      3.2288747      35.857907      25.873195      103.73164    
-807628.32      3.6932096      36.360769      25.860522      103.31024    
-807610.81      2.9670184      37.115905      25.849802      102.8893     
-807602.62      3.2135743      38.82456       25.859555      102.46848    
-807610.43      3.7792645      38.110011      25.864682      102.04786    
-807623.67      4.3934205      36.745646      25.855838      101.62765    
-807630.91      4.8434898      37.395087      25.863142      101.2076     
-807639.25      2.9990691      36.505184      25.850638      100.78801    
-807642.6       4.6215008      37.036243      25.845878      100.36874    
-807636.47      3.5270232      36.709235      25.850064      99.949669    
-807621.32      3.8148975      36.453446      25.86232       99.530674    
-807608.15      4.2158467      39.399395      25.872573      99.111785    
-807605.99      3.3986226      38.164597      25.854531      98.69341     
-807611.03      4.8503202      38.575716      25.791082      98.276188    
-807619.84      5.1671694      37.725904      25.804426      97.859006    
-807635.1       3.5786272      36.616139      25.80352       97.442067    
-807641.4       3.5217541      37.056119      25.841558      97.024824    
-807641.71      4.0485743      37.424047      25.858196      96.607584    
-807630.86      3.9525094      37.417728      25.88919       96.190154    
-807618.32      3.5539446      37.543729      25.900434      95.772809    
-807610.66      3.9759542      38.223945      25.894186      95.355786    
-807606.56      3.8203066      38.971305      25.845337      94.939649    
-807609.79      4.7134583      37.97646       25.91612       94.522796    
-807624.91      3.8122393      36.957038      25.906639      94.106299    
-807638.36      3.9912849      36.09178       25.868095      93.690534    
-807642.03      4.8524912      37.558568      25.903241      93.274532    
-807639.09      4.2361679      36.448049      25.89679       92.858835    
-807627.55      5.1172076      37.415851      25.869339      92.443706    
-807620.99      4.1333863      37.867461      25.856253      92.028953    
-807609.93      4.5438107      38.347578      25.852159      91.614458    
-807604.02      4.3804006      39.968362      25.859209      91.200077    
-807613.6       4.8120814      38.267612      25.815774      90.786435    
-807629.19      3.9755148      37.763601      25.845341      90.372622    
-807639.49      3.5009537      36.459569      25.8416        89.959049    
-807637.69      3.6455263      37.655581      25.826601      89.545849    
-807637.12      3.2300988      35.936644      25.862003      89.132413    
-807633.35      3.2147786      35.756284      25.853074      88.719275    
-807618.42      3.6537566      35.939945      25.847884      88.306386    
-807606.81      3.0652574      36.88479       25.848939      87.893669    
-807607.42      3.7718291      36.93526       25.817827      87.481496    
-807621.03      3.1512767      36.87755       25.815513      87.069525    
-807630.61      4.2161984      36.147629      25.794004      86.657974    
-807635.86      4.2005929      36.25307       25.81166       86.24639     
-807640.82      3.9403638      36.409046      25.843849      85.834614    
-807641         3.7803014      35.72727       25.822851      85.423244    
-807627.66      2.9226085      35.781476      25.853994      85.011699    
-807615.38      3.3070056      36.509156      25.844884      84.600424    
-807609.27      3.5099328      37.636264      25.865511      84.189094    
-807612.25      3.572109       37.879584      25.897914      83.777586    
-807619.38      3.315332       36.886446      25.90385       83.36619     
-807628.74      3.3518513      36.20296       25.910708      82.954893    
-807637.68      3.3823863      36.605735      25.895497      82.543929    
-807642.56      3.425404       36.594228      25.866179      82.133436    
-807635.59      2.9735671      36.465132      25.874542      81.723019    
-807624.78      5.0127089      37.166116      25.893811      81.312567    
-807616.62      3.3262749      36.399854      25.926759      80.901944    
-807611.53      4.7510039      38.107091      25.82859       80.492474    
-807612.49      3.4495924      36.905022      25.859793      80.082841    
-807618.06      4.6999451      36.880596      25.875627      79.673204    
-807632.73      3.3679624      35.702307      25.875304      79.263723    
-807642.38      3.6811213      36.689722      25.850614      78.854635    
-807638.29      3.7051227      37.37052       25.854227      78.445658    
-807631.41      3.1949756      37.055931      25.864002      78.036733    
-807627.29      2.716929       35.643229      25.853732      77.628051    
-807615.49      3.0292838      37.36651       25.813228      77.219893    
-807608.49      2.9960397      37.029192      25.845472      76.811569    
-807610.52      3.1484761      37.022385      25.869021      76.403166    
-807623.5       3.1785413      35.369318      25.870227      75.994892    
-807633.36      3.4152934      36.253756      25.849541      75.586946    
-807638.76      4.1301235      36.99527       25.91045       75.178588    
-807637.48      3.2516616      36.881816      25.925646      74.770237    
-807633.36      3.8780163      37.184015      25.840556      74.362783    
-807625.78      3.6124907      37.296366      25.814852      73.955686    
-807610.69      4.0879716      38.706257      25.777013      73.549044    
-807607.08      3.1478061      38.581134      25.851319      73.141876    
-807612.11      3.9210927      38.186652      25.882736      72.734568    
-807623.34      3.7970316      37.033898      25.865922      72.327534    
-807629.84      4.3077997      38.063384      25.866763      71.92062     
-807636.71      4.0402762      37.021332      25.864932      71.513848    
-807638.19      3.8196301      37.232506      25.885623      71.10703     
-807631.55      3.3184946      37.62856       25.863895      70.700517    
-807621.51      3.5205768      37.609413      25.860171      70.294157    
-807610.45      3.6112464      38.436107      25.912335      69.887499    
-807610.47      3.1966664      38.267045      25.936509      69.480776    
-807611.88      3.4826646      38.451059      25.932417      69.074215    
-807623.14      3.3029705      37.056191      25.90843       68.667968    
-807630.89      3.3446125      36.462126      25.855222      68.262258    
-807637.43      2.9693512      36.819307      25.828334      67.85687     
-807635.89      3.9462298      36.868316      25.832938      67.451557    
-807630.86      3.4437708      36.330964      25.816426      67.046478    
-807621.58      3.0519738      36.418247      25.840481      66.641326    
-807614.31      3.6152461      37.261307      25.842267      66.236269    
-807609.72      3.6421486      38.349598      25.877254      65.831062    
-807615.3       3.5874354      36.723059      25.855404      65.426127    
-807622.53      3.941142       37.016263      25.849816      65.021339    
-807632.02      3.19615        36.347376      25.819522      64.616875    
-807637.86      3.2888201      36.454809      25.875051      64.212118    
-807636.22      2.8110014      36.147825      25.888652      63.807373    
-807627.84      3.8923989      36.070201      25.859705      63.402937    
-807623.53      3.118204       35.585679      25.867362      62.998553    
-807616.85      2.9586796      35.808694      25.867941      62.594269    
-807610.82      3.3250755      37.702702      25.842001      62.190263    
-807615.86      3.4741073      37.038823      25.855525      61.786265    
-807629.05      3.4822812      36.087532      25.840131      61.382469    
-807635.28      3.6438267      35.92367       25.862876      60.97862     
-807636.84      3.0143537      36.251272      25.852444      60.574938    
-807634.91      3.5206905      36.743923      25.861461      60.171295    
-807630.19      3.2752008      35.924152      25.845584      59.76785     
-807620.31      3.5686445      36.86832       25.862787      59.36439     
-807613.03      3.3256437      36.694117      25.807882      58.961371    
-807610.47      3.2252556      37.296578      25.859195      58.55812     
-807620.08      4.7462246      36.976456      25.857365      58.154975    
-807631.94      3.0620865      35.269213      25.837086      57.752045    
-807633.65      3.638383       35.881426      25.866787      57.349025    
-807638.96      3.1525518      35.079142      25.892472      56.945943    
-807635.27      3.2867653      36.337149      25.904703      56.542884    
-807630.82      3.0872725      35.040829      25.89568       56.139972    
-807616.51      3.0375145      35.916625      25.898771      55.737135    
-807612.72      3.3182845      36.580248      25.823694      55.334823    
-807615.38      3.3542884      36.466026      25.792002      54.932775    
-807621.9       3.6313219      36.745308      25.815793      54.530672    
-807627.7       4.2659593      35.877367      25.837823      54.128526    
-807635.88      3.0529662      35.392064      25.876146      53.726251    
-807636.83      3.245186       36.295587      25.865848      53.324119    
-807636.03      3.3556436      35.882896      25.899886      52.921887    
-807624.83      2.7601248      35.322255      25.918626      52.519643    
-807619.91      3.5991935      36.38978       25.796546      52.118136    
-807614.57      2.9414954      36.066784      25.805524      51.716657    
-807615.1       3.4497438      37.094062      25.85475       51.314996    
-807619.71      2.9771002      35.457896      25.806203      50.913666    
-807628.37      3.4493244      36.269409      25.762765      50.512632    
-807635.01      3.4124201      36.284424      25.799042      50.111484    
-807637.28      3.5403324      35.791547      25.780299      49.710501    
-807631.5       3.0535819      36.188672      25.847254      49.309257    
-807624.31      3.1209862      36.335233      25.841227      48.908118    
-807618.49      3.5131319      37.177608      25.834965      48.507085    
-807615.68      3.9241295      37.215351      25.854008      48.106034    
-807611.32      3.1284666      38.398664      25.845061      47.7051      
-807620.79      4.0550583      37.202675      25.868675      47.30413     
-807631.15      3.8092479      36.831883      25.773616      46.903676    
-807634.75      3.8334088      36.412269      25.898392      46.502715    
-807633.62      3.5245872      36.811368      25.913137      46.101766    
-807630.15      3.4476404      37.166033      25.905481      45.700928    
-807625.12      3.0757747      36.734817      25.872125      45.300315    
-807616.1       3.9341777      37.007424      25.832355      44.899948    
-807612.04      4.0705596      37.486365      25.894008      44.499383    
-807614.77      3.0462868      36.2167        25.923487      44.098767    
-807626.98      2.7275971      35.23986       25.935644      43.698176    
-807627.72      3.2287865      36.258719      25.89849       43.297817    
-807635.8       2.6858229      35.008448      25.843088      42.897758    
-807633.37      4.1071418      36.554763      25.863465      42.497682    
-807631.56      3.2263083      36.453673      25.830859      42.097806    
-807620.88      3.4959121      36.954924      25.892256      41.697751    
-807613.99      4.0200952      36.652424      25.817501      41.298059    
-807612.77      3.6849497      37.640591      25.81119       40.898454    
-807617.18      3.6211077      37.535247      25.834112      40.498822    
-807622.33      4.0792253      36.968875      25.840742      40.099228    
-807628.54      4.625067       36.935974      25.881628      39.699544    
-807635.17      4.4322921      37.445514      25.856034      39.300021    
-807634.11      3.8371345      37.436689      25.856109      38.900561    
-807628.48      3.6931405      36.881681      25.846051      38.5012      
-807620.25      3.6565288      36.733706      25.880575      38.101779    
-807616.61      3.2091784      37.208583      25.913775      37.702305    
-807614.36      2.9234846      36.591476      25.900312      37.302945    
-807616.93      3.2168536      36.339909      25.888642      36.90369     
-807621.45      4.2236692      36.752468      25.822837      36.504721    
-807631.31      3.1997326      36.962223      25.914779      36.105503    
-807631.77      3.334539       37.195902      25.867483      35.706505    
-807634.99      3.9067589      35.879299      25.843732      35.307644    
-807624.74      4.0325182      38.011077      25.846895      34.908831    
-807623.84      4.0829613      37.75511       25.895689      34.509922    
-807617.71      4.4993571      36.825447      25.874097      34.111142    
-807615.16      2.9714162      37.388454      25.868403      33.712439    
-807617.45      4.670495       37.068861      25.821611      33.313935    
-807626.29      3.1716202      36.301899      25.848359      32.915405    
-807632         3.6754428      35.619018      25.797489      32.517081    
-807633.9       3.2044342      35.691533      25.842924      32.118676    
-807631.11      3.7482077      36.092183      25.809659      31.720421    
-807630.52      3.7406868      36.250473      25.760942      31.322354    
-807623.5       3.3333306      36.277714      25.831557      30.924138    
-807615.64      3.8694955      37.276445      25.853447      30.525915    
-807615.87      3.571591       37.443139      25.886311      30.127658    
-807621.01      3.4914719      36.743889      25.854908      29.729539    
-807626.65      3.2195588      36.592912      25.858774      29.331464    
-807632.8       3.2179062      35.850335      25.892738      28.933356    
-807635.81      3.5683594      36.182256      25.872965      28.535353    
-807633.78      2.8425153      35.900896      25.860572      28.137434    
-807628.39      3.1210868      35.776282      25.865202      27.739556    
-807620.45      3.5865711      36.273104      25.853069      27.341759    
-807618.46      3.4062451      36.442833      25.854086      26.944011    
-807615.86      2.9376675      35.94309       25.857574      26.546305    
-807622.48      2.914102       35.512089      25.784003      26.148818    
-807625.24      4.0885596      36.307473      25.840592      25.751248    
-807634.61      3.3094939      35.441947      25.827601      25.353755    
-807632.76      3.6352121      36.862564      25.834125      24.956295    
-807633.24      3.1369393      35.91008       25.85911       24.55883     
-807624.36      3.2167922      36.764084      25.872264      24.161387    
-807620.98      3.0874499      35.97612       25.869221      23.763999    
-807619.52      3.3455642      35.757602      25.849918      23.366699    
-807618.54      3.1078998      36.243307      25.894733      22.969359    
-807619.63      3.8707814      36.742471      25.898255      22.572062    
-807627.19      3.5692773      36.067628      25.91391       22.174786    
-807632.6       3.242941       35.694281      25.855417      21.777669    
-807632.42      3.693027       36.322219      25.829712      21.380645    
-807629.05      3.2402411      36.110681      25.806267      20.983707    
-807624.39      2.9963698      36.063814      25.850991      20.586733    
-807621.93      3.6082815      36.335015      25.816169      20.189864    
-807616.34      3.2568936      37.030563      25.848947      19.792982    
-807616.31      3.7254504      36.951301      25.86938       19.396112    
-807621.56      3.5223568      36.591686      25.857387      18.999307    
-807629.42      3.4679631      36.245022      25.84912       18.602558    
-807629.63      3.7539091      36.332846      25.851173      18.20585     
-807629.1       2.9943691      36.854365      25.895187      17.809121    
-807627.65      3.8073112      36.358005      25.884799      17.412452    
-807625.26      3.8178726      37.085995      25.855412      17.015871    
-807617.09      3.8540601      37.493451      25.835864      16.619359    
-807614.86      2.9389414      37.303695      25.860185      16.222856    
-807618.56      3.1702787      36.156782      25.820228      15.826447    
-807624.48      2.9077641      36.800066      25.85897       15.430029    
-807627.1       3.378559       36.222997      25.871343      15.033637    
-807630.94      3.1374211      35.663274      25.858732      14.637304    
-807630.5       3.2484476      36.804719      25.849465      14.241022    
-807629.6       2.6127108      36.293551      25.881659      13.844745    
-807620.63      3.5216077      36.796792      25.837771      13.448558    
-807618.32      3.4573116      36.591784      25.851575      13.052396    
-807616.99      4.7099081      37.018883      25.837599      12.656288    
-807619.65      4.6623522      37.067244      25.869646      12.260187    
-807622.63      3.5214094      36.117595      25.899801      11.864098    
-807626.72      3.4596004      36.527208      25.912597      11.46804     
-807632.3       4.4286281      36.414551      25.838447      11.07209     
-807632.13      3.5036512      36.192943      25.90833       10.676118    
-807626.56      3.2533175      36.792317      25.861735      10.280227    
-807622.13      3.6306107      36.844773      25.865146      9.8843721    
-807619.18      3.0501166      37.932008      25.854628      9.4885638    
-807619.34      3.3236458      37.802182      25.864286      9.0927864    
-807619.83      3.2821011      36.955462      25.851509      8.697056     
-807623.12      3.8373381      36.573178      25.907496      8.3013261    
-807630.93      3.2764621      35.934266      25.851342      7.9056718    
-807633.49      3.2813313      35.879291      25.834652      7.510064     
-807629.85      3.1343254      36.161818      25.783497      7.1145203    
-807625.56      4.6885859      36.039125      25.77375       6.7190137    
-807625.43      3.4352665      36.419293      25.846596      6.323502     
-807619.58      3.6184936      36.823025      25.822869      5.9280367    
-807618.02      4.5898225      36.869468      25.84493       5.5325958    
-807620.23      3.8476935      36.059994      25.890144      5.1371718    
-807629.43      4.0383721      35.410602      25.926359      4.7417721    
-807631.34      2.9399024      35.375423      25.908255      4.3464182    
-807629.41      3.7379197      36.606211      25.863366      3.9511161    
-807628.78      3.0267783      36.255236      25.848107      3.5558536    
-807627.42      3.1020091      35.855707      25.886395      3.1606158    
-807622.88      3.2397383      36.436298      25.86174       2.7654195    
-807618.19      3.2689286      36.843884      25.883573      2.3702537    
-807618.97      3.1182764      36.875618      25.900494      1.975121     
-807624.51      3.2360575      36.061389      25.918301      1.5800226    
-807628.39      2.5540715      35.549961      25.858508      1.184967     
-807628.2       4.0546667      35.891231      25.77511       0.78994979   
-807629.54      2.9926765      35.512953      25.846838      0.3949587    
-807629.63      3.4667835      36.078977      25.889536      0            
Loop time of 197.471 on 32 procs for 5000 steps with 1080 atoms

Performance: 4.375 ns/day, 5.485 hours/ns, 25.320 timesteps/s, 27.346 katom-step/s
67.7% CPU use with 32 MPI tasks x 1 OpenMP threads

MPI task timing breakdown:
Section |  min time  |  avg time  |  max time  |%varavg| %total
---------------------------------------------------------------
Pair    | 100.6      | 144.29     | 193.42     | 313.7 | 73.07
Neigh   | 0          | 0          | 0          |   0.0 |  0.00
Comm    | 1.7311     | 50.862     | 94.555     | 528.4 | 25.76
Output  | 0.02695    | 0.027536   | 0.029198   |   0.2 |  0.01
Modify  | 1.9608     | 1.9724     | 1.9861     |   0.4 |  1.00
Other   |            | 0.3227     |            |       |  0.16

Nlocal:          33.75 ave          48 max          21 min
Histogram: 8 8 0 0 0 0 0 8 0 8
Nghost:        1106.25 ave        1119 max        1092 min
Histogram: 8 0 8 0 0 0 0 0 8 8
Neighs:              0 ave           0 max           0 min
Histogram: 32 0 0 0 0 0 0 0 0 0
FullNghs:       5494.5 ave        7896 max        3378 min
Histogram: 8 8 0 0 0 0 0 8 0 8

Total # of neighbors = 175824
Ave neighs/atom = 162.8
Neighbor list builds = 0
Dangerous builds = 0

reset_timestep 0


variable interval equal 1000
thermo 10

variable nintervals equal $(v_PERIOD/v_interval)
variable nintervals equal 100
variable efield equal 1e-2*36.36*cos((step/${PERIOD})*2*3.14)
variable efield equal 1e-2*36.36*cos((step/100000)*2*3.14)
fix born all addbornforce 0.0 0.0 v_efield

variable Px equal f_born[1]+c_polarization[1]
variable Py equal f_born[2]+c_polarization[2]
variable Pz equal (f_born[3]+c_polarization[3])/vol
variable pe equal pe

fix aveP all ave/time 1 $(v_interval/2) ${interval} v_efield v_Pz v_pe f_born file Pz.${MODEL}.${STRUCTURE}.${TEMP}.$L.${ITER}
fix aveP all ave/time 1 500 ${interval} v_efield v_Pz v_pe f_born file Pz.${MODEL}.${STRUCTURE}.${TEMP}.$L.${ITER}
fix aveP all ave/time 1 500 1000 v_efield v_Pz v_pe f_born file Pz.${MODEL}.${STRUCTURE}.${TEMP}.$L.${ITER}
fix aveP all ave/time 1 500 1000 v_efield v_Pz v_pe f_born file Pz.BaTiO3-E0.${STRUCTURE}.${TEMP}.$L.${ITER}
fix aveP all ave/time 1 500 1000 v_efield v_Pz v_pe f_born file Pz.BaTiO3-E0.BaTiO3-sc333.${TEMP}.$L.${ITER}
fix aveP all ave/time 1 500 1000 v_efield v_Pz v_pe f_born file Pz.BaTiO3-E0.BaTiO3-sc333.350.$L.${ITER}
fix aveP all ave/time 1 500 1000 v_efield v_Pz v_pe f_born file Pz.BaTiO3-E0.BaTiO3-sc333.350.2.${ITER}
fix aveP all ave/time 1 500 1000 v_efield v_Pz v_pe f_born file Pz.BaTiO3-E0.BaTiO3-sc333.350.2.3

thermo_style custom step time temp press pe f_born v_efield v_Pz spcpu cpuremain

# dump 4a all custom 1000 dump.hyst.${MODEL}.${STRUCTURE}.${TEMP}.$L.${ITER}.bin id type xu yu zu fx fy fz
# dump_modify 4a sort id

fix nvt all nvt temp ${TEMP} ${TEMP} $(100*dt)
fix nvt all nvt temp 350 ${TEMP} $(100*dt)
fix nvt all nvt temp 350 350 $(100*dt)
fix nvt all nvt temp 350 350 0.2000000000000000111

run $(v_PERIOD)
run 100000
WARNING: non-constant efield is experimental, strongly distrust scalar/vector output (src/fix_addbornforce.cpp:193)
Per MPI rank memory allocation (min/avg/max) = 3.516 | 3.516 | 3.516 Mbytes
   Step          Time           Temp          Press          PotEng         f_born        v_efield         v_Pz          S/CPU         CPULeft    
         0   0              342.19378      132192.15     -807629.63     -298.02749      0.3636         0.056050562    0              0            
        10   0.02           357.03386      134322.63     -807627.76     -301.98078      0.36359993     0.056794076    28.914952      3458.0955    
        20   0.04           349.99996      138623.59     -807621.18     -307.65754      0.36359971     0.057861747    29.018207      3451.5867    
        30   0.06           339.58267      140235.45     -807618.76     -308.59252      0.36359935     0.058037648    29.008536      3449.5686    
        40   0.08           354.87736      138471.5      -807623.52     -305.93975      0.36359885     0.057538816    28.991456      3448.8957    
        50   0.1            353.09799      135744.39     -807624.65     -304.53183      0.36359821     0.057274128    28.880885      3450.9937    
        60   0.12           346.48492      134616.33     -807624.9      -303.36065      0.36359742     0.057053984    28.948093      3450.9381    
        70   0.14           338.89499      132257.6      -807628.64     -298.48349      0.36359649     0.056136865    28.931966      3451.0746    
        80   0.16           350.91244      131027.85     -807631.82     -296.88894      0.36359541     0.055837137    28.91069       3451.4088    
        90   0.18           343.95419      133480.39     -807628.05     -299.72279      0.36359419     0.056370301    28.941431      3451.1835    
       100   0.2            356.44074      136578.99     -807623.84     -305.60043      0.36359283     0.057475951    28.968886      3450.6065    
       110   0.22           348.6333       138582.85     -807621.92     -306.33215      0.36359132     0.057613808    28.935043      3450.4388    
       120   0.24           351.29556      139131.86     -807622.03     -306.44974      0.36358968     0.057636185    28.880053      3450.7891    
       130   0.26           353.06702      138264.69     -807621.41     -307.22398      0.36358788     0.057782087    28.867273      3451.1497    
       140   0.28           347.54791      136500.57     -807621.45     -306.2748       0.36358595     0.057603874    28.908724      3451.0556    
       150   0.3            354.65756      133069.85     -807627.58     -300.84066      0.36358387     0.05658215     28.901675      3450.9838    
       160   0.32           342.84126      132591.53     -807629.21     -297.39474      0.36358165     0.055934383    28.895119      3450.9271    
       170   0.34           348.06315      133034.99     -807628.03     -299.0822       0.36357928     0.056252128    28.900392      3450.7989    
       180   0.36           356.85807      134007.39     -807625.57     -302.5787       0.36357677     0.056910152    28.947532      3450.3337    
       190   0.38           349.191        136781.81     -807623.16     -303.59475      0.36357412     0.057101671    28.964333      3449.7765    
       200   0.4            354.88673      138517.7      -807622.01     -305.24663      0.36357132     0.057412806    28.932447      3449.4297    
       210   0.42           356.4561       139582.43     -807619.21     -307.97322      0.36356838     0.05792611     28.979205      3448.8184    
       220   0.44           363.46605      138267.15     -807619.37     -308.45804      0.3635653      0.058017791    29.056574      3447.8145    
       230   0.46           363.67347      136217.71     -807624.55     -302.97644      0.36356207     0.056987264    28.969935      3447.3145    
       240   0.48           360.25449      134337.4      -807628.28     -298.44805      0.3635587      0.056136033    28.907282      3447.1383    
       250   0.5            355.77475      132727.23     -807626.66     -299.23601      0.36355519     0.056284788    28.974091      3446.6303    
       260   0.52           364.38468      132552.86     -807626.38     -300.49644      0.36355153     0.056522435    29.006628      3445.9865    
       270   0.54           360.91144      134035.63     -807627.16     -298.99359      0.36354773     0.056240342    28.981111      3445.4766    
       280   0.56           360.45328      137120.94     -807623.49     -302.4875       0.36354379     0.05689816     28.917102      3445.2508    
       290   0.58           362.77882      140405.63     -807617.6      -308.60179      0.3635397      0.058048916    28.852038      3445.2846    
       300   0.6            372.18852      140522.14     -807617.58     -309.86828      0.36353547     0.058287825    28.912641      3445.0517    
       310   0.62           358.85144      139127.37     -807619.8      -305.68159      0.3635311      0.057500978    28.836221      3445.1063    
       320   0.64           371.73824      136790.75     -807625.83     -301.42821      0.36352658     0.05670159     28.781942      3445.3394    
       330   0.66           368.57799      133645.28     -807625.99     -300.91047      0.36352192     0.056604924    28.909389      3445.0749    
       340   0.68           356.6768       132837.7      -807625.66     -299.68541      0.36351712     0.05637522     28.935236      3444.715     
       350   0.7            353.56729      132541.87     -807628.01     -296.9911       0.36351217     0.05586914     28.974912      3444.2211    
       360   0.72           361.09021      134003.25     -807626.61     -299.54184      0.36350708     0.056349768    28.974584      3443.7366    
       370   0.74           353.55284      138364.3      -807619.47     -305.93625      0.36350185     0.057553513    28.983188      3443.2321    
       380   0.76           374.42138      140516.15     -807619.62     -308.91871      0.36349647     0.05811544     28.993576      3442.7035    
       390   0.78           362.29662      139758.57     -807620.45     -306.60583      0.36349095     0.057681205    28.987025      3442.2042    
       400   0.8            355.80871      138139.3      -807621.88     -304.53142      0.36348529     0.057291843    28.98868       3441.7078    
       410   0.82           358.89084      136065.82     -807622.7      -304.54         0.36347948     0.057294371    28.962094      3441.2957    
       420   0.84           350.53766      133943.44     -807624.97     -301.4549       0.36347353     0.056714887    28.891615      3441.0863    
       430   0.86           353.00705      131515.54     -807630.41     -296.6397       0.36346744     0.055809905    28.915689      3440.8042    
       440   0.88           354.76642      132039.78     -807630.08     -297.49281      0.3634612      0.055971371    28.990477      3440.317     
       450   0.9            351.6366       135524.12     -807624.42     -303.09148      0.36345482     0.057025725    28.963085      3439.9084    
       460   0.92           357.99922      137580.35     -807621.99     -306.68776      0.3634483      0.05770339     28.957526      3439.5169    
       470   0.94           357.43914      139681.63     -807622.75     -305.92803      0.36344163     0.057561502    28.945671      3439.1574    
       480   0.96           351.17195      137959.95     -807622.78     -305.23698      0.36343482     0.057432555    28.932546      3438.8308    
       490   0.98           345.70885      138681.24     -807620.67     -306.70856      0.36342786     0.057710547    28.94889       3438.4638    
       500   1              345.41088      134733.19     -807624.89     -302.5572       0.36342077     0.056930536    28.941383      3438.1157    
       510   1.02           345.93237      132857.32     -807628.62     -9563.1857      0.36341353     0.056234008    28.810807      3438.073     
       520   1.04           345.18988      132026.71     -807630.86     -9490.139       0.36340614     0.055805608    28.833109      3437.9673    
       530   1.06           336.91934      133572.91     -807624.62     -9655.6098      0.36339862     0.056779815    28.842617      3437.8311    
       540   1.08           364.55697      134377.91     -807626.74     -9713.8671      0.36339095     0.057123603    28.850893      3437.6686    
       550   1.1            336.82125      136930.7      -807622.08     -9738.5413      0.36338313     0.057269934    28.881253      3437.4337    
       560   1.12           357.44675      137307.75     -807623.03     -9800.4517      0.36337518     0.057635276    28.810523      3437.3457    
       570   1.14           354.16897      138086.61     -807620.71     -9861.541       0.36336707     0.057995828    28.894332      3437.073     
       580   1.16           350.23845      137773.45     -807622.65     -9782.8701      0.36335883     0.057534468    28.844534      3436.9002    
       590   1.18           349.96657      133929.11     -807628.28     -9600.3833      0.36335044     0.056462541    28.724328      3436.9659    
       600   1.2            335.46397      134244.68     -807627.62     -9556.97        0.36334191     0.056208535    28.808279      3436.8499    
       610   1.22           350.84121      132488.43     -807628.89     -9584.9189      0.36333324     0.056374259    28.809468      3436.7238    
       620   1.24           351.04493      134302.84     -807626.74     -9654.9551      0.36332442     0.056787559    28.829666      3436.5516    
       630   1.26           346.43163      135300.64     -807626.12     -9653.0657      0.36331546     0.056777847    28.914918      3436.2126    
       640   1.28           358.25524      138007.13     -807624.29     -9762.3189      0.36330636     0.057421896    28.949815      3435.8087    
       650   1.3            356.34828      137156.21     -807621.61     -9840.4043      0.36329711     0.057882667    28.918691      3435.4634    
       660   1.32           348.79144      139083.64     -807620.55     -9838.8621      0.36328772     0.057875092    28.849817      3435.2423    
       670   1.34           351.86906      134561.01     -807626.23     -9669.564       0.36327819     0.056880723    28.865713      3434.9892    
       680   1.36           339.27494      135188.06     -807625.6      -9629.351       0.36326851     0.056645681    28.877875      3434.712     
       690   1.38           344.03937      132167.75     -807628.32     -9565.6909      0.36325869     0.056272714    28.874416      3434.4389    
       700   1.4            347.5248       133798.57     -807627.12     -9614.4285      0.36324873     0.056560978    28.870165      3434.1708    
       710   1.42           349.53748      132675.97     -807628.55     -9577.4086      0.36323863     0.05634476     28.893201      3433.8619    
       720   1.44           356.7073       136054.45     -807626.01     -9686.562       0.36322838     0.056988527    28.896618      3433.5464    
       730   1.46           343.75765      136710.36     -807620.62     -9802.1838      0.36321798     0.05767041     28.881119      3433.2552    
       740   1.48           353.17567      139449.23     -807620.04     -9859.3213      0.36320745     0.058008257    28.937382      3432.8722    
       750   1.5            338.5985       137853.31     -807620.99     -9761.42        0.36319677     0.057433934    28.932587      3432.4979    
       760   1.52           363.32486      136928.48     -807625.62     -9718.4764      0.36318595     0.057182968    28.853736      3432.2476    
       770   1.54           340.04012      133796.38     -807625.12     -9629.1557      0.36317498     0.05665912     28.876891      3431.9591    
       780   1.56           362.71549      133049.18     -807629.17     -9593.2761      0.36316387     0.056449727    28.881014      3431.6627    
       790   1.58           351.26184      131864.01     -807629.61     -9524.504       0.36315262     0.056046788    28.912553      3431.3176    
       800   1.6            355.69228      134221.78     -807627.52     -9606.9333      0.36314122     0.056533616    28.897878      3430.9944    
       810   1.62           346.45122      136157.14     -807621.91     -9741.1883      0.36312968     0.057325484    28.855544      3430.7327    
       820   1.64           360.36512      138585.77     -807621        -9828.5876      0.363118       0.057841677    28.818363      3430.5231    
       830   1.66           356.29683      138942.85     -807620.99     -9802.7332      0.36310618     0.057691401    28.898671      3430.1949    
       840   1.68           354.67929      138058.65     -807622.7      -9734.5658      0.36309421     0.057292108    28.862937      3429.9168    
       850   1.7            360.03956      135833.18     -807624.18     -9706.2538      0.3630821      0.057127385    28.865614      3429.6334    
       860   1.72           360.69729      132762.59     -807627.08     -9608.468       0.36306984     0.056553764    28.930827      3429.2585    
       870   1.74           359.71161      132514.86     -807629.56     -9516.9295      0.36305745     0.056016896    28.93264       3428.8818    
       880   1.76           346.07833      132358.22     -807628.07     -9499.2432      0.3630449      0.055914726    28.902941      3428.5458    
       890   1.78           351.7256       136763.15     -807622.38     -9700.68        0.36303222     0.057102424    28.865992      3428.259     
       900   1.8            355.46221      136493.38     -807620.7      -9768.3563      0.36301939     0.057502828    28.918317      3427.9017    
       910   1.82           360.54074      139859.47     -807619.4      -9821.8525      0.36300642     0.057819807    28.937739      3427.5194    
       920   1.84           364.68059      137504.23     -807621.52     -9771.2837      0.36299331     0.057524194    28.902218      3427.1837    
       930   1.86           357.26142      139440.41     -807618.63     -9823.8993      0.36298005     0.057836058    28.905292      3426.8439    
       940   1.88           359.20711      134888.67     -807624.08     -9654.7368      0.36296665     0.056842249    28.934384      3426.4673    
       950   1.9            362.80368      133884.03     -807627.6      -9551.6558      0.36295311     0.056237458    28.934963      3426.0905    
       960   1.92           353.90359      131409.5      -807628.63     -9479.6819      0.36293942     0.055815801    28.911429      3425.7435    
       970   1.94           368.61671      133633.57     -807626.39     -9614.0816      0.36292559     0.056609295    28.869138      3425.4482    
       980   1.96           366.7386       135101.34     -807624.28     -9675.5248      0.36291162     0.056973276    28.91415       3425.0974    
       990   1.98           352.88067      138839.61     -807619.47     -9764.5783      0.3628975      0.057499895    28.885743      3424.7807    
      1000   2              367.98554      138364.13     -807621.46     -9769.4749      0.36288325     0.057530989    28.883394      3424.4662    
      1010   2.02           358.65069      140304.18     -807618.81     -306.79533      0.36286884     0.057815806    28.962981      3424.0579    
      1020   2.04           348.1847       138676.6      -807619.55     -304.74732      0.3628543      0.057432159    28.956632      3423.6581    
      1030   2.06           351.29624      134527.19     -807624.96     -299.87791      0.36283961     0.056516766    28.96771       3423.2466    
      1040   2.08           359.39456      133872.7      -807628.65     -297.4667       0.36282478     0.056064627    28.928667      3422.8808    
      1050   2.1            363.57569      132401.99     -807629.09     -297.98252      0.3628098      0.056164163    28.956749      3422.4838    
      1060   2.12           348.82585      135847.33     -807623.87     -301.44371      0.36279469     0.056818901    28.956761      3422.0877    
      1070   2.14           357.39308      135041.82     -807625.68     -301.20545      0.36277943     0.056776378    28.984962      3421.6615    
      1080   2.16           359.05033      139315.29     -807622.84     -304.64223      0.36276402     0.057426641    28.964077      3421.2596    
      1090   2.18           349.64449      137845.33     -807620.33     -306.3677       0.36274848     0.057754376    28.957827      3420.8655    
      1100   2.2            355.15546      139402.5      -807620        -307.74712      0.36273279     0.058016924    28.955753      3420.4746    
      1110   2.22           342.57015      134949.13     -807624.56     -301.778        0.36271695     0.056894102    28.970746      3420.0685    
      1120   2.24           347.60696      135247.73     -807626.94     -300.23658      0.36270098     0.05660599     28.930777      3419.7056    
      1130   2.26           342.73235      131541.21     -807628.82     -298.06277      0.36268486     0.056198642    28.933279      3419.3404    
      1140   2.28           343.4219       134383.57     -807626.62     -300.41466      0.3626686      0.056644622    28.917829      3418.9915    
      1150   2.3            339.90675      132117.68     -807628.49     -298.26392      0.36265219     0.056241634    28.928398      3418.6319    
      1160   2.32           336.19824      137475.93     -807623.66     -302.58598      0.36263564     0.057059221    28.940367      3418.2603    
      1170   2.34           341.80303      136194.04     -807622.41     -304.83636      0.36261895     0.057486223    28.905103      3417.9248    
      1180   2.36           351.0585       139510.85     -807620.88     -307.63617      0.36260212     0.058016908    28.954395      3417.5397    
      1190   2.38           342.93465      136045.03     -807623.8      -303.71805      0.36258514     0.057280673    28.983612      3417.1264    
      1200   2.4            338.32025      136816.82     -807624.74     -302.09969      0.36256802     0.056978143    28.949501      3416.7478    
      1210   2.42           337.36029      133584.68     -807626.16     -300.62207      0.36255076     0.056702154    28.946364      3416.3727    
      1220   2.44           347.33095      133212.89     -807628        -300.17425      0.36253335     0.056620407    28.958787      3415.9861    
      1230   2.46           345.66256      132477.24     -807629.1      -298.77917      0.3625158      0.056359987    28.995785      3415.5648    
      1240   2.48           341.39277      134060.74     -807627.72     -299.58851      0.36249811     0.056515415    28.924997      3415.212     
      1250   2.5            338.18635      137006.16     -807622.98     -303.85204      0.36248028     0.057322523    28.938794      3414.8463    
      1260   2.52           344.88061      137556.31     -807621.72     -306.04348      0.3624623      0.057738807    28.97597       3414.4461    
      1270   2.54           348.96965      138843.97     -807622.63     -305.55011      0.36244418     0.05764861     29.003515      3414.0214    
      1280   2.56           340.08646      137962.42     -807623.07     -303.77543      0.36242592     0.057316665    28.954496      3413.6428    
      1290   2.58           349.52167      136693.23     -807624.98     -303.06507      0.36240751     0.057185538    28.924893      3413.2919    
      1300   2.6            345.17252      133353.01     -807626.93     -300.43019      0.36238896     0.056691262    28.905927      3412.9582    
      1310   2.62           348.80989      132811.65     -807629.49     -298.19031      0.36237027     0.0562715      28.922626      3412.6093    
      1320   2.64           353.25484      131228.12     -807631.46     -296.72561      0.36235143     0.055998006    28.949087      3412.2369    
      1330   2.66           344.62841      134612.31     -807625.87     -300.93408      0.36233245     0.056795203    28.944101      3411.8692    
      1340   2.68           341.75067      135273.3      -807622.7      -303.61706      0.36231333     0.057304585    28.997726      3411.4549    
      1350   2.7            345.78826      139062.43     -807622.01     -304.56569      0.36229407     0.057486686    28.968228      3411.0672    
      1360   2.72           348.59192      137876.99     -807622.57     -304.30596      0.36227466     0.057440739    28.990105      3410.6613    
      1370   2.74           346.38408      139231.39     -807620.74     -305.54666      0.36225511     0.057678046    29.041373      3410.2124    
      1380   2.76           344.537        136108.31     -807624.22     -301.63734      0.36223542     0.056943179    29.0439        3409.7629    
      1390   2.78           342.92605      135708.56     -807625.88     -299.40838      0.36221558     0.056525491    29.031333      3409.3255    
      1400   2.8            356.07996      131342.73     -807631.05     -295.87725      0.3621956      0.055861928    28.981092      3408.9314    
      1410   2.82           356.94207      134354.26     -807627.84     -298.87769      0.36217548     0.056431548    28.989671      3408.531     
      1420   2.84           354.46949      133150.69     -807626.07     -300.10397      0.36215522     0.056666256    28.982148      3408.1375    
      1430   2.86           357.79307      138554.3      -807623.41     -302.90485      0.36213481     0.057198346    28.957869      3407.7646    
      1440   2.88           361.1183       136891.64     -807623.14     -303.45749      0.36211426     0.057305954    28.950129      3407.3985    
      1450   2.9            358.96461      140409.61     -807619.2      -306.78023      0.36209357     0.057936742    28.964741      3407.0207    
      1460   2.92           351.53986      136224.77     -807620.65     -304.27518      0.36207273     0.057466961    28.957301      3406.6495    
      1470   2.94           351.4004       137839.37     -807622.56     -301.96727      0.36205176     0.057034382    28.935357      3406.2961    
      1480   2.96           355.78154      132648.91     -807628.2      -296.8169       0.36203064     0.05606487     28.932953      3405.9447    
      1490   2.98           348.54515      133426.02     -807624.93     -298.76987      0.36200937     0.056437076    28.891217      3405.6265    
      1500   3              366.30981      132906.01     -807628.11     -297.94961      0.36198796     0.056285458    28.937708      3405.2713    
      1510   3.02           359.67667      136061        -807625.27     -9588.0537      0.36196642     0.056605642    28.909709      3404.9381    
      1520   3.04           365.13215      137478.22     -807624.08     -9647.7724      0.36194472     0.056961621    28.894196      3404.6167    
      1530   3.06           363.06742      139265.54     -807619.68     -9777.0001      0.36192289     0.05772808     28.928657      3404.2685    
      1540   3.08           354.84687      139953.6      -807618.48     -9778.0205      0.36190091     0.05773761     28.937672      3403.9135    
      1550   3.1            362.20424      137559.72     -807623.04     -9663.5486      0.36187879     0.057065161    28.913778      3403.5767    
      1560   3.12           361.11311      136282.52     -807624.15     -9620.1999      0.36185653     0.056812673    28.86517       3403.2765    
      1570   3.14           370.85303      132680.36     -807628.17     -9539.0359      0.36183412     0.056336842    28.879784      3402.9648    
      1580   3.16           357.72663      134692.22     -807626.1      -9547.8981      0.36181157     0.056392696    28.890995      3402.6443    
      1590   3.18           358.07964      132908.59     -807627.44     -9513.0557      0.36178888     0.056190431    28.878956      3402.3323    
      1600   3.2            351.73311      136580.08     -807623.86     -9606.8686      0.36176605     0.056748134    28.870292      3402.0269    
      1610   3.22           349.58843      137367.3      -807621.73     -9679.8782      0.36174307     0.057183036    28.767056      3401.7958    
      1620   3.24           354.8304       139742.06     -807619.92     -9770.2855      0.36171995     0.057720798    28.834826      3401.5143    
      1630   3.26           352.23488      136947.28     -807622.97     -9678.9183      0.36169669     0.057184697    28.908279      3401.1787    
      1640   3.28           365.95895      137275.6      -807624.82     -9694.2082      0.36167329     0.057278739    28.93027       3400.8273    
      1650   3.3            359.62215      133842.3      -807626.86     -9620.177       0.36164974     0.056845023    28.934596      3400.4728    
      1660   3.32           354.56913      134730.54     -807627.5      -9586.6815      0.36162605     0.056650811    28.880395      3400.1569    
      1670   3.34           339.03752      131891.08     -807628.26     -9506.8642      0.36160222     0.056182847    28.898996      3399.8275    
      1680   3.36           346.05477      134283.96     -807627.91     -9558.7335      0.36157824     0.056493126    28.876609      3399.5136    
      1690   3.38           343.34758      135548.89     -807625.05     -9645.9923      0.36155413     0.057012637    28.868144      3399.2052    
      1700   3.4            345.42527      138206.32     -807622.92     -9728.4081      0.36152987     0.057503614    28.911011      3398.8666    
      1710   3.42           354.85094      137137.94     -807625.19     -9701.7374      0.36150546     0.057349837    28.938368      3398.5092    
      1720   3.44           350.58232      136780.83     -807624.37     -9713.2425      0.36148092     0.057421746    28.965298      3398.1336    
      1730   3.46           350.42463      135745.94     -807625.12     -9692.5761      0.36145623     0.057303486    28.923024      3397.787     
      1740   3.48           341.03975      135187.08     -807626.4      -9610.7441      0.3614314      0.05682359     28.917498      3397.4441    
      1750   3.5            328.25076      132566.49     -807627.57     -9516.2768      0.36140643     0.05626894     28.911991      3397.1049    
      1760   3.52           342.22952      131872.02     -807630.05     -9500.5259      0.36138131     0.05617971     28.893141      3396.7782    
      1770   3.54           350.40178      133406.78     -807628.12     -9597.548       0.36135605     0.056757401    28.879667      3396.4602    
      1780   3.56           344.47745      135264.86     -807625.81     -9645.8614      0.36133065     0.057047124    28.832288      3396.1734    
      1790   3.58           348.10224      136119.91     -807625.93     -9654.9425      0.36130511     0.057104867    28.866235      3395.8635    
      1800   3.6            344.77941      137596.16     -807623.67     -9710.1866      0.36127942     0.057435696    28.885971      3395.5402    
      1810   3.62           341.64129      136665.45     -807622.63     -9728.028       0.3612536      0.057545341    28.863686      3395.2312    
      1820   3.64           348.52323      136026.4      -807625.24     -9671.3962      0.36122763     0.057214454    28.933947      3394.8764    
      1830   3.66           333.50348      134265.92     -807626.79     -9550.5792      0.36120151     0.056503804    28.886764      3394.552     
      1840   3.68           345.04609      134254.63     -807628.97     -9525.3158      0.36117526     0.056358436    28.885779      3394.228     
      1850   3.7            345.1568       132556.43     -807628.02     -9553.3251      0.36114886     0.05652829     28.878246      3393.9085    
      1860   3.72           340.59387      133976.39     -807626.05     -9587.5982      0.36112232     0.056735258    28.930124      3393.556     
      1870   3.74           350.25484      134941.91     -807627.08     -9591.3498      0.36109564     0.056761652    28.928365      3393.2047    
      1880   3.76           348.62388      136809.53     -807623.6      -9686.1929      0.36106881     0.057327193    28.960511      3392.8334    
      1890   3.78           359.13108      136958.15     -807623.09     -9741.5019      0.36104184     0.057658843    28.94048       3392.4748    
      1900   3.8            351.93933      137053.01     -807623.8      -9679.8059      0.36101474     0.057297973    28.84963       3392.1724    
      1910   3.82           352.74187      135518.43     -807626.03     -9601.5873      0.36098748     0.056839262    28.854409      3391.8667    
      1920   3.84           350.41343      133927.9      -807626.65     -9564.8087      0.36096009     0.056625838    28.863424      3391.5551    
      1930   3.86           348.72463      133439.95     -807626.58     -9551.848       0.36093255     0.056553422    28.869483      3391.2393    
      1940   3.88           345.87183      133523.16     -807626.39     -9536.3544      0.36090487     0.05646602     28.88955       3390.9111    
      1950   3.9            349.11655      134006.2      -807626.53     -9540.8952      0.36087705     0.056497262    28.906604      3390.5725    
      1960   3.92           354.85282      136169.89     -807623.97     -9640.0071      0.36084909     0.057088586    28.923257      3390.2238    
      1970   3.94           360.50152      137118.31     -807622.42     -9709.6816      0.36082098     0.05750568     28.895998      3389.8914    
      1980   3.96           351.71307      137636.51     -807621.77     -9684.4459      0.36079273     0.057360712    28.880325      3389.5681    
      1990   3.98           365.18724      136613.39     -807624.75     -9642.4997      0.36076434     0.057116761    28.854234      3389.26      
      2000   4              361.38409      135302.01     -807625.8      -9588.5547      0.36073581     0.056801713    28.845427      3388.9567    
      2010   4.02           344.60078      134286.68     -807624.03     -298.90711      0.36070713     0.056666845    28.957963      3388.5873    
      2020   4.04           367.72963      133301.05     -807629.18     -296.83064      0.36067831     0.056277684    28.900991      3388.2512    
      2030   4.06           344.62269      133625.09     -807625.96     -296.83033      0.36064935     0.056282143    28.854589      3387.9418    
      2040   4.08           348.58482      135004.9      -807623.84     -299.3789       0.36062025     0.05676996     28.872463      3387.6218    
      2050   4.1            356.61906      136248.47     -807622.96     -301.34955      0.36059101     0.05714828     28.931135      3387.2679    
      2060   4.12           350.20275      137497.48     -807621.91     -301.51082      0.36056162     0.057183525    28.930861      3386.9143    
      2070   4.14           347.54823      137700.1      -807621.28     -301.67619      0.36053209     0.057219573    28.965813      3386.541     
      2080   4.16           358.0177       136866.66     -807623.23     -301.23205      0.36050242     0.057140035    28.988174      3386.1554    
      2090   4.18           359.5371       135676.28     -807624.68     -300.0145       0.36047261     0.056913788    28.960575      3385.7857    
      2100   4.2            356.52843      133855.58     -807626.39     -297.86534      0.36044265     0.056510781    28.94825       3385.423     
      2110   4.22           367.97776      133115.42     -807630.12     -295.74436      0.36041256     0.056113075    28.912733      3385.0801    
      2120   4.24           351.53827      133227.88     -807625.93     -297.69536      0.36038232     0.056487988    28.950709      3384.7164    
      2130   4.26           352.19284      135285.91     -807624.33     -299.59163      0.36035193     0.056852601    28.968697      3384.3429    
      2140   4.28           361.67523      136486.02     -807625.25     -300.1185       0.36032141     0.056957407    28.916435      3383.9982    
      2150   4.3            348.00827      137285.23     -807622.31     -301.2856       0.36029075     0.057183771    28.887399      3383.6693    
      2160   4.32           356.45861      136525.21     -807623.15     -301.89628      0.36025994     0.057304577    28.953033      3383.3047    
      2170   4.34           350.8339       137093.36     -807622.86     -301.61669      0.36022899     0.057256425    28.965087      3382.9338    
      2180   4.36           353.35426      134475.06     -807626.85     -298.34338      0.36019789     0.056639936    28.9401        3382.5765    
      2190   4.38           350.59476      133091.12     -807628.35     -296.81676      0.36016666     0.056354997    28.966493      3382.2053    
      2200   4.4            338.73684      133065.43     -807627.18     -296.76993      0.36013528     0.056351015    28.933304      3381.8519    
      2210   4.42           331.35971      134939.39     -807625.38     -297.94489      0.36010377     0.056579068    28.917311      3381.5071    
      2220   4.44           346.20658      134762.57     -807627.57     -298.24273      0.36007211     0.056640607    28.985645      3381.1263    
      2230   4.46           338.96681      135960.56     -807624.98     -300.09989      0.3600403      0.056998343    28.981591      3380.7479    
      2240   4.48           342.0689       136665.88     -807624.1      -301.70658      0.36000836     0.057308588    29.012721      3380.3537    
      2250   4.5            339.60522      136635.15     -807623.89     -301.76333      0.35997627     0.057324477    28.990575      3379.9714    
      2260   4.52           343.77304      135839.71     -807626.42     -299.93385      0.35994404     0.056982042    28.952184      3379.6092    
      2270   4.54           341.3498       134146.89     -807628.24     -297.90827      0.35991167     0.056602309    28.889054      3379.2796    
      2280   4.56           325.56532      133937.04     -807626.15     -297.87326      0.35987916     0.056600769    28.893526      3378.9479    
      2290   4.58           332.89756      132889.52     -807628.69     -296.37567      0.35984651     0.056321313    28.88385       3378.6204    
      2300   4.6            329.54445      134262.26     -807626.95     -297.58605      0.35981371     0.056556481    28.898354      3378.2857    
      2310   4.62           342.14755      134320.65     -807628.21     -298.07013      0.35978077     0.056653667    28.948262      3377.9256    
      2320   4.64           344.56996      137109.24     -807625.49     -301.03906      0.35974769     0.057223227    28.948619      3377.5655    
      2330   4.66           338.16831      136285.33     -807624.01     -301.51791      0.35971447     0.057319543    28.942071      3377.2088    
      2340   4.68           334.60336      136970.86     -807623.18     -301.7109       0.35968111     0.057361551    28.938503      3376.854     
      2350   4.7            343.97606      134828.75     -807627.11     -299.00957      0.3596476      0.056853267    28.905793      3376.5154    
      2360   4.72           339.89993      135784.29     -807626.54     -298.83246      0.35961396     0.056824908    28.968878      3376.1457    
      2370   4.74           330.9248       132824.78     -807627.13     -296.88895      0.35958017     0.056460642    28.988244      3375.7667    
      2380   4.76           343.34843      134126.47     -807628.63     -296.82065      0.35954624     0.056452981    28.980335      3375.3918    
      2390   4.78           337.27172      132204.71     -807629.14     -295.36567      0.35951216     0.056181579    28.990557      3375.0122    
      2400   4.8            354.34634      134227.45     -807627.5      -299.12291      0.35947795     0.05690166     28.977461      3374.6392    
      2410   4.82           339.32822      135305.26     -807624.25     -300.14948      0.35944359     0.057102401    28.95914       3374.2753    
      2420   4.84           341.7988       138219.65     -807622.88     -301.56267      0.35940909     0.057376762    28.950527      3373.9157    
      2430   4.86           346.88496      135968.64     -807626.25     -298.74389      0.35937446     0.056845927    28.872329      3373.5937    
      2440   4.88           343.40176      136147.57     -807624.42     -299.78688      0.35933967     0.057049912    28.835575      3373.2893    
      2450   4.9            347.22336      133533.52     -807626.42     -298.14069      0.35930475     0.056742152    28.819858      3372.992     
      2460   4.92           341.69042      134797.58     -807626.71     -296.82455      0.35926969     0.05649718     28.844835      3372.6824    
      2470   4.94           344.95779      133120.48     -807628.17     -295.59197      0.35923448     0.056268084    28.869454      3372.3608    
      2480   4.96           343.10006      134647.04     -807626.06     -297.22935      0.35919913     0.056585341    28.867352      3372.04      
      2490   4.98           364.65313      134366.53     -807627.28     -298.85273      0.35916364     0.056900015    28.884171      3371.7111    
      2500   5              341.43886      137032.52     -807622.5      -300.18801      0.35912801     0.057159915    28.907041      3371.3714    
[...]
     98740   197.48         351.69611      135571.13     -807624.22     -9679.4516      0.36236891     0.057081761    30.233638      44.046408    
     98750   197.5          348.83851      135095        -807624.85     -9645.3         0.36238762     0.056877425    30.261191      43.696592    
     98760   197.52         349.68093      134860.42     -807627.11     -9577.6004      0.36240618     0.056475315    30.26579       43.346778    
     98770   197.54         360.79834      133890.03     -807627.35     -9618.4108      0.36242459     0.056713076    30.277041      42.996967    
     98780   197.56         342.34197      136188.71     -807622.8      -9682.6947      0.36244287     0.057089235    30.26421       42.647162    
     98790   197.58         361.66868      135331.83     -807625.85     -9672.8906      0.362461       0.057028577    30.273405      42.297359    
     98800   197.6          355.66268      137108.14     -807623.67     -9714.6789      0.36247899     0.057272106    30.253952      41.947563    
     98810   197.62         350.73952      136481.6      -807623.33     -9707.4254      0.36249683     0.057226527    30.260155      41.59777     
     98820   197.64         339.17024      137893.5      -807620.59     -9745.7914      0.36251453     0.057449894    30.22848       41.247985    
     98830   197.66         351.86064      134989.71     -807625.52     -9647.1186      0.36253209     0.056865478    30.227159      40.898204    
     98840   197.68         348.97149      134715.13     -807625.87     -9622.4937      0.36254951     0.056717601    30.283669      40.54842     
     98850   197.7          355.37272      133349.18     -807627.91     -9588.5144      0.36256678     0.056514625    30.326432      40.198634    
     98860   197.72         356.35777      135421.12     -807625.89     -9660.1758      0.36258391     0.056934307    30.262252      39.848861    
     98870   197.74         352.73076      135175.51     -807625.53     -9659.121       0.3626009      0.056925423    30.267191      39.49909     
     98880   197.76         349.40129      136354.23     -807625.7      -9640.1691      0.36261774     0.056811092    30.255442      39.149325    
     98890   197.78         347.97318      136358.59     -807623.72     -9700.7417      0.36263445     0.057165424    30.289896      38.79956     
     98900   197.8          344.45836      137110.34     -807622.27     -9735.6811      0.362651       0.057368698    30.334136      38.449793    
     98910   197.82         343.02249      135621.65     -807623.65     -9686.6696      0.36266742     0.057077308    30.32958       38.100031    
     98920   197.84         345.00079      135361.25     -807625.91     -9625.9542      0.36268369     0.056717007    30.317256      37.750274    
     98930   197.86         347.33407      135053.81     -807626.43     -9624.8458      0.36269982     0.056707954    30.336754      37.400519    
     98940   197.88         346.03011      134916.24     -807624.95     -9670.8264      0.36271581     0.056976353    30.3334        37.050769    
     98950   197.9          351.39647      133937.51     -807627.49     -9616.7298      0.36273165     0.056655164    30.351977      36.701021    
     98960   197.92         355.25516      135078.66     -807628        -9620.5511      0.36274735     0.056675224    30.330631      36.351279    
     98970   197.94         336.13091      136663.58     -807623.43     -9689.2608      0.36276291     0.057077549    30.279029      36.001546    
     98980   197.96         337.43648      137875.66     -807621.04     -9775.2946      0.36277832     0.05758191     30.290713      35.651817    
     98990   197.98         342.07967      136547.79     -807624.06     -9703.988       0.36279359     0.057159469    30.28006       35.302093    
     99000   198            347.06751      136343.97     -807626.09     -9663.0986      0.36280872     0.056916244    30.255567      34.952375    
     99010   198.02         339.62174      135869.26     -807624.87     -302.43057      0.3628237      0.057000355    30.379037      34.602648    
     99020   198.04         341.09534      135461.81     -807625.46     -302.15739      0.36283855     0.056946537    30.372696      34.252925    
     99030   198.06         353.4871       133454.64     -807629.8      -299.68481      0.36285324     0.056478251    30.36532       33.903208    
     99040   198.08         335.84707      133784.86     -807627.76     -299.35745      0.3628678      0.056414294    30.367935      33.553494    
     99050   198.1          351.99582      134527.89     -807627.29     -302.28269      0.36288221     0.056963297    30.400058      33.203781    
     99060   198.12         342.51957      135906        -807624.31     -304.10082      0.36289648     0.057303658    30.40579       32.854072    
     99070   198.14         347.08994      137085.49     -807624.83     -304.27714      0.36291061     0.057334652    30.427126      32.504365    
     99080   198.16         335.93332      137038.73     -807624.86     -302.83404      0.36292459     0.057060533    30.359629      32.154669    
     99090   198.18         342.24299      136080.32     -807625.24     -303.43363      0.36293843     0.057171328    30.310963      31.804982    
     99100   198.2          348.01673      133990.23     -807626.52     -303.0416       0.36295213     0.057095308    30.313485      31.455298    
     99110   198.22         340.40749      133684.14     -807628.23     -300.32177      0.36296568     0.05658076     30.305266      31.10562     
     99120   198.24         347.23174      133405.34     -807629.98     -299.57369      0.36297909     0.056437736    30.304593      30.755945    
     99130   198.26         339.70294      135527.92     -807625.96     -302.59975      0.36299236     0.057005742    30.272832      30.406277    
     99140   198.28         341.93551      135744.13     -807624.22     -304.69016      0.36300548     0.057397473    30.304798      30.056611    
     99150   198.3          340.23         136601.74     -807624.99     -303.59825      0.36301846     0.057189733    30.311496      29.706947    
     99160   198.32         340.17981      136553.85     -807625.05     -303.40884      0.3630313      0.057152033    30.3202        29.357287    
     99170   198.34         336.86507      137229.91     -807622.91     -305.05904      0.36304399     0.057460865    30.277025      29.007635    
     99180   198.36         342.70225      136154        -807624.8      -303.77245      0.36305655     0.057216546    30.291809      28.657985    
     99190   198.38         335.88241      135004.68     -807626.51     -300.89078      0.36306895     0.056671835    30.277147      28.308341    
     99200   198.4          344.32026      133938.2      -807628.81     -299.60291      0.36308122     0.056427365    30.28938       27.958699    
     99210   198.42         338.01515      134859.01     -807625.34     -301.93921      0.36309334     0.056865484    30.354441      27.609056    
     99220   198.44         339.51939      134501.32     -807624.84     -302.38093      0.36310532     0.056946797    30.410207      27.259412    
     99230   198.46         352.25297      136314.74     -807625.59     -303.0246       0.36311715     0.057066159    30.420823      26.909771    
     99240   198.48         349.63088      136739.45     -807624.2      -303.7632       0.36312885     0.057203411    30.440199      26.560133    
     99250   198.5          350.23701      137734.6      -807622.01     -305.69533      0.3631404      0.057565432    30.431847      26.2105      
     99260   198.52         353.83484      136866.99     -807623.44     -304.44459      0.3631518      0.057328103    30.411719      25.860872    
     99270   198.54         350.15417      135542.15     -807625.56     -301.55534      0.36316306     0.056782286    30.367671      25.511253    
     99280   198.56         358.26477      134836.66     -807626.65     -301.30455      0.36317418     0.056733325    30.339834      25.161639    
     99290   198.58         345.07489      134202.45     -807625.17     -300.7838       0.36318516     0.05663356     30.400574      24.812025    
     99300   198.6          351.00213      135703.17     -807625.03     -301.5403       0.36319599     0.056774306    30.397895      24.462416    
     99310   198.62         343.80507      135118.66     -807624.02     -301.35521      0.36320668     0.056737786    30.369919      24.112812    
     99320   198.64         357.08183      137546.08     -807622.95     -304.09726      0.36321723     0.057252385    30.413489      23.76321     
     99330   198.66         357.67789      137073.93     -807622.34     -304.73814      0.36322763     0.057371401    30.439326      23.41361     
     99340   198.68         363.11608      138538.05     -807622.7      -305.00771      0.36323789     0.057420528    30.38827       23.064017    
     99350   198.7          352.68855      136056.92     -807623.99     -302.24654      0.36324801     0.056899128    30.322646      22.714434    
     99360   198.72         364.03529      136088.74     -807624.75     -302.96782      0.36325798     0.057033346    30.317889      22.364855    
     99370   198.74         348.46745      134282.32     -807624.65     -300.91915      0.36326781     0.056646154    30.351623      22.015277    
     99380   198.76         349.97914      135704.41     -807624.39     -301.38836      0.3632775      0.056732966    30.328311      21.665705    
     99390   198.78         360.05446      134496.85     -807626.31     -300.95245      0.36328704     0.056649424    30.308525      21.316139    
     99400   198.8          351.84054      136218.38     -807623.03     -303.09007      0.36329644     0.057050319    30.326159      20.966575    
     99410   198.82         362.79081      136944.44     -807623.37     -304.32776      0.3633057      0.05728183     30.374249      20.617012    
     99420   198.84         359.81865      138173.11     -807622.06     -305.32832      0.36331481     0.057468718    30.376291      20.267453    
     99430   198.86         354.60483      137052.51     -807623.19     -303.56677      0.36332378     0.057135748    30.335373      19.917901    
     99440   198.88         364.39879      135863.63     -807625.15     -303.07295      0.36333261     0.057041418    30.297789      19.568355    
     99450   198.9          347.67565      134672.24     -807623.82     -302.32381      0.36334129     0.056899063    30.299193      19.218813    
     99460   198.92         343.11054      134764.27     -807624.98     -300.60828      0.36334983     0.05657486     30.291552      18.869275    
     99470   198.94         337.00926      134382.19     -807625.07     -299.79745      0.36335823     0.056420957    30.382324      18.519736    
     99480   198.96         350.45626      135601.51     -807625.08     -301.86049      0.36336648     0.056807925    30.352781      18.170202    
     99490   198.98         343.9886       135935.17     -807621.89     -304.32245      0.3633746      0.057269969    30.366132      17.820672    
     99500   199            350.43882      136936.31     -807622.27     -304.99104      0.36338256     0.057394531    30.368972      17.471146    
     99510   199.02         351.48724      136812.5      -807623.61     -9727.4094      0.36339039     0.057203329    30.316316      17.121627    
     99520   199.04         353.42268      137741.75     -807622.6      -9774.8448      0.36339807     0.057481064    30.319449      16.772111    
     99530   199.06         362.32969      135757.76     -807625.47     -9729.6455      0.3634056      0.057214082    30.27319       16.422602    
     99540   199.08         356.68709      134638.18     -807627.32     -9652.5673      0.363413       0.056759677    30.255778      16.073098    
     99550   199.1          346.95996      133840.71     -807628.5      -9579.9498      0.36342025     0.056331544    30.279535      15.723596    
     99560   199.12         336.58132      134904.04     -807626.13     -9617.5333      0.36342736     0.056551434    30.329975      15.374096    
     99570   199.14         346.06653      134415.52     -807625.13     -9700.8397      0.36343432     0.057040185    30.358824      15.024598    
     99580   199.16         342.93015      135986.49     -807624.57     -9709.4147      0.36344114     0.057089535    30.309937      14.675107    
     99590   199.18         339.121        137125.31     -807624.14     -9715.0175      0.36344782     0.057121429    30.323809      14.325618    
     99600   199.2          347.31387      137991.36     -807622.39     -9811.8627      0.36345435     0.057689812    30.33081       13.976134    
     99610   199.22         350.25048      136949.81     -807623.21     -9805.6361      0.36346074     0.057652189    30.308551      13.626654    
     99620   199.24         346.25562      135621.25     -807626.47     -9686.8885      0.36346699     0.056953034    30.352318      13.277177    
     99630   199.26         347.17005      133639.13     -807629.76     -9589.89        0.3634731      0.056381795    30.267009      12.927707    
     99640   199.28         336.96893      133355.53     -807627.47     -9622.5509      0.36347906     0.05657289     30.262217      12.578241    
     99650   199.3          340.83854      133565.46     -807627.34     -9645.7963      0.36348487     0.056708646    30.260695      12.228779    
     99660   199.32         337.57237      134532.37     -807627.46     -9626.9128      0.36349055     0.056596745    30.246657      11.879321    
     99670   199.34         349.42399      135450.46     -807628.03     -9664.4663      0.36349608     0.056816658    30.272397      11.529866    
     99680   199.36         337.03653      138313.73     -807621.64     -9814.6609      0.36350147     0.057698786    30.271782      11.180415    
     99690   199.38         343.46443      138244.67     -807621.28     -9856.287       0.36350671     0.057942662    30.24513       10.830969    
     99700   199.4          339.50759      137824.15     -807624.32     -9738.2939      0.36351181     0.057248208    30.234765      10.481527    
     99710   199.42         336.81496      135992.22     -807625.38     -9690.9781      0.36351677     0.056969276    30.244018      10.132088    
     99720   199.44         340.1258       134751.58     -807626.65     -9663.8882      0.36352158     0.056809274    30.28963       9.7826517    
     99730   199.46         343.24658      133942.9      -807627.7      -9638.963       0.36352625     0.056662023    30.304324      9.4332188    
     99740   199.48         350.0405       132462.96     -807630.57     -9574.2385      0.36353078     0.056280843    30.293783      9.08379      
     99750   199.5          349.07228      134714.9      -807628.75     -9624.3678      0.36353516     0.056574839    30.308814      8.7343648    
     99760   199.52         344.45662      136333.94     -807624.73     -9729.5829      0.3635394      0.057192657    30.301944      8.3849436    
     99770   199.54         360.55457      137258.6      -807624.71     -9795.7733      0.3635435      0.05758109     30.273325      8.035527     
     99780   199.56         333.90987      138418.6      -807621.4      -9777.7261      0.36354745     0.057474381    30.227443      7.6861154    
     99790   199.58         345.49392      137133.07     -807623.53     -9755.1264      0.36355126     0.057340936    30.163815      7.336709     
     99800   199.6          348.98889      135927.8      -807624.38     -9735.7211      0.36355493     0.057226294    30.22468       6.9873048    
     99810   199.62         349.11363      134987.24     -807626.15     -9673.6147      0.36355845     0.056860684    30.263023      6.6379035    
     99820   199.64         347.44388      133566.01     -807628.28     -9587.31        0.36356183     0.056352868    30.253924      6.2885062    
     99830   199.66         352.69886      133036.73     -807628.75     -9582.8308      0.36356507     0.056326039    30.283269      5.9391121    
     99840   199.68         351.99535      134842.85     -807626.31     -9645.5667      0.36356816     0.056694306    30.287106      5.5897219    
     99850   199.7          354.6393       136179.82     -807622.91     -9749.0373      0.36357111     0.057302016    30.315193      5.240335     
     99860   199.72         354.18202      138699.45     -807621.93     -9758.9036      0.36357392     0.057359564    30.323404      4.8909519    
     99870   199.74         366.0147       137688.86     -807623.56     -9738.8105      0.36357658     0.057241044    30.259665      4.5415736    
     99880   199.76         361.00597      138832.2      -807619.99     -9807.1946      0.3635791      0.057642581    30.251533      4.1921992    
     99890   199.78         369.65063      135496.08     -807624.34     -9694.373       0.36358148     0.05697909     30.280079      3.8428282    
     99900   199.8          366.41857      135943.02     -807624.94     -9645.0114      0.36358371     0.056688617    30.304978      3.4934608    
     99910   199.82         365.13502      132982.35     -807628.08     -9537.2033      0.3635858      0.056054653    30.251623      3.1440978    
     99920   199.84         370.31825      135857.35     -807624.53     -9668.397       0.36358775     0.056825436    30.296417      2.7947382    
     99930   199.86         370.55178      133489.41     -807625.61     -9637.7911      0.36358955     0.056645271    30.337873      2.4453821    
     99940   199.88         366.74322      138271.88     -807622.31     -9724.408       0.36359121     0.057154093    30.315462      2.0960301    
     99950   199.9          359.49377      137358.77     -807620.88     -9743.1862      0.36359273     0.057264221    30.252511      1.7466824    
     99960   199.92         360.67501      140121.19     -807618.55     -9822.0595      0.3635941      0.057727569    30.23578       1.3973384    
     99970   199.94         367.09457      136953.18     -807621.56     -9761.3919      0.36359533     0.057370812    30.217938      1.0479983    
     99980   199.96         365.94754      136839.69     -807623.81     -9685.6689      0.36359641     0.056925594    30.270342      0.69866174   
     99990   199.98         365.18362      135360.04     -807626.14     -9615.185       0.36359736     0.056511192    30.261821      0.34932898   
    100000   200            352.53333      134790.58     -807624.24     -9626.7098      0.36359816     0.056578802    30.255273      0            
Loop time of 3493.27 on 32 procs for 100000 steps with 1080 atoms

Performance: 4.947 ns/day, 4.852 hours/ns, 28.626 timesteps/s, 30.917 katom-step/s
63.0% CPU use with 32 MPI tasks x 1 OpenMP threads

MPI task timing breakdown:
Section |  min time  |  avg time  |  max time  |%varavg| %total
---------------------------------------------------------------
Pair    | 2594       | 2806.5     | 3219.8     | 227.0 | 80.34
Neigh   | 0.0016521  | 0.0021458  | 0.0048754  |   2.2 |  0.00
Comm    | 198.12     | 611.52     | 823.93     | 486.4 | 17.51
Output  | 2.3979     | 2.4043     | 2.4125     |   0.2 |  0.07
Modify  | 66.29      | 66.627     | 67.168     |   3.3 |  1.91
Other   |            | 6.241      |            |       |  0.18

Nlocal:          33.75 ave          40 max          28 min
Histogram: 4 2 3 4 3 5 2 5 2 2
Nghost:        1034.06 ave        1050 max        1015 min
Histogram: 1 1 1 0 10 4 10 3 1 1
Neighs:              0 ave           0 max           0 min
Histogram: 32 0 0 0 0 0 0 0 0 0
FullNghs:      5353.38 ave        6372 max        4454 min
Histogram: 4 2 4 4 3 4 3 4 2 2

Total # of neighbors = 171308
Ave neighs/atom = 158.61852
Neighbor list builds = 4
Dangerous builds = 0

Total wall time: 1:01:49
