
units		metal
atom_style	atomic

read_data ${STRUCTURE}.data
read_data BaTiO3-sc333.data
Reading data file ...
  orthogonal box = (0 0 0) to (11.898253 11.898253 12.912076)
  2 by 4 by 4 MPI processor grid
  reading atoms ...
  135 atoms
  read_data CPU = 0.015 seconds
replicate $L $L $L
replicate 2 $L $L
replicate 2 2 $L
replicate 2 2 2
Replication is creating a 2x2x2 = 8 times larger system...
  orthogonal box = (0 0 0) to (23.796507 23.796507 25.824152)
  2 by 4 by 4 MPI processor grid
  1080 atoms
  replicate CPU = 0.003 seconds

pair_style allegro
pair_coeff	* * ${MODEL}.pth Ba Ti O
pair_coeff	* * BaTiO3-E0.pth Ba Ti O
mass 1 137.3
mass 2 47.9
mass 3 15.9994

timestep 0.002
compute polarization all allegro polarization 3
compute allegro will evaluate the quantity polarization of length 3 (src/compute_allegro.cpp:53)
compute polarizability all allegro polarizability 9
compute allegro will evaluate the quantity polarizability of length 9 (src/compute_allegro.cpp:53)

thermo_style custom pe fmax fnorm spcpu cpuremain

variable efield equal 1e-2*36.36
fix born all addbornforce 0.0 0.0 ${efield}
fix born all addbornforce 0.0 0.0 0.3636

thermo 10
min_style fire
#minimize 0.0 1e-6 100 100
velocity all create ${TEMP} ${SEED} dist gaussian rot yes mom yes
velocity all create 280 ${SEED} dist gaussian rot yes mom yes
velocity all create 280 23266 dist gaussian rot yes mom yes
fix nvt all nvt temp ${TEMP} ${TEMP} $(100*dt)
fix nvt all nvt temp 280 ${TEMP} $(100*dt)
fix nvt all nvt temp 280 280 $(100*dt)
fix nvt all nvt temp 280 280 0.2000000000000000111
run 5000
Neighbor list info ...
  update: every = 1 steps, delay = 0 steps, check = yes
  max neighbors/atom: 2000, page size: 100000
  master list distance cutoff = 8
  ghost atom cutoff = 8
  binsize = 8, bins = 3 3 4
  1 neighbor lists, perpetual/occasional/extra = 1 0 0
  (1) pair allegro/kk, perpetual
      attributes: full, newton on, kokkos_device
      pair build: full/bin/kk/device
      stencil: full/bin/3d
      bin: kk/device
Per MPI rank memory allocation (min/avg/max) = 3.516 | 3.516 | 3.516 Mbytes
    PotEng          Fmax          Fnorm          S/CPU         CPULeft    
-807708.29      1.5960179      37.04391       0              0            
-807648.49      3.3929451      44.500912      2.1841266      2284.667     
-807637.57      2.5635702      34.445739      25.862188      1236.3238    
-807608.6       3.1587007      36.521674      25.887742      886.55503    
-807604.84      4.0765751      49.327252      25.834708      711.57591    
-807570.45      3.6762571      39.576357      25.830439      606.43985    
-807605.78      2.7474956      37.478388      25.892274      536.14405    
-807649.42      3.5557279      32.147731      25.894863      485.81968    
-807686.44      2.3846928      32.901101      25.855253      448.01623    
-807671.04      2.9259295      32.876572      25.833603      418.54525    
-807655.08      2.7823083      33.443183      25.884747      394.85361    
-807662.87      2.197578       25.609561      25.876579      375.40473    
-807629.68      2.5935805      29.293319      25.899383      359.11907    
-807587.82      3.2123112      38.88536       25.801971      345.3341     
-807571.82      2.7126647      36.143076      25.891117      333.41672    
-807635.27      2.9993303      31.812394      25.880232      323.04208    
-807656.96      2.8317993      29.446179      25.842061      313.93325    
-807668.67      3.1554884      32.531473      25.852331      305.84613    
-807650.47      4.3024792      43.310121      25.855963      298.61316    
-807682.99      2.7357799      34.862402      25.841483      292.10632    
-807644.1       3.7017722      37.583338      25.839025      286.21235    
-807618.91      3.1640138      37.639794      25.880321      280.82878    
-807564.9       3.7815083      43.612999      25.899749      275.89319    
-807608.29      4.0786306      48.348408      25.841049      271.3714     
-807617.06      3.8118171      37.022995      25.816355      267.20152    
-807646.67      2.8762921      34.183419      25.86281       263.32102    
-807645.97      4.1958806      44.62408       25.866164      259.70836    
-807685.76      2.8803468      36.578098      25.844491      256.34036    
-807664.46      3.1428434      34.135967      25.795361      253.19771    
-807641.63      3.7155705      30.202729      25.845308      250.23288    
-807608.77      3.2116284      31.925059      25.90158       247.42675    
-807607.89      3.6111825      41.516787      25.879825      244.78167    
-807600.27      2.7764003      33.232386      25.797331      242.29582    
-807616.62      2.3424318      30.715269      25.897936      239.91583    
-807645.82      3.1100959      28.980488      25.890546      237.65463    
-807678.63      2.1328123      30.544384      25.855375      235.50755    
-807680.17      2.2805511      30.231293      25.816704      233.46574    
-807648.6       4.8805413      35.871008      25.872161      231.50296    
-807650.87      3.1209896      28.497242      25.886815      229.62049    
-807624.51      4.4234329      32.205488      25.867828      227.81809    
-807604.55      3.9931019      40.440905      25.837967      226.09163    
-807576.69      4.0785637      37.935707      25.877028      224.42396    
-807631.99      2.6953656      31.771752      25.914829      222.81116    
-807656.55      3.4076791      31.254022      25.878787      221.26113    
-807676.96      2.5938997      32.359097      25.85346       219.76792    
-807646.3       4.1238688      43.365262      25.861147      218.32272    
-807672.63      2.5607923      32.853224      25.900297      216.91777    
-807646.2       3.4662028      33.884681      25.856579      215.56248    
-807625.42      3.0212997      36.846045      25.875027      214.24494    
-807567.81      3.8695281      42.050478      25.88601       212.9639     
-807608.88      3.4540169      42.300677      25.884157      211.71888    
-807627.48      3.3242468      35.125547      25.854954      210.51139    
-807659.72      2.6825803      31.807908      25.875952      209.33276    
-807645.96      4.1556687      41.43112       25.891482      208.18207    
-807678         2.4583355      33.144771      25.888383      207.06007    
-807666.9       2.984957       31.374804      25.776628      205.97838    
-807646.12      3.1245925      28.080104      25.833161      204.91473    
-807601.69      2.8742298      32.480389      25.89292       203.86788    
-807603.74      3.2657618      37.563328      25.884822      202.84473    
-807609.54      3.1874481      34.490909      25.848271      201.84725    
-807628.25      2.8415958      28.97736       25.888341      200.86573    
-807643.94      3.3436567      30.140731      25.899416      199.90254    
-807671.6       3.0063336      30.084026      25.903047      198.95758    
-807678.63      2.878472       31.677636      25.804654      198.04058    
-807651.07      3.432896       33.311975      25.853516      197.13513    
-807637.12      2.7613855      29.738799      25.853932      196.2456     
-807617.81      3.5164831      31.967853      25.859895      195.37072    
-807606.48      3.8127177      42.125852      25.800874      194.51613    
-807587.24      3.7602869      38.003481      25.879647      193.66778    
-807625.65      3.062595       33.148421      25.910749      192.82992    
-807652.17      3.7169018      35.103693      25.906661      192.00534    
-807677.08      3.0704957      34.886297      25.872768      191.19618    
-807649.83      4.8581593      42.176452      25.863697      190.39956    
-807658.5       2.9707105      33.430901      25.904102      189.61065    
-807641.97      3.3248678      33.232754      25.85932       188.83647    
-807624.68      3.3818536      37.576305      25.860133      188.07256    
-807576.08      3.5973433      38.324541      25.872955      187.3175     
-807601.13      2.9361188      37.906323      25.906089      186.56931    
-807632.77      2.6586836      29.95137       25.862375      185.83393    
-807665.4       2.3986082      29.898725      25.868641      185.10688    
-807652.57      3.6780072      36.178085      25.878688      184.38755    
-807666.3       2.9108491      32.702975      25.766038      183.68518    
-807665.7       2.6493935      30.342745      25.814554      182.98676    
-807647.51      3.6496084      28.815103      25.844142      182.29361    
-807600.61      3.0652256      34.229542      25.879965      181.60509    
-807592.45      3.2707956      37.464438      25.91005       180.92149    
-807611.64      3.4190536      35.663897      25.879619      180.247      
-807637.14      2.54509        29.11026       25.878216      179.57923    
-807644.98      3.6529124      32.048945      25.902265      178.91618    
-807662.77      3.2409078      32.576839      25.916503      178.25837    
-807675.24      2.6372743      33.11474       25.837337      177.61199    
-807654.62      3.3064278      32.258327      25.814117      176.97287    
-807631.8       3.2697436      31.037618      25.885982      176.33446    
-807608.18      3.0602468      33.00776       25.892035      175.70107    
-807607.24      3.3548106      41.46125       25.881392      175.07363    
-807601.36      3.2265031      35.00459       25.853862      174.45301    
-807627.1       3.0106124      31.814388      25.871347      173.83617    
-807649.45      3.5875414      33.917093      25.908076      173.22181    
-807676.41      2.680944       34.183373      25.834456      172.61661    
-807657.19      3.8559892      36.877705      25.77499       172.01944    
-807651.25      2.9771817      32.223463      25.831096      171.42308    
-807634.78      4.1371672      32.496571      25.879834      170.82798    
-807623.66      3.4531843      37.535656      25.87117       170.23748    
-807588.24      3.6298099      37.180847      25.87527       169.65071    
-807602.02      2.8765273      36.36639       25.885917      169.06718    
-807633.72      2.9225907      31.012292      25.878118      168.48784    
-807667.16      2.3282243      30.34432       25.901791      167.91084    
-807659.33      3.3655013      33.88061       25.858933      167.33975    
-807660.23      3.669538       32.415472      25.907162      166.76946    
-807659.56      3.2532827      29.637378      25.928048      166.20144    
-807644.49      2.4924944      28.904157      25.926588      165.63681    
-807606.74      3.2141792      33.025502      25.917216      165.0759     
-807589.19      3.4160121      36.108295      25.940632      164.5169     
-807615.07      3.3309714      33.40438       25.917047      163.96218    
-807642.75      3.9089361      30.138126      25.913356      163.4106     
-807653.3       3.0079382      31.406117      25.951051      162.86003    
-807654.95      4.5949195      35.905664      25.928067      162.31344    
-807670.66      2.7542823      32.331315      25.894222      161.77125    
-807654.42      3.2140244      32.553279      25.904631      161.23121    
-807631.5       2.6904491      31.097173      25.934782      160.69231    
-807598.4       3.6745664      34.858397      25.922795      160.15653    
-807609.37      4.1182513      38.406787      25.873586      159.62553    
-807613.18      3.385691       32.993232      25.890012      159.09615    
-807635.62      2.8426799      30.446417      25.93669       158.56695    
-807646.51      3.6641931      33.213095      25.91337       158.04113    
-807672.74      2.3841438      32.242473      25.82633       157.52145    
-807659.68      3.4248799      33.364504      25.851537      157.00274    
-807648.31      3.202835       31.040163      25.907692      156.48366    
-807623.98      3.8504758      32.299729      25.941779      155.96518    
-807618.67      3.2664529      36.109837      25.909858      155.45012    
-807599         3.2624186      36.697897      25.876836      154.93846    
-807610.09      2.8271988      34.080626      25.939312      154.42608    
-807633.08      3.6856105      31.865852      25.924889      153.91623    
-807663.26      3.1462484      31.973235      25.906679      153.40899    
-807664.18      2.7957746      33.192426      25.859269      152.90549    
-807654.29      3.8032392      33.457101      25.948643      152.40012    
-807647.65      3.1576774      31.341313      25.959045      151.8961     
-807636.59      3.475491       30.772001      25.913056      151.39563    
-807608.74      2.6963963      34.474857      25.904617      150.89715    
-807591.18      3.9209765      36.709999      25.909984      150.40008    
-807616.34      3.2392811      32.467801      25.907087      149.9047     
-807644.65      3.0322786      31.061397      25.865332      149.41247    
-807660.84      2.9844886      30.887951      25.87686       148.92129    
-807653.03      3.6379855      35.076062      25.891464      148.43103    
-807662.76      2.9972762      32.212746      25.874578      147.94283    
-807650.28      4.0632507      32.108166      25.904172      147.45496    
-807630.23      2.8561329      32.340042      25.931837      146.96749    
-807594.91      3.1026501      35.658951      25.880854      146.48322    
-807604.5       3.6114362      37.572357      25.881196      146.00027    
-807619.58      4.1067959      34.448569      25.886722      145.51842    
-807644.86      2.8619284      31.438729      25.83834       145.03952    
-807647.07      4.0730444      35.475627      25.941972      144.55828    
-807666.95      2.8807622      32.981835      25.911353      144.07933    
-807659.37      3.4550023      33.175676      25.921602      143.60126    
-807647.14      3.0443547      30.900551      25.896244      143.12523    
-807617.28      2.6142923      32.07399       25.917088      142.64967    
-807609.61      3.1556985      35.384505      25.908816      142.17554    
-807603.8       3.0745597      35.835909      25.822193      141.70535    
-807620.81      3.4478563      32.511564      25.881017      141.23431    
-807634.99      3.3440806      32.751564      25.882706      140.76428    
-807660.1       2.5647535      32.039144      25.946263      140.29329    
-807663.41      3.8611571      33.272774      25.901673      139.82475    
-807655.34      3.0309608      32.723578      25.872982      139.35813    
-807639.39      3.7624956      32.254586      25.956916      138.88991    
-807626.37      3.0223743      32.450486      25.946944      138.423      
-807610.07      3.2974257      35.735863      25.910588      137.95817    
-807598.08      2.7979923      36.077647      25.9123        137.49425    
-807619.36      2.9258921      32.72733       25.919411      137.03105    
-807645.67      3.252043       30.346708      25.964255      136.56745    
-807662.7       2.5931682      31.660492      25.926094      136.10589    
-807655.38      4.0591891      34.57168       25.906088      135.64581    
-807655.53      3.0747509      31.680389      25.891842      135.18699    
-807643.88      3.7221689      30.896624      25.921654      134.72818    
-807627.44      2.9741913      32.34064       25.919021      134.27028    
-807596.94      4.0959853      35.425917      25.897888      133.8138     
-807604.71      2.8510293      35.423188      25.935138      133.3571     
-807625.54      3.1747476      32.081026      25.902606      132.90209    
-807651.27      2.5209774      30.683153      25.895485      132.44806    
-807651.86      3.0721732      34.039217      25.950702      131.99331    
-807660.73      3.7642791      32.733677      25.934753      131.53975    
-807656.71      3.272662       32.269067      25.912825      131.08753    
-807643.94      3.2443244      30.829481      25.897106      130.63646    
-807614.9       3.3769774      33.152337      25.934288      130.18513    
-807604.12      3.5342292      35.304741      25.922301      129.73483    
-807611.89      3.7734025      34.373389      25.908736      129.28557    
-807630.88      2.840674       31.294408      25.915559      128.83683    
-807642.75      4.0339682      30.761936      25.952066      128.38785    
-807656.22      3.3750278      32.328796      25.97727       127.93893    
-807663.76      2.3948929      31.960776      25.892001      127.49278    
-807653.83      2.7609295      31.843302      25.824512      127.04894    
-807635.91      3.2266544      30.169849      25.940392      126.60286    
-807618.28      3.0292728      32.054048      26.002811      126.15593    
-807612.66      3.3747575      35.126715      25.937549      125.71119    
-807609.68      3.4402095      34.774415      25.931386      125.26722    
-807626.13      3.480576       32.044214      25.986228      124.82256    
-807645.55      2.7873602      32.215142      26.001971      124.37815    
-807661.63      2.9129275      32.481225      26.005583      123.93427    
-807656.55      2.9161271      34.265824      25.938794      123.49251    
-807648.15      3.3712812      32.503046      25.956639      123.05092    
-807636.59      3.223591       31.093203      25.951252      122.61002    
-807623.02      2.9719966      32.915446      25.951121      122.16967    
-807605.59      2.7179277      33.59016       25.953623      121.72982    
-807608.68      2.7144621      33.267913      25.930305      121.29101    
-807632.5       2.6449163      29.98544       25.92332       120.85289    
-807651.76      3.2771211      31.202752      25.899752      120.41578    
-807655.88      2.7925221      31.98137       25.88359       119.97952    
-807652.81      3.0398509      33.684237      25.903927      119.54332    
-807650.19      3.115357       32.171837      25.881924      119.10806    
-807638.37      3.1259041      32.129066      25.845512      118.67403    
-807614.21      2.6988599      33.413906      25.888799      118.23956    
-807602.09      2.8806167      35.889924      25.922381      117.80485    
-807613.96      2.9811754      34.565204      25.900164      117.37106    
-807634.76      2.8382225      32.499452      25.920284      116.93732    
-807647.93      2.8927543      31.363343      25.925615      116.50391    
-807652.88      3.1156629      33.515639      25.888462      116.0717     
-807657.82      3.5187764      33.24421       25.891032      115.63986    
-807651.24      2.9172581      31.237584      25.888958      115.20848    
-807630.9       4.0125562      31.599371      25.937957      114.77656    
-807610.09      3.0761013      33.898375      25.95782       114.34469    
-807607.82      2.9199622      35.506275      25.918852      113.91399    
-807615.1       3.4269048      34.217425      25.918022      113.48372    
-807632.44      3.0948669      32.056109      25.93387       113.05354    
-807646.34      3.4394904      33.050365      25.939884      112.62366    
-807659.83      3.0331732      32.554721      25.908253      112.19476    
-807657.35      2.6901592      32.196665      25.845409      111.7674     
-807645.01      3.6824734      32.093013      25.895546      111.33948    
-807627.08      2.9584555      32.22173       25.93792       110.91117    
-807616.01      3.3539107      35.165518      25.916966      110.48361    
-807606.96      3.5726789      35.614917      25.91548       110.05644    
-807615.06      3.4099845      34.255012      25.94159       109.62917    
-807634.23      2.8206222      31.281495      25.945398      109.2022     
-807654.21      2.9005601      31.603476      25.940537      108.77568    
-807656.97      2.4192364      32.975815      25.912633      108.34998    
-807652.12      2.7910685      33.135549      25.899986      107.92485    
-807644.3       3.5781772      31.509356      25.928817      107.49956    
-807632.49      3.0206372      31.762232      25.921668      107.07472    
-807612.11      2.8679295      34.508622      25.928338      106.65011    
-807604.48      3.2147169      35.43332       25.919406      106.22597    
-807617.73      2.9471367      33.235372      25.921616      105.80212    
-807641.19      3.7629002      31.204465      25.938564      105.37832    
-807652.22      3.1537048      32.041573      25.917018      104.95517    
-807653.97      3.0955848      33.51598       25.911929      104.53242    
-807652.09      3.8490585      33.209425      25.926216      104.10975    
-807647.01      2.4789224      31.445721      25.911385      103.68761    
-807629.57      3.3671491      32.261544      25.922175      103.26561    
-807607.88      3.1613039      34.685518      25.917145      102.84397    
-807608.52      3.2621186      34.538831      25.936764      102.42233    
-807622.89      2.7829406      32.350489      25.948628      102.0008     
-807642.14      2.7747587      30.782332      25.926169      101.5799     
-807648.56      3.2793345      32.078495      25.955622      101.15884    
-807658.02      2.9734558      31.645255      25.936731      100.73834    
-807653.9       2.7936479      32.430514      25.913828      100.31847    
-807643.5       3.1490526      31.450444      25.927113      99.898666    
-807622.54      2.8063428      32.251152      25.976568      99.478418    
-807612.57      2.5636071      33.889447      25.949681      99.058833    
-807610.76      3.6339588      34.904706      25.909885      98.640086    
-807625.51      3.6859457      31.710574      25.931855      98.221283    
-807636.01      4.07167        32.261543      25.948821      97.8025      
-807652.99      3.4040674      32.420917      25.968601      97.383701    
-807657.09      3.2542979      33.599444      25.953011      96.965377    
-807651.78      3.1319605      32.572756      25.931052      96.547608    
-807637.57      2.961552       32.328536      25.931573      96.130079    
-807625.03      3.3647909      33.130064      25.961439      95.71239     
-807614.4       3.0880022      34.098172      25.931757      95.295345    
-807610.6       2.7321221      34.342732      25.904836      94.878897    
-807623.71      2.9425236      31.156256      25.938037      94.46224     
-807641.46      3.0497592      30.801607      25.929075      94.045934    
-807655.36      3.3476794      31.68525       25.948195      93.62961     
-807652.98      2.6699276      33.028076      25.968243      93.213258    
-807649.34      3.5511174      32.396455      25.986209      92.796912    
-807640.07      2.8832391      31.608747      25.96976       92.381006    
-807625.47      2.9778516      32.898086      25.96545       91.965382    
-807609.61      2.8908178      35.126617      25.990011      91.549677    
-807610.04      3.3608223      35.212632      25.975234      91.134381    
-807627.96      2.8546673      32.957631      25.932456      90.71983     
-807644.34      3.2330156      32.518227      25.921119      90.305627    
-807651.55      3.4852088      33.047132      25.944537      89.891347    
-807652.89      2.9374101      33.364636      25.929287      89.477458    
-807651.05      2.910399       31.808836      25.967311      89.063322    
-807638.99      3.6457898      31.709775      25.886482      88.650346    
-807620.51      2.9949684      32.292112      25.926432      88.237093    
-807609.04      2.7062805      34.351277      25.966995      87.823566    
-807615.03      2.9498488      33.988086      25.913266      87.410858    
-807629.93      2.9899601      32.491727      25.932668      86.998118    
-807643.3       3.3728046      31.969577      25.93683       86.585522    
-807651.48      3.7665193      33.38218       25.993804      86.172478    
-807656.13      2.6935046      32.652688      25.98229       85.759761    
-807648.64      3.0265992      32.192971      25.974353      85.347324    
-807633.91      2.9922952      31.906454      25.971738      84.935106    
-807618.1       3.4195096      33.550104      26.02756       84.522474    
-807612.02      3.0544677      34.765405      25.988624      84.110455    
-807616.92      3.3223866      34.499166      25.996258      83.698541    
-807627.73      2.9139504      32.190363      26.003274      83.286741    
-807644.56      3.5830708      32.393775      26.048745      82.874651    
-807654.7       3.3722008      33.003005      25.958926      82.463685    
-807654.03      3.0283038      32.53199       25.911381      82.053384    
-807644.57      3.1480402      32.233911      25.941928      81.642934    
-807632.05      3.1679406      32.235303      25.955006      81.232521    
-807619.76      2.6141062      33.217991      25.93264       80.8225      
-807612.49      3.0872001      34.186337      25.869827      80.413273    
-807615.7       2.8478176      33.772615      25.909416      80.003803    
-807631.24      2.538547       32.031862      25.958229      79.594009    
-807649.01      2.911219       31.682124      25.98262       79.184141    
-807653.82      3.2137328      33.676894      26.00079       78.774263    
-807649.19      2.9179778      33.684663      26.026586      78.364306    
-807644.24      2.7256554      32.590926      26.016494      77.954612    
-807634.15      3.5184036      32.107433      26.034777      77.544913    
-807617.15      3.5608589      32.854759      26.004672      77.135661    
-807609.48      3.1557955      34.636742      25.99309       76.726675    
-807620.71      3.6668371      32.344376      26.020303      76.317598    
-807637.66      2.443753       30.313058      26.032632      75.908569    
-807646.73      2.3528674      31.396341      26.010396      75.4999      
-807653.01      2.6968104      32.034309      25.98957       75.091571    
-807650.71      4.7535252      32.570477      25.9941        74.683353    
-807645.8       3.0585371      31.48114       25.965449      74.275537    
-807628.98      3.5967291      33.12301       25.990254      73.867648    
-807614.89      3.2535041      34.320862      26.027535      73.459585    
-807612.55      4.7528303      35.248167      26.023542      73.051706    
-807624.55      3.0865504      33.068715      25.99191       72.644244    
-807636.23      4.11413        31.115593      25.989636      72.236943    
-807647.9       3.4284957      31.363165      25.99649       71.829726    
-807653.75      3.7050042      32.369965      25.93501       71.423158    
-807652.98      2.894155       31.317945      25.935269      71.016718    
-807642.27      3.0959433      30.184333      25.936866      70.610395    
-807627.29      2.3018659      30.927879      25.992411      70.203752    
-807617.06      3.1891735      32.741251      26.029376      69.79695     
-807615.49      2.8793906      33.528524      25.949972      69.390914    
-807623.57      2.5422709      31.869284      25.928304      68.985174    
-807635.93      4.0327448      31.859271      25.96608       68.579263    
-807650.87      3.3365022      31.984291      25.985005      68.173333    
-807655.26      3.1999466      32.361765      25.963556      67.767694    
-807650.3       2.7019166      31.808846      25.967545      67.362148    
-807639.45      3.8243607      31.700036      25.950117      66.956857    
-807626.27      3.0023011      32.662643      26.03072       66.551087    
-807616.69      2.9361504      33.901761      26.024006      66.145496    
-807612.54      3.5838995      34.362604      26.025383      65.740022    
-807622.4       3.0967666      33.229463      26.008393      65.334797    
-807640.95      4.1469528      31.420489      25.999854      64.929756    
-807650.48      3.1335617      32.828485      25.974493      64.525016    
-807652.53      2.9965795      32.382892      25.955847      64.120524    
-807647.63      3.2644017      32.845152      25.963392      63.716092    
-807639.4       3.7200164      31.458518      25.950089      63.311865    
-807624.56      2.8683355      32.689956      25.961833      62.907668    
-807612.61      3.0381827      33.698898      25.949323      62.503667    
-807612.52      2.5060692      34.026237      25.960172      62.099701    
-807626.95      2.6044103      32.148047      25.958209      61.695857    
-807643.78      2.8912139      31.126738      25.971826      61.292031    
-807648.49      3.2403502      32.644769      25.953829      60.888431    
-807651.14      2.8355087      33.009861      26.02115       60.484501    
-807647.83      2.9788716      33.08295       26.00069       60.080814    
-807636.83      3.2967324      32.268077      25.975327      59.677396    
-807621.18      2.6122877      33.471771      26.005369      59.273896    
-807611.81      2.6213202      34.320828      25.963175      58.870765    
-807617.31      2.9070075      34.23046       25.965477      58.467723    
-807628.91      2.4673023      32.983174      25.993704      58.064609    
-807641.19      2.8763082      32.296264      25.98451       57.661654    
-807650.19      3.2277713      32.557754      25.998424      57.258718    
-807651.38      3.1541493      32.959177      25.946421      56.856193    
-807646.46      3.1343479      32.304703      25.91728       56.453935    
-807632.76      3.5037487      32.939254      25.978306      56.051413    
-807621.58      2.8421036      33.337967      25.916951      55.649343    
-807614.92      3.1639176      34.472435      25.921662      55.247336    
-807617.19      2.8281329      33.411406      25.925126      54.845399    
-807631.59      2.6723061      31.468932      25.947216      54.443427    
-807640.96      3.4803152      31.88487       25.945373      54.041557    
-807652.19      3.2390047      32.27048       25.990915      53.639527    
-807651.5       3.071968       32.854162      25.965148      53.237731    
-807645.51      2.9238184      31.956444      25.994048      52.835871    
-807633.14      3.2280116      32.570555      26.016303      52.433986    
-807623.62      2.8796122      32.548841      26.031008      52.032119    
-807616.3       3.1746318      34.671832      25.985495      51.630584    
-807619.65      2.8991328      33.841276      26.006928      51.229028    
-807631.23      2.5146494      32.039975      26.023552      50.82748     
-807646.37      2.7417265      32.326536      25.979885      50.426245    
-807652.16      3.1540273      32.574161      25.968972      50.025151    
-807649.04      3.541641       32.830271      25.987707      49.62405     
-807645.28      2.6630102      31.113702      25.959791      49.223172    
-807632.67      3.2036918      32.482196      25.961612      48.822369    
-807620.63      2.4398911      32.865338      25.921695      48.42184     
-807614.66      2.3062733      33.069235      25.918893      48.021401    
-807622.68      2.8882039      32.792769      25.932272      47.620977    
-807635.83      3.4286884      32.014021      25.985741      47.220383    
-807647.06      2.821478       31.245309      25.960807      46.819986    
-807648.82      3.1354072      32.722796      25.955028      46.419694    
-807649.77      3.1202246      32.918678      25.929539      46.019594    
-807642.91      2.2591331      31.735275      25.936237      45.61954     
-807629.94      2.8921323      33.399924      25.980757      45.219366    
-807616.53      2.9858324      34.428504      25.991717      44.819224    
-807615.57      3.3694054      35.496401      25.956445      44.419311    
-807625.11      3.183167       33.445487      25.968265      44.019425    
-807636.33      3.6138214      33.283534      26.127095      43.618953    
-807643.53      3.5158794      33.53729       26.195137      43.218295    
-807651.09      2.8726121      33.339873      26.06582       42.818256    
-807650.4       3.29067        32.285848      26.101038      42.418159    
-807639.94      3.0056368      32.239868      26.073101      42.018258    
-807626.27      3.3113773      32.809138      26.060364      41.618491    
-807617.5       2.83221        34.585882      26.011757      41.218992    
-807616.59      3.0753739      34.438292      26.098988      40.819236    
-807623.95      2.9585522      33.545637      26.147798      40.419381    
-807635.72      3.1891709      32.654461      26.056707      40.01995     
-807646.12      2.9690551      33.274512      26.067651      39.620558    
-807652.74      2.8610233      32.644602      26.062456      39.221264    
-807645.79      2.9007448      32.40645       26.109615      38.821878    
-807637.63      3.101602       32.250985      26.11342       38.42256     
-807626.55      2.9877014      32.659497      26.177097      38.023102    
-807618.31      3.5050372      33.321159      26.125508      37.623906    
-807616.39      3.3354284      33.761228      26.086245      37.224926    
-807626.32      3.6900521      32.405867      26.093047      36.825999    
-807638.19      2.7677674      32.267332      26.115434      36.427075    
-807647.77      2.7866888      32.591844      26.086093      36.028325    
-807646.83      3.3464757      33.460821      26.102499      35.629597    
-807644.86      3.5140665      32.990271      26.002418      35.231264    
-807636.45      2.8934799      32.719167      26.007013      34.832984    
-807625.58      3.1064735      33.966977      26.036603      34.434679    
-807615.49      3.1002318      33.983945      26.06368       34.036359    
-807620.08      3.1486508      33.462022      26.098755      33.638004    
-807628.41      2.6063309      32.23654       26.172719      33.239504    
-807641.58      2.6489002      31.371681      26.187146      32.841041    
-807645.11      2.5189325      32.609042      26.055375      32.443035    
-807650.51      2.5532107      31.770982      26.033399      32.045161    
-807643.76      2.8810437      32.173236      26.052431      31.647298    
-807637.27      2.683161       30.877682      25.990193      31.249674    
-807623.54      3.3174599      32.981921      26.028368      30.852008    
-807618.13      3.0867857      33.153275      26.111239      30.454182    
-807623.88      3.2183017      32.867963      26.088602      30.056487    
-807631.41      4.0299383      32.547278      26.046952      29.658967    
-807641.41      2.7779105      31.928341      26.138929      29.261276    
-807647.42      3.4587859      32.804375      26.102694      28.863747    
-807650.85      3.3604165      32.28689       26.121161      28.46624     
-807642.92      2.7164942      32.360524      26.141663      28.068752    
-807634.18      3.2148852      32.088206      26.139291      27.671339    
-807622.77      3.3151249      33.062449      26.106906      27.274071    
-807620.91      3.1154814      33.683262      26.168131      26.876727    
-807623.02      3.1199657      33.251644      26.129012      26.479542    
-807633.11      3.050933       32.165237      26.113834      26.082458    
-807642.29      2.7601157      31.64524       26.109905      25.685447    
-807649.46      3.3010965      32.837293      26.121723      25.288476    
-807648         3.3935422      31.827661      26.096999      24.891621    
-807641.92      3.8636985      32.293533      26.054356      24.494917    
-807632.67      2.68079        31.970243      26.051535      24.098278    
-807624.93      3.043117       33.568272      26.085123      23.70163     
-807619.58      2.9192873      33.638278      26.060373      23.305091    
-807625.37      2.8347593      32.944947      26.127315      22.90848     
-807632.86      2.5848312      32.221934      26.072184      22.512037    
-807644.98      2.8942061      31.803351      26.086321      22.115625    
-807647.37      2.8240741      32.602198      26.151652      21.719154    
-807645.25      3.0502527      32.350609      26.146012      21.322755    
-807639.13      2.7382328      31.994851      26.060326      20.926569    
-807632.44      2.8010942      32.355835      26.057661      20.530442    
-807621.63      3.2611199      33.61471       26.10842       20.134286    
-807619.59      3.4724846      33.450467      26.137492      19.738141    
-807626.02      2.5735783      33.168656      26.171733      19.342001    
-807636.51      2.6633249      32.317961      26.140212      18.945973    
-807643.38      3.3334015      32.738478      26.082809      18.550091    
-807645.21      3.1090866      33.177157      26.184062      18.154114    
-807644.78      2.8844021      32.756978      26.085085      17.758343    
-807637.9       2.6340041      32.909696      26.042144      17.362686    
-807628.68      2.8598796      32.737085      26.081422      16.967027    
-807620.52      3.2249989      33.277093      26.097456      16.571399    
-807621.06      3.5371599      33.277171      26.102632      16.175819    
-807628.57      3.0139602      32.706784      26.106397      15.780288    
-807637.4       3.3178473      32.083171      26.15008       15.384757    
-807642.79      2.972221       31.946769      26.165253      14.989265    
-807647.85      2.6051647      32.207537      26.135145      14.593866    
-807643.68      3.142819       32.513366      26.116254      14.198543    
-807638.42      3.1531891      31.096373      26.028959      13.80337     
-807625.65      2.8284744      32.865181      26.024825      13.408248    
-807620.66      3.2037306      34.414919      26.008133      13.013191    
-807622.08      2.7122763      33.152607      26.115992      12.61807     
-807628.15      3.0745963      32.964109      26.159225      12.22296     
-807636.75      2.7747472      32.881828      26.083693      11.827974    
-807643.3       3.2829029      33.737156      26.062489      11.433058    
-807646.97      3.1795268      33.540396      26.071629      11.03818     
-807642.24      3.15118        33.784458      26.050819      10.643369    
-807635.02      3.0483489      33.170433      25.996757      10.248647    
-807627.86      3.1334757      34.009936      26.02341       9.8539464    
-807622.47      3.0273033      34.085263      26.088916      9.4592413    
-807621.01      3.2271186      34.082513      26.072251      9.0645958    
-807629.62      3.4307902      33.170935      26.119684      8.6699647    
-807637.44      3.1484969      32.73479       26.12433       8.2753798    
-807644.16      3.2675553      33.281006      26.139788      7.8808347    
-807644.77      3.2250913      33.260127      26.12854       7.4863459    
-807641.13      3.2323595      33.148306      26.102432      7.0919201    
-807634.7       2.5701748      32.608547      26.090989      6.6975472    
-807627.49      2.6810312      33.212846      26.086126      6.3032225    
-807621.96      3.425326       34.216472      26.081521      5.9089452    
-807622.09      3.2814021      33.98174       25.995776      5.514749     
-807631.21      2.9046637      32.657193      26.103879      5.1205494    
-807640.25      2.7833788      32.753134      26.094426      4.7263987    
-807644.72      3.4688774      32.549587      26.046185      4.3323087    
-807645.42      2.8694049      32.064711      26.013815      3.9382699    
-807642.03      2.8510947      32.141649      26.044913      3.5442619    
-807635.75      3.211556       31.927326      26.029256      3.1502985    
-807627.48      2.7703355      31.941204      26.086328      2.7563629    
-807621.85      3.6951945      33.902292      26.080764      2.3624712    
-807625.31      3.494172       33.51888       26.147252      1.9686119    
-807634.63      4.0532361      32.615582      26.073023      1.5748074    
-807640.31      3.27774        32.423589      25.936827      1.1810563    
-807644.63      3.3033943      32.963819      26.011372      0.78733379   
-807646.05      3.3959135      32.680783      25.992952      0.39364897   
-807641.75      2.7849253      32.151058      25.993617      0            
Loop time of 196.816 on 32 procs for 5000 steps with 1080 atoms

Performance: 4.390 ns/day, 5.467 hours/ns, 25.405 timesteps/s, 27.437 katom-step/s
68.9% CPU use with 32 MPI tasks x 1 OpenMP threads

MPI task timing breakdown:
Section |  min time  |  avg time  |  max time  |%varavg| %total
---------------------------------------------------------------
Pair    | 106.32     | 145.95     | 192.37     | 307.5 | 74.15
Neigh   | 0          | 0          | 0          |   0.0 |  0.00
Comm    | 2.1638     | 48.592     | 88.225     | 532.8 | 24.69
Output  | 0.026087   | 0.027339   | 0.029013   |   0.3 |  0.01
Modify  | 1.9228     | 1.9346     | 1.9469     |   0.4 |  0.98
Other   |            | 0.3146     |            |       |  0.16

Nlocal:          33.75 ave          48 max          21 min
Histogram: 8 8 0 0 0 0 0 8 0 8
Nghost:        1106.25 ave        1119 max        1092 min
Histogram: 8 0 8 0 0 0 0 0 8 8
Neighs:              0 ave           0 max           0 min
Histogram: 32 0 0 0 0 0 0 0 0 0
FullNghs:       5494.5 ave        7896 max        3378 min
Histogram: 8 8 0 0 0 0 0 8 0 8

Total # of neighbors = 175824
Ave neighs/atom = 162.8
Neighbor list builds = 0
Dangerous builds = 0

reset_timestep 0


variable interval equal 1000
thermo 10

variable nintervals equal $(v_PERIOD/v_interval)
variable nintervals equal 100
variable efield equal 1e-2*36.36*cos((step/${PERIOD})*2*3.14)
variable efield equal 1e-2*36.36*cos((step/100000)*2*3.14)
fix born all addbornforce 0.0 0.0 v_efield

variable Px equal f_born[1]+c_polarization[1]
variable Py equal f_born[2]+c_polarization[2]
variable Pz equal (f_born[3]+c_polarization[3])/vol
variable pe equal pe

fix aveP all ave/time 1 $(v_interval/2) ${interval} v_efield v_Pz v_pe f_born file Pz.${MODEL}.${STRUCTURE}.${TEMP}.$L.${ITER}
fix aveP all ave/time 1 500 ${interval} v_efield v_Pz v_pe f_born file Pz.${MODEL}.${STRUCTURE}.${TEMP}.$L.${ITER}
fix aveP all ave/time 1 500 1000 v_efield v_Pz v_pe f_born file Pz.${MODEL}.${STRUCTURE}.${TEMP}.$L.${ITER}
fix aveP all ave/time 1 500 1000 v_efield v_Pz v_pe f_born file Pz.BaTiO3-E0.${STRUCTURE}.${TEMP}.$L.${ITER}
fix aveP all ave/time 1 500 1000 v_efield v_Pz v_pe f_born file Pz.BaTiO3-E0.BaTiO3-sc333.${TEMP}.$L.${ITER}
fix aveP all ave/time 1 500 1000 v_efield v_Pz v_pe f_born file Pz.BaTiO3-E0.BaTiO3-sc333.280.$L.${ITER}
fix aveP all ave/time 1 500 1000 v_efield v_Pz v_pe f_born file Pz.BaTiO3-E0.BaTiO3-sc333.280.2.${ITER}
fix aveP all ave/time 1 500 1000 v_efield v_Pz v_pe f_born file Pz.BaTiO3-E0.BaTiO3-sc333.280.2.4

thermo_style custom step time temp press pe f_born v_efield v_Pz spcpu cpuremain

# dump 4a all custom 1000 dump.hyst.${MODEL}.${STRUCTURE}.${TEMP}.$L.${ITER}.bin id type xu yu zu fx fy fz
# dump_modify 4a sort id

fix nvt all nvt temp ${TEMP} ${TEMP} $(100*dt)
fix nvt all nvt temp 280 ${TEMP} $(100*dt)
fix nvt all nvt temp 280 280 $(100*dt)
fix nvt all nvt temp 280 280 0.2000000000000000111

run $(v_PERIOD)
run 100000
WARNING: non-constant efield is experimental, strongly distrust scalar/vector output (src/fix_addbornforce.cpp:193)
Per MPI rank memory allocation (min/avg/max) = 3.516 | 3.516 | 3.516 Mbytes
   Step          Time           Temp          Press          PotEng         f_born        v_efield         v_Pz          S/CPU         CPULeft    
         0   0              270.79607      128621.65     -807641.75     -297.79347      0.3636         0.056006548    0              0            
        10   0.02           274.22032      134182.43     -807632.63     -307.50273      0.36359993     0.057832598    29.206383      3423.5855    
        20   0.04           269.66677      141160.81     -807625.63     -313.83406      0.36359971     0.059023379    29.175188      3425.0638    
        30   0.06           263.77256      141396.37     -807624.16     -314.39995      0.36359935     0.059129865    29.18594       3424.9076    
        40   0.08           271.13026      139415.98     -807626.78     -312.70545      0.36359885     0.058811258    29.171984      3425.0674    
        50   0.1            271.20228      132884.6      -807633.44     -306.01849      0.36359821     0.057553726    29.217564      3423.9573    
        60   0.12           268.71677      127100.43     -807641.16     -297.68756      0.36359742     0.055987028    29.21503       3423.1526    
        70   0.14           257.68876      122856.7      -807646.18     -290.92332      0.36359649     0.054714997    29.172584      3423.191     
        80   0.16           261.55022      124797.2      -807644.76     -292.65323      0.36359541     0.05504051     29.154152      3423.4049    
        90   0.18           275.33491      128680.2      -807639.05     -300.12571      0.36359419     0.05644608     29.215376      3422.6974    
       100   0.2            275.61263      135566.46     -807631.23     -307.77153      0.36359283     0.057884282    29.201005      3422.2303    
       110   0.22           279.84384      140034.75     -807626.48     -312.77101      0.36359132     0.058824806    29.223646      3421.5455    
       120   0.24           271.42534      142659.14     -807621.95     -315.8374       0.36358968     0.059401789    29.289769      3420.2748    
       130   0.26           278.01582      139089.94     -807625.44     -313.0669       0.36358788     0.058881012    29.244794      3419.5504    
       140   0.28           288.59294      132877.75     -807635.22     -304.4983       0.36358595     0.057269752    29.205436      3419.2092    
       150   0.3            274.28745      126624.96     -807641.92     -295.57668      0.36358387     0.0555921      29.174884      3419.1067    
       160   0.32           268.09395      123962.41     -807644.58     -291.86882      0.36358165     0.05489506     29.216681      3418.6681    
       170   0.34           265.67827      124554.23     -807642.23     -293.77998      0.36357928     0.055254874    29.183144      3418.4719    
       180   0.36           283.25396      129157.4      -807638.68     -299.67936      0.36357677     0.056364833    29.150033      3418.4752    
       190   0.38           287.51516      135383.65     -807631.67     -307.19154      0.36357412     0.057778173    29.199278      3418.1382    
       200   0.4            279.80806      140801.54     -807623.49     -314.24644      0.36357132     0.059105551    29.215662      3417.7047    
       210   0.42           275.87126      142166.37     -807621.37     -315.75894      0.36356838     0.059390512    29.223056      3417.2387    
       220   0.44           283.36036      139025.94     -807626.94     -311.13217      0.3635653      0.058520767    29.236189      3416.7144    
       230   0.46           286.21365      132202.36     -807635.06     -303.35789      0.36356207     0.057059012    29.221285      3416.2815    
       240   0.48           275.25313      126558.53     -807640.82     -295.99518      0.3635587      0.055674665    29.226068      3415.8331    
       250   0.5            270.45863      123578.48     -807643.87     -292.20832      0.36355519     0.054962914    29.250685      3415.278     
       260   0.52           273.41283      124389.44     -807642.83     -293.61331      0.36355153     0.055227741    29.172441      3415.0913    
       270   0.54           287.45298      129907.57     -807638.05     -300.37273      0.36354773     0.056499756    29.181443      3414.8539    
       280   0.56           285.10243      137244.37     -807628.78     -309.35124      0.36354379     0.058189235    29.20347       3414.5167    
       290   0.58           284.48306      141968.21     -807622.89     -315.08932      0.3635397      0.05926924     29.255962      3413.9681    
       300   0.6            273.74905      142089.92     -807622.2      -314.25808      0.36353547     0.059113568    29.256345      3413.4318    
       310   0.62           285.33373      137619.3      -807628.65     -309.33191      0.3635311      0.058187631    29.262928      3412.8833    
       320   0.64           290.26031      130428.57     -807636.17     -302.50579      0.36352658     0.056904294    29.262294      3412.35      
       330   0.66           277.25992      126447.32     -807641.15     -295.70064      0.36352192     0.055624891    29.222328      3411.9695    
       340   0.68           277.38         123681.11     -807645.53     -291.26296      0.36351712     0.054790833    29.180527      3411.735     
       350   0.7            276.99204      125947.8      -807643.2      -293.51153      0.36351217     0.055214574    29.201457      3411.4243    
       360   0.72           289.48354      130763.08     -807636.17     -302.38645      0.36350708     0.056884897    29.179677      3411.1826    
       370   0.74           284.49776      138078.41     -807627.06     -310.79444      0.36350185     0.058467447    29.136029      3411.0737    
       380   0.76           277.8256       141757.01     -807623.4      -313.56734      0.36349647     0.058989965    29.22308       3410.6844    
       390   0.78           282.19325      141423.64     -807623.8      -313.7404       0.36349095     0.059023418    29.255185      3410.2017    
       400   0.8            280.63082      136926.84     -807628.24     -309.14054      0.36348529     0.058158961    29.230925      3409.7964    
       410   0.82           286.48899      130724.66     -807636.4      -301.79403      0.36347948     0.056777762    29.212694      3409.4464    
       420   0.84           281.1845       125451.79     -807643.41     -294.03106      0.36347353     0.055318186    29.229099      3409.0511    
       430   0.86           265.8283       124160.82     -807643.97     -291.394        0.36346744     0.054822977    29.220784      3408.6808    
       440   0.88           275.3254       126810.87     -807640.85     -295.91586      0.3634612      0.055674676    29.170242      3408.4459    
       450   0.9            291.60687      131723.47     -807635.19     -303.96518      0.36345482     0.057190109    29.202887      3408.1216    
       460   0.92           287.77211      138713        -807627.93     -310.75713      0.3634483      0.058469043    29.178243      3407.8588    
       470   0.94           277.62723      141190.87     -807623.84     -313.50515      0.36344163     0.058987165    29.215978      3407.4991    
       480   0.96           277.21182      141301.08     -807623.87     -313.51562      0.36343482     0.058990241    29.227751      3407.1113    
       490   0.98           283.55249      135589.58     -807630.41     -308.01249      0.36342786     0.057955895    29.186832      3406.823     
       500   1              283.56181      130258.72     -807637.88     -300.57849      0.36342077     0.056558213    29.195694      3406.5118    
       510   1.02           262.53196      124842.79     -807642.74     -9376.2188      0.36341353     0.055134594    29.059458      3406.5126    
       520   1.04           269.75889      124643.87     -807643.08     -9398.2361      0.36340614     0.055265185    29.063097      3406.492     
       530   1.06           269.78759      126944.4      -807639.06     -9535.268       0.36339862     0.056072146    29.096572      3406.3846    
       540   1.08           285.8247       133538.77     -807634.08     -9771.2938      0.36339095     0.057461308    29.104297      3406.2519    
       550   1.1            279.83239      137776.07     -807628.35     -9934.1673      0.36338313     0.058420362    29.138744      3406.038     
       560   1.12           275.69908      141357.41     -807624.23     -10051.856      0.36337518     0.059113752    29.166802      3405.7609    
       570   1.14           272.95881      139669.44     -807625.88     -9995.204       0.36336707     0.058781901    29.151268      3405.5133    
       580   1.16           273.64558      135257.07     -807632.1      -9803.6826      0.36335883     0.05765687     29.118217      3405.3292    
       590   1.18           275.19787      128237.8      -807641.04     -9528.3481      0.36335044     0.056038881    29.125526      3405.1251    
       600   1.2            268.15606      124832.47     -807644        -9404.5859      0.36334191     0.0553123      29.156052      3404.8569    
       610   1.22           257.37806      124724.07     -807642.68     -9405.7476      0.36333324     0.055320453    29.137013      3404.6228    
       620   1.24           268.08448      128634.71     -807639.31     -9562.2592      0.36332442     0.05624235     29.137742      3404.3837    
       630   1.26           285.73886      131635.75     -807636.17     -9745.6745      0.36331546     0.057322558    29.135851      3404.1449    
       640   1.28           274.70186      139914.72     -807626.31     -10013.67       0.36330636     0.058900344    29.134108      3403.9059    
       650   1.3            266.06401      140587.96     -807623.65     -10063.26       0.36329711     0.059193539    29.155375      3403.6255    
       660   1.32           277.01575      138255.2      -807627.89     -9974.4194      0.36328772     0.05867248     29.124685      3403.3977    
       670   1.34           275.04793      131783.03     -807636.05     -9707.1923      0.36327819     0.057102069    29.134025      3403.1499    
       680   1.36           265.76645      129168.03     -807638.85     -9572.0627      0.36326851     0.056308676    29.073732      3403.0035    
       690   1.38           260.77413      123922.64     -807643.89     -9388.6585      0.36325869     0.055231274    29.057441      3402.879     
       700   1.4            263.75006      125564.69     -807643.94     -9394.2319      0.36324873     0.055265577    29.065876      3402.734     
       710   1.42           272.90901      127683.74     -807640.31     -9550.4078      0.36323863     0.056185912    29.07692       3402.5652    
       720   1.44           279.73652      135417.35     -807631.47     -9857.1544      0.36322838     0.057992166    29.112575      3402.3335    
       730   1.46           278.56715      139017.19     -807626.06     -10020.284      0.36321798     0.058953587    29.148437      3402.0412    
       740   1.48           277.89431      140575.95     -807625.7      -10017.552      0.36320745     0.058939221    29.149024      3401.7467    
       750   1.5            280.71333      137613.33     -807628.51     -9931.1427      0.36319677     0.058432543    29.125734      3401.4871    
       760   1.52           278.19356      132527.68     -807633.36     -9755.929       0.36318595     0.057403337    29.125556      3401.2255    
       770   1.54           286.21174      127574.88     -807641.41     -9520.2436      0.36317498     0.056018269    29.093344      3401.0109    
       780   1.56           263.87941      124001.55     -807643.4      -9347.0815      0.36316387     0.055001044    29.078851      3400.8147    
       790   1.58           272.00785      126056.04     -807641.72     -9427.0665      0.36315262     0.055473418    29.135388      3400.531     
       800   1.6            284.77012      129423.74     -807637.66     -9606.8269      0.36314122     0.056532989    29.119739      3400.2687    
       810   1.62           287.26464      136795.92     -807629.98     -9854.7214      0.36312968     0.057993609    29.116003      3400.0098    
       820   1.64           281.17248      139257.26     -807626.01     -9949.6986      0.363118       0.05855442     29.085354      3399.7926    
       830   1.66           278.15288      141786.01     -807622.82     -10031.586      0.36310618     0.059038257    29.108586      3399.5396    
       840   1.68           292.46712      136233.69     -807629.47     -9880.0556      0.36309421     0.058148378    29.145986      3399.2323    
       850   1.7            287.07648      132681.4      -807633.75     -9712.7179      0.3630821      0.057165431    29.158178      3398.9074    
       860   1.72           293.54091      125439.66     -807643.14     -9440.2701      0.36306984     0.05556378     29.14235       3398.6037    
       870   1.74           268.85814      126454.53     -807641.28     -9386.6883      0.36305745     0.055250293    29.145144      3398.2954    
       880   1.76           272.83425      126261.08     -807640.26     -9437.5477      0.3630449      0.055551572    29.14378       3397.9879    
       890   1.78           287.05351      131741.93     -807635.51     -9652.3388      0.36303222     0.056817867    29.118673      3397.7126    
       900   1.8            290.97797      136023.19     -807630.44     -9833.2588      0.36301939     0.057884886    29.115363      3397.4402    
       910   1.82           279.41855      140298.05     -807624.17     -9980.5118      0.36300642     0.058753811    29.116767      3397.1644    
       920   1.84           287.46793      140189.77     -807624.75     -9996.6638      0.36299331     0.058851022    29.141354      3396.8559    
       930   1.86           290.74373      136628.95     -807629.5      -9860.744       0.36298005     0.058052973    29.129805      3396.5611    
       940   1.88           287.7836       131371.74     -807635.21     -9664.3877      0.36296665     0.056899069    29.132211      3396.2623    
       950   1.9            278.65139      126246.62     -807640.17     -9465.7982      0.36295311     0.055731953    29.136029      3395.9579    
       960   1.92           275.75356      126516.98     -807641.77     -9401.5278      0.36293942     0.055355634    29.171657      3395.6094    
       970   1.94           269.20705      126864.49     -807639        -9466.0565      0.36292559     0.055737699    29.142688      3395.2958    
       980   1.96           288.92101      131876.95     -807635.06     -9682.2775      0.36291162     0.057013039    29.131837      3394.9946    
       990   1.98           283.59793      135795.66     -807628.63     -9867.7794      0.3628975      0.058107607    29.124934      3394.7007    
      1000   2              285.33181      140600.34     -807624.31     -10015.91       0.36288325     0.05898221     29.004848      3394.5465    
      1010   2.02           280.38545      138421.91     -807626.47     -310.25109      0.36286884     0.058467045    29.248098      3394.1074    
      1020   2.04           288.26275      135946.79     -807630.06     -307.74679      0.3628543      0.057997433    29.268383      3393.6473    
      1030   2.06           286.32555      129459.51     -807637.34     -300.38783      0.36283961     0.056612869    29.259298      3393.1997    
      1040   2.08           270.83918      128363.88     -807638.84     -296.70699      0.36282478     0.055921442    29.216628      3392.8016    
      1050   2.1            280.12353      124756.88     -807644.28     -292.74127      0.3628098      0.055176284    29.174385      3392.4513    
      1060   2.12           275.96247      130091.79     -807639.12     -297.38077      0.36279469     0.05605308     29.137019      3392.1421    
      1070   2.14           286.15578      131930.39     -807634.96     -303.20175      0.36277943     0.057152675    29.148176      3391.8202    
      1080   2.16           273.96926      139093.79     -807626.49     -310.0811       0.36276402     0.058451896    29.182573      3391.4608    
      1090   2.18           276.08957      139244.12     -807626.14     -310.90942      0.36274848     0.058610551    29.213969      3391.0683    
      1100   2.2            273.75289      139935.35     -807625.23     -311.56692      0.36273279     0.058737038    29.210036      3390.6809    
      1110   2.22           286.1611       133797.77     -807633.22     -305.52988      0.36271695     0.057601442    29.20297       3390.3017    
      1120   2.24           273.62791      130777.18     -807636.03     -301.00631      0.36270098     0.056751114    29.204346      3389.9217    
      1130   2.26           275.34129      124853.15     -807643.58     -293.85605      0.36268486     0.05540548     29.17998       3389.5674    
      1140   2.28           268.3521       126339.59     -807642.04     -294.4933       0.3626686      0.055528123    29.178987      3389.2143    
      1150   2.3            276.98049      127934.45     -807639.61     -298.33815      0.36265219     0.05625563     29.152461      3388.8882    
      1160   2.32           280.64438      133007.32     -807634.62     -303.97888      0.36263564     0.057321883    29.2082        3388.5061    
      1170   2.34           275.65865      137734.81     -807628.68     -309.361        0.36261895     0.058339483    29.219102      3388.1138    
      1180   2.36           277.27279      138448.18     -807627.8      -310.60706      0.36260212     0.058577185    29.264573      3387.6778    
      1190   2.38           266.32873      138975.14     -807625.75     -311.12343      0.36258514     0.058677314    29.274385      3387.2339    
      1200   2.4            273.74702      133140.06     -807633.47     -304.56467      0.36256802     0.057443058    29.240882      3386.8239    
      1210   2.42           279.19073      129638.42     -807639.39     -299.35904      0.36255076     0.056463926    29.201273      3386.4529    
      1220   2.44           263.12464      125141.1      -807642.62     -294.00169      0.36253335     0.055456106    29.177203      3386.1053    
      1230   2.46           265.81622      127016.17     -807640.77     -296.22163      0.3625158      0.055877549    29.184542      3385.7508    
      1240   2.48           280.18307      127537.33     -807641.39     -297.73393      0.36249811     0.05616556     29.189884      3385.3915    
      1250   2.5            277.13583      134886.63     -807633.8      -304.90104      0.36248028     0.057520418    29.163463      3385.0571    
      1260   2.52           275.11681      136547.74     -807629.28     -309.25856      0.3624623      0.058345371    29.191783      3384.6964    
      1270   2.54           272.67711      140418.87     -807625.71     -312.44566      0.36244418     0.058949603    29.209577      3384.3197    
      1280   2.56           268.61211      136030.02     -807629.75     -307.84981      0.36242592     0.058085425    29.239998      3383.9162    
      1290   2.58           273.5746       133186.73     -807634.15     -304.02416      0.36240751     0.057366509    29.232757      3383.52      
      1300   2.6            265.06993      127337.79     -807639.43     -297.5317       0.36238896     0.056144317    29.134896      3383.212     
      1310   2.62           265.82542      127738.34     -807640.65     -296.23775      0.36237027     0.055903032    29.127683      3382.9098    
      1320   2.64           264.59456      125708.2      -807642.44     -294.17372      0.36235143     0.055516414    29.114837      3382.6183    
      1330   2.66           274.27338      130544.36     -807638.29     -299.44735      0.36233245     0.056514613    29.128489      3382.3141    
      1340   2.68           273.59274      134048.85     -807632.23     -305.31762      0.36231333     0.057625549    29.209678      3381.9391    
      1350   2.7            280.0876       138955.36     -807627.78     -310.33677      0.36229407     0.058575976    29.240828      3381.5378    
      1360   2.72           281.56493      138045.57     -807627.76     -310.26923      0.36227466     0.058566364    29.261487      3381.12      
      1370   2.74           268.14544      138037.99     -807628.53     -307.33317      0.36225511     0.058015284    29.250721      3380.7122    
      1380   2.76           287.13461      132430.1      -807636.11     -302.10809      0.36223542     0.057032047    29.247536      3380.3082    
      1390   2.78           282.63003      128801.33     -807639.48     -297.74548      0.36221558     0.05621155     29.20596       3379.9395    
      1400   2.8            270.90525      125933.31     -807642.62     -292.69089      0.3621956      0.055260339    29.217892      3379.5614    
      1410   2.82           275.40298      127380.72     -807641.45     -294.24819      0.36217548     0.055557445    29.217892      3379.1838    
      1420   2.84           295.13879      130081.08     -807638.08     -300.17589      0.36215522     0.056679835    29.277294      3378.7584    
      1430   2.86           285.40884      135423.3      -807630.09     -306.6226       0.36213481     0.057900379    29.294102      3378.3208    
      1440   2.88           282.43322      138839.03     -807626.36     -309.7345       0.36211426     0.058491326    29.287127      3377.89      
      1450   2.9            280.08086      139573.22     -807626.14     -309.44114      0.36209357     0.058439267    29.286792      3377.4607    
      1460   2.92           292.809        136448.64     -807629.59     -307.63653      0.36207273     0.058101801    29.237234      3377.0717    
      1470   2.94           281.53046      131919.86     -807633.43     -302.05773      0.36205176     0.057051467    29.187611      3376.7223    
      1480   2.96           278.25169      128898.89     -807639.38     -295.48792      0.36203064     0.055813844    29.199445      3376.3638    
      1490   2.98           277.31997      125633.21     -807642.34     -292.28017      0.36200937     0.055211184    29.173386      3376.0257    
      1500   3              287.68725      128129.33     -807639.9      -296.02965      0.36198796     0.055922761    29.208486      3375.6605    
      1510   3.02           292.62297      130557.27     -807635.64     -9633.1075      0.36196642     0.056871629    29.09322       3375.3841    
      1520   3.04           289.21015      137096.57     -807629.57     -9808.1301      0.36194472     0.057908392    29.070644      3375.124     
      1530   3.06           285.36155      138237.18     -807627.13     -9869.0286      0.36192289     0.05827146     29.091128      3374.8473    
      1540   3.08           288.48032      140501.83     -807624.74     -9955.8337      0.36190091     0.058787568    29.106616      3374.558     
      1550   3.1            284.58696      134853.45     -807629.25     -9796.1262      0.36187879     0.057848057    29.070568      3374.2951    
      1560   3.12           287.31606      132617.08     -807634.71     -9629.5463      0.36185653     0.056867869    29.044774      3374.0504    
      1570   3.14           284.63839      125604.61     -807642.39     -9373.8777      0.36183412     0.055361431    29.070757      3373.7852    
      1580   3.16           274.67356      127541.71     -807639.67     -9414.4378      0.36181157     0.05560444     29.113907      3373.4872    
      1590   3.18           284.23391      126698.3      -807640.04     -9450.6373      0.36178888     0.055821746    29.151766      3373.161     
      1600   3.2            293.08646      132564.58     -807635.45     -9636.489       0.36176605     0.056923103    29.176281      3372.8169    
      1610   3.22           288.64804      134868.03     -807630.86     -9767.656       0.36174307     0.057701576    29.182103      3372.4686    
      1620   3.24           287.6183       140726.54     -807625.2      -9948.4589      0.36171995     0.058773409    29.133705      3372.155     
      1630   3.26           294.30013      138563.32     -807627.22     -9918.8579      0.36169669     0.058602302    29.102421      3371.8633    
      1640   3.28           283.32569      135846.97     -807630.44     -9768.2165      0.36167329     0.057716021    29.146657      3371.5396    
      1650   3.3            280.73484      129900.78     -807637.76     -9526.692       0.36164974     0.056292626    29.164372      3371.2033    
      1660   3.32           281.04528      127265.15     -807640.28     -9452.9586      0.36162605     0.055860598    29.165875      3370.8659    
      1670   3.34           275.8641       126525.9      -807640.94     -9414.9987      0.36160222     0.055639948    29.15052       3370.539     
      1680   3.36           273.58545      128829.13     -807639.41     -9459.1689      0.36157824     0.055904688    29.105805      3370.2428    
      1690   3.38           280.8665       132813.45     -807634.24     -9661.9373      0.36155413     0.05710688     29.150496      3369.9154    
      1700   3.4            285.8408       136358.82     -807629.17     -9854.2804      0.36152987     0.058247632    29.143732      3369.5924    
      1710   3.42           279.2517       139871.6      -807625.68     -9940.6279      0.36150546     0.05876199     29.165828      3369.2543    
      1720   3.44           286.83925      135755.78     -807630.74     -9818.8044      0.36148092     0.058045796    29.176097      3368.9091    
      1730   3.46           277.88915      134605.02     -807632.54     -9725.2262      0.36145623     0.057496517    29.149297      3368.5819    
      1740   3.48           271.85692      128467.21     -807637.79     -9539.1203      0.3614314      0.056400114    29.137291      3368.2626    
      1750   3.5            277.21663      127453.36     -807641.5      -9445.0329      0.36140643     0.055847681    29.142427      3367.9395    
      1760   3.52           264.32041      125484.17     -807642.91     -9347.4797      0.36138131     0.055274698    29.133823      3367.6219    
      1770   3.54           271.29394      130780.43     -807638.28     -9527.5969      0.36135605     0.056343728    29.099547      3367.3264    
      1780   3.56           279.21888      131747.26     -807634.25     -9699.1737      0.36133065     0.057362421    29.080978      3367.0425    
      1790   3.58           278.20471      137328.73     -807628.23     -9884.5801      0.36130511     0.058463076    29.103711      3366.7432    
      1800   3.6            278.92917      137137.46     -807629.94     -9835.4136      0.36127942     0.058176413    29.077971      3366.4599    
      1810   3.62           266.42241      138159.19     -807627.81     -9847.2365      0.3612536      0.058250509    29.072475      3366.1796    
      1820   3.64           284.65772      132204.41     -807634.7      -9708.5351      0.36122763     0.057434162    29.083789      3365.8913    
      1830   3.66           263.84466      130617.5      -807636.67     -9548.9987      0.36120151     0.056494453    29.102919      3365.5903    
      1840   3.68           265.55511      125794.97     -807642.92     -9354.9784      0.36117526     0.055350601    29.145578      3365.262     
      1850   3.7            272.92734      127366.31     -807641.86     -9419.2208      0.36114886     0.055734777    29.151197      3364.93      
      1860   3.72           270.89397      128920        -807637.51     -9549.8759      0.36112232     0.056512034    29.148212      3364.5998    
      1870   3.74           276.8022       133672.06     -807632.95     -9717.9469      0.36109564     0.057510854    29.153512      3364.2661    
      1880   3.76           274.95094      136204.23     -807630.27     -9793.4571      0.36106881     0.05796203     29.174451      3363.9196    
      1890   3.78           270.63785      138285.32     -807627.08     -9872.5768      0.36104184     0.05843466     29.171384      3363.5748    
      1900   3.8            273.56464      136832.35     -807628.2      -9844.0598      0.36101474     0.058270246    29.17602       3363.2274    
      1910   3.82           279.60598      132103.7      -807634.76     -9658.0366      0.36098748     0.05717343     29.178191      3362.8786    
      1920   3.84           270.05361      128351.11     -807639.38     -9462.2773      0.36096009     0.056018829    29.182538      3362.5273    
      1930   3.86           273.51777      126730.64     -807641.44     -9407.1868      0.36093255     0.05569693     29.093623      3362.2294    
      1940   3.88           273.46756      127448.08     -807639.16     -9476.8517      0.36090487     0.056113696    29.074128      3361.9426    
      1950   3.9            273.53969      129693.05     -807636.86     -9549.0209      0.36087705     0.056545379    29.078715      3361.6524    
      1960   3.92           275.3896       134211.6      -807632.36     -9695.948       0.36084909     0.05741987     29.11299       3361.3415    
      1970   3.94           278.49422      137235.87     -807628.36     -9836.5903      0.36082098     0.058257299    29.095284      3361.0407    
      1980   3.96           279.79054      138940.45     -807626.81     -9889.0916      0.36079273     0.058572823    29.078905      3360.749     
      1990   3.98           280.01224      135657.98     -807630.17     -9777.8063      0.36076434     0.057918241    29.0962        3360.4467    
      2000   4              280.68009      131976.51     -807635.74     -9600.6596      0.36073581     0.056873422    29.078975      3360.154     
      2010   4.02           277.35428      128393.98     -807639.32     -295.88567      0.36070713     0.05609404     29.1785        3359.8036    
      2020   4.04           277.98875      126823.86     -807640.19     -295.02208      0.36067831     0.055934789    29.215567      3359.4321    
      2030   4.06           264.96116      128189.56     -807638.53     -294.81004      0.36064935     0.055899075    29.273362      3359.0284    
      2040   4.08           273.49867      131175.41     -807636.52     -297.93535      0.36062025     0.056496225    29.230418      3358.6494    
      2050   4.1            283.44076      134242.74     -807632.3      -303.50171      0.36059101     0.057556419    29.214053      3358.2798    
      2060   4.12           283.29376      137322.01     -807626.75     -308.93678      0.36056162     0.058591907    29.242841      3357.8945    
      2070   4.14           277.79191      137416.41     -807627.51     -307.33641      0.36053209     0.05829316     29.267869      3357.4958    
      2080   4.16           278.24385      135530.39     -807631.37     -303.43086      0.36050242     0.057557124    29.260692      3357.1016    
      2090   4.18           277.12592      131645.64     -807634.78     -299.81938      0.36047261     0.056876772    29.26693       3356.7045    
      2100   4.2            277.25786      129444.4      -807636.93     -297.60379      0.36044265     0.056461159    29.231463      3356.3272    
      2110   4.22           282.3198       126783.91     -807641.94     -293.17802      0.36041256     0.055626152    29.18876       3355.9735    
      2120   4.24           275.29626      128427.94     -807640.1      -293.97884      0.36038232     0.055782774    29.100742      3355.6677    
      2130   4.26           281.90531      130953.91     -807636.07     -298.88223      0.36035193     0.05671798     29.125071      3355.3484    
      2140   4.28           280.94813      134939.71     -807629.96     -304.78182      0.36032141     0.057842427    29.18591       3354.9962    
      2150   4.3            278.16712      137239.47     -807628.62     -305.72272      0.36029075     0.058025932    29.239808      3354.6152    
      2160   4.32           278.1489       137787.26     -807628.24     -305.97059      0.36025994     0.058077943    29.245643      3354.2316    
      2170   4.34           283.54478      134375.85     -807631.62     -303.37304      0.36022899     0.057589837    29.264388      3353.8384    
      2180   4.36           282.43987      132217.38     -807634.52     -300.17538      0.36019789     0.056987737    29.243755      3353.4566    
      2190   4.38           281.842        128201.45     -807639.98     -294.56588      0.36016666     0.055927635    29.239563      3353.0773    
      2200   4.4            278.65345      127112.74     -807641.99     -292.02127      0.36013528     0.055449333    29.222323      3352.7073    
      2210   4.42           286.62304      128346.5      -807639.57     -295.51625      0.36010377     0.056117875    29.228795      3352.3342    
      2220   4.44           280.34639      131684.96     -807634.33     -299.83589      0.36007211     0.056943173    29.205073      3351.9736    
      2230   4.46           282.04586      135117.04     -807631.27     -303.03072      0.3600403      0.057555       29.162804      3351.635     
      2240   4.48           277.00074      137492.26     -807628.33     -305.22932      0.36000836     0.057977727    29.162074      3351.2967    
      2250   4.5            281.37669      137213.88     -807627.94     -306.1548       0.35997627     0.058158704    29.193694      3350.9422    
      2260   4.52           292.12076      134896.43     -807631.67     -303.8835       0.35994404     0.057732404    29.140832      3350.6147    
      2270   4.54           280.08674      131460.84     -807635.74     -298.01407      0.35991167     0.056622411    29.200041      3350.2571    
      2280   4.56           280.98125      128143.33     -807639.75     -293.96714      0.35987916     0.055858543    29.185512      3349.9069    
      2290   4.58           288.47264      126672.25     -807640.94     -293.79467      0.35984651     0.055830837    29.226546      3349.5363    
      2300   4.6            273.9481       129380.65     -807636.7      -295.96643      0.35981371     0.056248671    29.227888      3349.1652    
      2310   4.62           287.13105      131853.82     -807635.58     -298.85601      0.35978077     0.056803038    29.23936       3348.7888    
      2320   4.64           282.92543      134282.6      -807631.44     -302.33832      0.35974769     0.057470198    29.227172      3348.4186    
      2330   4.66           281.3411       137299.16     -807627.68     -305.85659      0.35971447     0.058144341    29.242238      3348.0413    
      2340   4.68           281.24453      137044.93     -807627.68     -305.76533      0.35968111     0.058132384    29.258629      3347.6563    
      2350   4.7            293.73551      133183.39     -807634.12     -300.94136      0.3596476      0.057220576    29.269478      3347.2663    
      2360   4.72           279.84758      131272.18     -807635.99     -297.02574      0.35961396     0.056481351    29.25515       3346.8838    
      2370   4.74           279.25102      128337.02     -807637.85     -295.05727      0.35958017     0.056112306    29.205574      3346.5254    
      2380   4.76           276.2637       128174.77     -807637.93     -294.47413      0.35954624     0.056006691    29.222532      3346.1591    
      2390   4.78           283.70952      129048.75     -807638.4      -295.03062      0.35951216     0.05611785     29.21391       3345.7971    
      2400   4.8            283.11138      132260.38     -807633.91     -299.35355      0.35947795     0.056945535    29.191111      3345.4461    
      2410   4.82           292.04832      134686.79     -807631.05     -303.49338      0.35944359     0.057738567    29.150692      3345.1144    
      2420   4.84           285.87692      136793.13     -807628.17     -305.5314       0.35940909     0.058131871    29.169013      3344.774     
      2430   4.86           288.86194      135384.34     -807631.38     -302.71052      0.35937446     0.057600709    29.134962      3344.4496    
      2440   4.88           287.3749       133609.13     -807633.57     -300.29595      0.35933967     0.057146788    29.124858      3344.1298    
      2450   4.9            285.48877      129586.87     -807636.72     -296.95137      0.35930475     0.056515802    29.128727      3343.808     
      2460   4.92           270.03377      129095.31     -807637.29     -294.15609      0.35926969     0.055989268    29.104735      3343.4973    
      2470   4.94           279.65332      126903.36     -807640.43     -292.44199      0.35923448     0.055668463    29.12112       3343.1786    
      2480   4.96           290.59364      130335.2      -807637.63     -296.76591      0.35919913     0.056497112    29.182573      3342.8313    
      2490   4.98           278.86399      132768.44     -807632.72     -300.24033      0.35916364     0.057164207    29.186012      3342.4825    
      2500   5              288.26465      136907.54     -807629.59     -304.69911      0.35912801     0.058018891    29.157816      3342.1466    
[...]
     98740   197.48         273.65313      131246.64     -807636.97     -9605.2836      0.36236891     0.056644376    26.275871      43.827985    
     98750   197.5          276.23093      133065.91     -807633.53     -9721.4657      0.36238762     0.057326568    26.267392      43.48056     
     98760   197.52         279.62029      130640.06     -807635.67     -9666.2186      0.36240618     0.056997861    26.273822      43.133126    
     98770   197.54         273.27866      133834.99     -807634.4      -9671.3265      0.36242459     0.057025083    26.272014      42.785687    
     98780   197.56         284.74929      132312.49     -807635.97     -9671.4133      0.36244287     0.05702272     26.290393      42.438237    
     98790   197.58         280.00368      134763.69     -807631.83     -9777.5024      0.362461       0.057645338    26.295289      42.09078     
     98800   197.6          277.88357      132660.84     -807632.81     -9732.505       0.36247899     0.057377199    26.309402      41.743314    
     98810   197.62         277.71229      133043.04     -807634.1      -9683.6999      0.36249683     0.057086662    26.314247      41.395841    
     98820   197.64         272.13402      132209.34     -807634.17     -9652.7449      0.36251453     0.056901399    26.264776      41.048369    
     98830   197.66         281.06105      132727.77     -807633.22     -9716.8305      0.36253209     0.057276399    26.279956      40.700888    
     98840   197.68         277.96676      132738.58     -807634.22     -9666.1974      0.36254951     0.056975202    26.27012       40.353402    
     98850   197.7          282.69814      132739.12     -807635.2      -9648.2883      0.36256678     0.056866932    26.300385      40.005904    
     98860   197.72         283.50909      132946.76     -807634.58     -9668.498       0.36258391     0.056983356    26.31801       39.658397    
     98870   197.74         283.5984       133537.27     -807632.49     -9732.7273      0.3626009      0.057359217    26.284867      39.310888    
     98880   197.76         281.13016      132992.95     -807632        -9732.1658      0.36261774     0.057353244    26.280371      38.963374    
     98890   197.78         277.19579      133188.98     -807633.41     -9665.2843      0.36263445     0.056956477    26.287053      38.615852    
     98900   197.8          278.95902      133684.79     -807632.13     -9711.6273      0.362651       0.057226958    26.319849      38.268318    
     98910   197.82         283.50977      133517.49     -807632.01     -9733.3617      0.36266742     0.057352435    26.359023      37.920771    
     98920   197.84         284.93966      133426.25     -807633.02     -9704.791       0.36268369     0.057181521    26.385884      37.573213    
     98930   197.86         286.70146      132468.74     -807635.17     -9641.7822      0.36269982     0.056807741    26.34441       37.225656    
     98940   197.88         284.85826      132772.67     -807633.33     -9691.6557      0.36271581     0.05709907     26.288936      36.878101    
     98950   197.9          288.27132      132762.63     -807632.55     -9733.2521      0.36273165     0.057341633    26.323439      36.530533    
     98960   197.92         285.67776      134602.26     -807632.32     -9729.5286      0.36274735     0.057317216    26.306787      36.182962    
     98970   197.94         278.74661      133716.17     -807633.14     -9673.1137      0.36276291     0.056982429    26.282904      35.835388    
     98980   197.96         288.18797      133978.94     -807633.21     -9713.8189      0.36277832     0.057219784    26.309987      35.487803    
     98990   197.98         279.98705      133027.13     -807631.64     -9731.7596      0.36279359     0.057323052    26.291359      35.140214    
     99000   198            289.8621       133111.03     -807633.69     -9709.1363      0.36280872     0.057187409    26.305463      34.792617    
     99010   198.02         278.18041      131332.42     -807634.62     -300.97505      0.3628237      0.056726026    26.380828      34.445002    
     99020   198.04         289.4373       133229.69     -807634.35     -302.81862      0.36283855     0.057071157    26.351276      34.097385    
     99030   198.06         281.76231      132869.56     -807632.33     -303.92892      0.36285324     0.057278091    26.349258      33.749762    
     99040   198.08         287.7887       134405.38     -807632.75     -304.36457      0.3628678      0.057357892    26.339898      33.402134    
     99050   198.1          283.09268      132888.89     -807634.22     -302.32166      0.36288221     0.056970641    26.324378      33.054501    
     99060   198.12         287.16692      133965.82     -807633.19     -303.93896      0.36289648     0.057273159    26.321929      32.706862    
     99070   198.14         276.71703      132333.66     -807631.69     -304.16868      0.36291061     0.057314215    26.350446      32.359213    
     99080   198.16         277.07177      134074.44     -807632.04     -303.82929      0.36292459     0.057248058    26.341236      32.011559    
     99090   198.18         289.17717      131086.05     -807637.01     -300.69986      0.36293843     0.056656245    26.357174      31.663896    
     99100   198.2          288.66054      133503.42     -807634.32     -303.32151      0.36295213     0.057148045    26.362061      31.316226    
     99110   198.22         277.42464      132297.12     -807632.22     -304.04539      0.36296568     0.057282292    26.343315      30.968552    
     99120   198.24         281.14444      133423.76     -807632.52     -304.25246      0.36297909     0.057319186    26.348143      30.620871    
     99130   198.26         283.42969      132690.63     -807635.39     -301.85458      0.36299236     0.056865361    26.340737      30.273185    
     99140   198.28         281.77418      133747.47     -807633.51     -303.61246      0.36300548     0.057194456    26.325196      29.925494    
     99150   198.3          273.48583      133407.12     -807631.32     -304.78423      0.36301846     0.05741314     26.376887      29.57779     
     99160   198.32         284.53435      133175.31     -807634.1      -303.61505      0.3630313      0.057190874    26.409654      29.230076    
     99170   198.34         279.41529      132793.36     -807635.45     -301.64966      0.36304399     0.056818675    26.398474      28.882357    
     99180   198.36         285.2988       132099.79     -807635.11     -302.98203      0.36305655     0.057067667    26.410638      28.53463     
     99190   198.38         284.87839      132957.55     -807633.15     -304.97464      0.36306895     0.057441018    26.404228      28.186898    
     99200   198.4          275.31257      132214.36     -807634.13     -302.76343      0.36308122     0.057022618    26.414253      27.839158    
     99210   198.42         278.37369      133713.91     -807634.38     -303.01838      0.36309334     0.05706873     26.383201      27.491416    
     99220   198.44         277.81074      132747.26     -807633.76     -303.76413      0.36310532     0.057207293    26.381188      27.143667    
     99230   198.46         282.97893      134848.94     -807632.23     -306.06278      0.36311715     0.057638314    26.408943      26.79591     
     99240   198.48         276.12729      132759.75     -807634.95     -302.53486      0.36312885     0.056972095    26.350771      26.448152    
     99250   198.5          281.81386      133215.61     -807635.56     -302.75825      0.3631404      0.057012349    26.350994      26.100388    
     99260   198.52         275.82955      131247.12     -807635.42     -302.26303      0.3631518      0.056917308    26.36474       25.752616    
     99270   198.54         279.57734      132890.98     -807634.26     -303.98341      0.36316306     0.057239487    26.384946      25.404836    
     99280   198.56         270.48156      131869.95     -807634.93     -302.20457      0.36317418     0.056902791    26.352857      25.057052    
     99290   198.58         266.24091      133881.62     -807632.91     -303.68189      0.36318516     0.057179232    26.275153      24.709271    
     99300   198.6          271.60095      132616.99     -807632.88     -304.57483      0.36319599     0.05734565     26.307817      24.361479    
     99310   198.62         282.08459      134184.02     -807633.07     -305.86981      0.36320668     0.057587776    26.329136      24.013679    
     99320   198.64         274.14796      132619.69     -807633.98     -303.96045      0.36321723     0.057226629    26.32887       23.665872    
     99330   198.66         277.03406      132744.83     -807635.29     -303.01745      0.36322763     0.057047456    26.344662      23.318057    
     99340   198.68         285.09659      131626.07     -807636.63     -302.9265       0.36323789     0.057028722    26.341672      22.970237    
     99350   198.7          274.58347      131985.87     -807634.64     -303.46643      0.36324801     0.057128778    26.32236       22.622411    
     99360   198.72         270.50389      131633.3      -807635.57     -302.07152      0.36325798     0.056864619    26.332129      22.274578    
     99370   198.74         263.88405      132689.73     -807634.46     -302.27946      0.36326781     0.056902224    26.384693      21.926735    
     99380   198.76         273.17888      133012.04     -807633.93     -304.21958      0.3632775      0.057265912    26.347702      21.578888    
     99390   198.78         269.1228       134534.6      -807631.37     -306.22932      0.36328704     0.057642709    26.334511      21.231035    
     99400   198.8          271.97968      133844.26     -807632.97     -304.97651      0.36329644     0.057405403    26.329422      20.883177    
     99410   198.82         276.23818      133201.42     -807634.54     -304.03682      0.3633057      0.057227068    26.335989      20.535312    
     99420   198.84         281.70171      132603.6      -807634.95     -304.3358       0.36331481     0.057281906    26.367357      20.187438    
     99430   198.86         271.28653      132549.79     -807633.63     -304.19059      0.36332378     0.05725316     26.391901      19.839556    
     99440   198.88         272.67977      132091.15     -807635.45     -302.45084      0.36333261     0.056924331    26.424456      19.491664    
     99450   198.9          275.31727      131765.96     -807636.47     -301.66348      0.36334129     0.056774785    26.419907      19.143767    
     99460   198.92         278.91478      131815.87     -807634.31     -304.25001      0.36334983     0.057260239    26.394479      18.795866    
     99470   198.94         270.60656      133670.65     -807632.33     -304.95572      0.36335823     0.057391729    26.393219      18.447959    
     99480   198.96         273.79343      134289.85     -807633.31     -304.24779      0.36336648     0.057257197    26.310534      18.100051    
     99490   198.98         284.68448      133353.27     -807634.93     -303.9359       0.3633746      0.057197225    26.341042      17.752135    
     99500   199            286.31492      133429.11     -807633.66     -305.17673      0.36338256     0.057429475    26.335         17.404213    
     99510   199.02         273.60273      133542.17     -807631.95     -9757.9737      0.36339039     0.057383066    26.25783       17.05629     
     99520   199.04         284.79749      132124.84     -807635.68     -9681.1814      0.36339807     0.056930275    26.243883      16.708361    
     99530   199.06         276.19977      131853.32     -807634.7      -9664.9386      0.3634056      0.056833581    26.259448      16.360425    
     99540   199.08         281.8829       132373.42     -807634.26     -9698.138       0.363413       0.057027645    26.2515        16.012483    
     99550   199.1          278.505        132816.56     -807632.26     -9742.8581      0.36342025     0.057289469    26.256386      15.664533    
     99560   199.12         280.84096      133632.77     -807632.89     -9726.2688      0.36342736     0.057190802    26.234434      15.316579    
     99570   199.14         283.61297      133433.62     -807633.71     -9707.0643      0.36343432     0.057076786    26.189099      14.96862     
     99580   199.16         290.46481      133994.6      -807632.34     -9777.6991      0.36344114     0.057491034    26.226683      14.620653    
     99590   199.18         282.06425      133938.07     -807631.04     -9779.5606      0.36344782     0.057500923    26.270327      14.272676    
     99600   199.2          280.00387      134299.28     -807632.62     -9714.197       0.36345435     0.057115577    26.288376      13.924692    
     99610   199.22         279.80703      132600.76     -807634.4      -9653.8686      0.36346074     0.056759872    26.269546      13.576702    
     99620   199.24         277.64747      133535.51     -807632.42     -9705.9132      0.36346699     0.057064888    26.283164      13.228705    
     99630   199.26         283.01473      132407.11     -807632.53     -9726.1594      0.3634731      0.057182963    26.320468      12.880699    
     99640   199.28         290.09808      133430.27     -807633.78     -9713.926       0.36347906     0.057110102    26.322936      12.532687    
     99650   199.3          292.37785      131990.45     -807634.87     -9690.7727      0.36348487     0.056973068    26.343005      12.184667    
     99660   199.32         281.91639      134886.53     -807629.61     -9810.3381      0.36349055     0.057675105    26.320816      11.836642    
     99670   199.34         289.32392      133808.04     -807632.17     -9764.5177      0.36349608     0.057404853    26.325273      11.488611    
     99680   199.36         291.09273      134169.86     -807632.54     -9757.7626      0.36350147     0.05736429     26.336216      11.140572    
     99690   199.38         283.65371      132122.72     -807634.49     -9665.0991      0.36350671     0.056818717    26.288057      10.79253     
     99700   199.4          290.63058      133053.21     -807632.98     -9746.3244      0.36351181     0.057295416    26.291779      10.444481    
     99710   199.42         284.29191      131891.52     -807633.41     -9709.3064      0.36351677     0.057077021    26.281654      10.096425    
     99720   199.44         283.03374      133044.27     -807633.73     -9696.006       0.36352158     0.056998079    26.278557      9.7483637    
     99730   199.46         284.47501      132243.73     -807634.02     -9698.8586      0.36352625     0.057014115    26.279532      9.4002954    
     99740   199.48         282.07878      133890.37     -807631.44     -9776.6749      0.36353078     0.057470838    26.288376      9.0522204    
     99750   199.5          277.3214       134025.47     -807631.54     -9758.5748      0.36353516     0.057363747    26.291605      8.7041387    
     99760   199.52         284.82853      132642.84     -807634.49     -9702.6317      0.3635394      0.057034232    26.344502      8.3560488    
     99770   199.54         283.36158      132602.76     -807634.32     -9708.5234      0.3635435      0.057068222    26.350475      8.0079523    
     99780   199.56         281.62912      132320.91     -807633.89     -9724.3889      0.36354745     0.05716086     26.343984      7.6598497    
     99790   199.58         272.15543      133417.89     -807632.63     -9728.2903      0.36355126     0.057183193    26.327272      7.3117414    
     99800   199.6          280.10927      131458.14     -807636.15     -9661.2131      0.36355493     0.056788339    26.334269      6.9636265    
     99810   199.62         266.98031      134308.9      -807631.51     -9756.8248      0.36355845     0.057349786    26.289254      6.6155064    
     99820   199.64         290.54917      131806.17     -807635.04     -9758.8635      0.36356183     0.057361235    26.27862       6.2673802    
     99830   199.66         278.07012      135043.54     -807631.83     -9809.7637      0.36356507     0.057659906    26.301897      5.919247     
     99840   199.68         275.73342      131840.35     -807635.4      -9694.4346      0.36356816     0.05698154     26.301042      5.5711073    
     99850   199.7          271.69382      135060.85     -807632.76     -9761.5929      0.36357111     0.057375814    26.267845      5.2229619    
     99860   199.72         276.06203      131342.5      -807635.04     -9715.4179      0.36357392     0.05710397     26.23417       4.8748107    
     99870   199.74         272.27686      134004.01     -807633.65     -9742.3725      0.36357658     0.057261981    26.21298       4.5266532    
     99880   199.76         268.70563      131165.95     -807635.8      -9663.3373      0.3635791      0.056797048    26.261828      4.1784883    
     99890   199.78         269.75057      134203.53     -807633.24     -9748.6419      0.36358148     0.057298058    26.284337      3.8303164    
     99900   199.8          272.22276      131359.77     -807633.37     -9759.2541      0.36358371     0.05736008     26.248165      3.4821387    
     99910   199.82         275.21453      134658.68     -807632.48     -9797.6008      0.3635858      0.057585132    26.258938      3.1339542    
     99920   199.84         280.1067       131642.08     -807635.99     -9709.5916      0.36358775     0.057067554    26.301786      2.7857626    
     99930   199.86         281.42334      134113.32     -807633.94     -9776.5518      0.36358955     0.057460824    26.2747        2.437565     
     99940   199.88         267.69057      132073.7      -807633.93     -9720.4741      0.36359121     0.057130972    26.327572      2.0893604    
     99950   199.9          270.0497       134173.67     -807633.04     -9754.4825      0.36359273     0.057330613    26.305835      1.7411496    
     99960   199.92         281.60297      129983.32     -807637.48     -9664.5048      0.3635941      0.056801567    26.292445      1.3929326    
     99970   199.94         274.12841      132888.2      -807634.55     -9721.0309      0.36359533     0.057133597    26.2789        1.0447091    
     99980   199.96         274.90651      131846.38     -807633.72     -9751.567       0.36359641     0.057312896    26.283068      0.69647919   
     99990   199.98         274.33241      134113.09     -807632.51     -9783.7766      0.36359736     0.057502053    26.293116      0.3482428    
    100000   200            267.94551      133099.13     -807633.49     -9722.9298      0.36359816     0.057144313    26.301269      0            
Loop time of 3482.46 on 32 procs for 100000 steps with 1080 atoms

Performance: 4.962 ns/day, 4.837 hours/ns, 28.715 timesteps/s, 31.013 katom-step/s
66.5% CPU use with 32 MPI tasks x 1 OpenMP threads

MPI task timing breakdown:
Section |  min time  |  avg time  |  max time  |%varavg| %total
---------------------------------------------------------------
Pair    | 2507.7     | 2814.8     | 3037.5     | 226.5 | 80.83
Neigh   | 0.0016494  | 0.0017686  | 0.0018984  |   0.2 |  0.00
Comm    | 365.89     | 588.31     | 895.33     | 495.1 | 16.89
Output  | 3.0738     | 3.0974     | 3.1413     |   0.7 |  0.09
Modify  | 68.788     | 69.582     | 70.045     |   3.8 |  2.00
Other   |            | 6.627      |            |       |  0.19

Nlocal:          33.75 ave          46 max          27 min
Histogram: 4 2 7 7 5 4 2 0 0 1
Nghost:        1043.66 ave        1059 max        1026 min
Histogram: 3 1 4 2 2 4 8 2 2 4
Neighs:              0 ave           0 max           0 min
Histogram: 32 0 0 0 0 0 0 0 0 0
FullNghs:      5311.62 ave        7239 max        4213 min
Histogram: 4 2 7 7 3 6 1 1 0 1

Total # of neighbors = 169972
Ave neighs/atom = 157.38148
Neighbor list builds = 4
Dangerous builds = 0

Total wall time: 1:01:36
