
units		metal
atom_style	atomic

read_data ${STRUCTURE}.data
read_data BaTiO3-sc333.data
Reading data file ...
  orthogonal box = (0 0 0) to (11.898253 11.898253 12.912076)
  2 by 4 by 4 MPI processor grid
  reading atoms ...
  135 atoms
  read_data CPU = 0.132 seconds
replicate $L $L $L
replicate 2 $L $L
replicate 2 2 $L
replicate 2 2 2
Replication is creating a 2x2x2 = 8 times larger system...
  orthogonal box = (0 0 0) to (23.796507 23.796507 25.824152)
  2 by 4 by 4 MPI processor grid
  1080 atoms
  replicate CPU = 0.004 seconds

pair_style allegro
pair_coeff	* * ${MODEL}.pth Ba Ti O
pair_coeff	* * BaTiO3-E0.pth Ba Ti O
mass 1 137.3
mass 2 47.9
mass 3 15.9994

timestep 0.002
compute polarization all allegro polarization 3
compute allegro will evaluate the quantity polarization of length 3 (src/compute_allegro.cpp:53)
compute polarizability all allegro polarizability 9
compute allegro will evaluate the quantity polarizability of length 9 (src/compute_allegro.cpp:53)

thermo_style custom pe fmax fnorm spcpu cpuremain

variable efield equal 1e-2*36.36
fix born all addbornforce 0.0 0.0 ${efield}
fix born all addbornforce 0.0 0.0 0.3636

thermo 10
min_style fire
#minimize 0.0 1e-6 100 100
velocity all create ${TEMP} ${SEED} dist gaussian rot yes mom yes
velocity all create 340 ${SEED} dist gaussian rot yes mom yes
velocity all create 340 2772 dist gaussian rot yes mom yes
fix nvt all nvt temp ${TEMP} ${TEMP} $(100*dt)
fix nvt all nvt temp 340 ${TEMP} $(100*dt)
fix nvt all nvt temp 340 340 $(100*dt)
fix nvt all nvt temp 340 340 0.2000000000000000111
run 5000
Neighbor list info ...
  update: every = 1 steps, delay = 0 steps, check = yes
  max neighbors/atom: 2000, page size: 100000
  master list distance cutoff = 8
  ghost atom cutoff = 8
  binsize = 8, bins = 3 3 4
  1 neighbor lists, perpetual/occasional/extra = 1 0 0
  (1) pair allegro/kk, perpetual
      attributes: full, newton on, kokkos_device
      pair build: full/bin/kk/device
      stencil: full/bin/3d
      bin: kk/device
Per MPI rank memory allocation (min/avg/max) = 3.516 | 3.516 | 3.516 Mbytes
    PotEng          Fmax          Fnorm          S/CPU         CPULeft    
-807708.29      1.5955778      37.042672      0              0            
-807644.58      3.4078769      45.62593       2.0417755      2443.9523    
-807633.52      2.5008068      36.235322      25.892226      1315.6952    
-807603.29      3.797676       39.028534      25.912849      939.30106    
-807601.75      4.1687605      51.010925      25.810932      751.09994    
-807566.54      4.4379129      41.793165      25.779907      638.07054    
-807599.02      3.1180156      40.772937      25.91578       562.42088    
-807643.8       3.6784057      35.945832      25.923898      508.26657    
-807681.97      2.8058434      35.548008      25.867182      467.60646    
-807666.17      2.845904       35.459369      25.839131      435.91891    
-807649.04      3.1984372      36.488201      25.915574      410.43553    
-807657.32      2.5516975      29.704051      25.908113      389.52027    
-807626.45      2.9525022      32.771691      25.913806      372.02314    
-807584.52      3.2364069      41.407496      25.854678      357.19152    
-807565.24      3.6651557      40.220239      25.949447      344.37444    
-807628.58      3.9004412      34.872167      25.904396      333.23659    
-807650.65      4.3512726      33.018148      25.87909       323.45413    
-807661.02      3.3161225      36.045078      25.846557      314.79091    
-807643.59      5.5949347      46.294565      25.901805      307.02519    
-807676.66      3.2604791      37.38668       25.879076      300.04485    
-807640.29      5.1818622      40.067647      25.823925      293.74371    
-807616.73      3.7801441      39.3061        25.870005      287.99006    
-807559.74      6.5552094      47.276438      25.939452      282.70185    
-807601.96      4.6119087      49.612378      25.884503      277.85694    
-807609.86      5.5314569      40.891504      25.882589      273.38413    
-807639.29      3.4519753      36.829582      25.91404       269.22934    
-807638.15      4.8997128      46.508487      25.935238      265.35871    
-807678.18      3.0044539      38.739942      25.841407      261.77075    
-807661.19      3.6237694      36.624893      25.816768      258.41767    
-807637.6       2.9717091      33.707078      25.89239       255.25075    
-807604.63      3.6904463      35.489378      25.931673      252.26004    
-807601.46      3.9060215      42.990424      25.898249      249.44492    
-807593.83      3.5905604      38.554627      25.812887      246.80031    
-807605.38      3.372806       35.195903      25.896132      244.27486    
-807635.02      3.1496202      32.818714      25.907508      241.87293    
-807668.44      3.6352389      33.756897      25.834493      239.60069    
-807674.08      2.5998797      34.681425      25.778617      237.44399    
-807642.17      5.4758427      40.236696      25.864056      235.36688    
-807643.71      3.072748       33.075882      25.890868      233.37386    
-807619.83      3.9461349      35.450751      25.88879       231.46361    
-807599.74      3.9243692      44.983098      25.808564      229.64337    
-807565.68      5.0351457      43.567948      25.910242      227.87599    
-807616.65      3.7792912      37.861929      25.921035      226.17265    
-807643.73      4.9394911      37.592099      25.867196      224.53912    
-807669.07      3.0783556      37.169698      25.835369      222.9672     
-807638.84      5.0700748      47.317055      25.873964      221.44211    
-807660.81      3.0530733      37.095358      25.879137      219.96576    
-807641.72      4.0957135      38.830286      25.854902      218.53929    
-807624.08      3.7304327      39.191215      25.872917      217.15359    
-807563.66      4.3440499      44.793384      25.945318      215.79875    
-807593.57      3.3807918      44.73491       25.915611      214.48667    
-807619.58      3.7189567      37.832718      25.858978      213.21835    
-807650.69      2.7023426      34.23212       25.891538      211.97974    
-807638.85      4.5266552      41.770529      25.899115      210.77236    
-807666.12      3.2006125      35.436209      25.886847      209.59689    
-807662.48      3.7916302      34.932038      25.829212      208.4571     
-807643.08      3.0115508      32.436795      25.861211      207.34039    
-807598.49      3.6206167      36.042303      25.926855      206.24168    
-807593.77      3.0413613      38.424954      25.910964      205.16937    
-807601.97      3.764106       40.729004      25.818393      204.13066    
-807617.36      3.2921269      33.794777      25.838553      203.11145    
-807630.24      3.6465319      34.869875      25.875512      202.109      
-807658.09      3.4404121      35.044595      25.886627      201.12524    
-807671.07      2.8025256      37.060628      25.791693      200.17031    
-807645.91      3.8637712      38.170683      25.823445      199.22985    
-807630.87      3.7266969      35.561077      25.910889      198.29768    
-807611.59      3.5976854      37.085488      25.916507      197.3815     
-807604.18      4.1181047      45.058737      25.881864      196.48449    
-807579.36      3.9609503      41.674073      25.874446      195.60321    
-807610.29      2.9877274      37.675937      25.904054      194.73351    
-807638.79      4.2413526      37.511442      25.886253      193.87926    
-807670.11      3.3587159      36.683549      25.828183      193.04344    
-807647.75      5.5662939      41.952478      25.84255       192.2188     
-807648.53      3.3571541      36.715533      25.874923      191.40331    
-807640.09      4.346081       35.349906      25.881447      190.59887    
-807625.58      3.5040509      37.883029      25.888322      189.80499    
-807580.57      3.86906        38.95453       25.879731      189.02255    
-807586.49      2.8662527      40.636189      25.876709      188.25065    
-807622.86      3.3408681      33.960191      25.852246      187.49061    
-807654.73      3.3707428      33.533993      25.887058      186.73725    
-807650.04      3.1534127      36.43631       25.885542      185.99318    
-807653.56      3.5823326      36.53479       25.794249      185.26502    
-807662.18      3.1487928      34.134219      25.87072       184.53932    
-807643.17      3.053891       33.761017      25.886407      183.82061    
-807607.38      4.139377       36.426938      25.92241       183.10717    
-807582.07      3.5595277      40.512759      25.897569      182.40324    
-807603.79      4.2012822      40.376136      25.884503      181.70764    
-807625.05      3.834312       35.064568      25.879805      181.01948    
-807638.83      3.2524486      33.798058      25.89838       180.33688    
-807647.94      3.7637351      37.174727      25.88674       179.66175    
-807668.64      2.5924207      35.299744      25.840778      178.99616    
-807652.41      4.4521039      35.582277      25.85198       178.33595    
-807632.86      3.007942       33.405163      25.891641      177.67905    
-807603         4.2242129      35.924893      25.898141      177.02754    
-807603.68      4.3938169      41.892611      25.876125      176.38311    
-807595.22      4.2793168      39.033468      25.855672      175.7454     
-807614.46      3.1436237      36.654199      25.898956      175.11021    
-807633.08      4.9928462      38.428596      25.896843      174.48028    
-807663.1       3.0808863      36.854395      25.841235      173.85873    
-807655.93      4.1380853      38.723691      25.818542      173.2433     
-807643.98      3.141591       36.641351      25.856102      172.63019    
-807629.52      3.7348216      36.209189      25.889623      172.01957    
-807622.36      3.4804674      37.340716      25.89291       171.41317    
-807591.25      3.7456702      39.363308      25.848279      170.81361    
-807589.07      3.3235299      39.307249      25.871501      170.21682    
-807616.15      3.3127359      35.072109      25.885092      169.62327    
-807651.12      3.1422406      33.702239      25.849189      169.03562    
-807654.85      3.0428463      35.517538      25.82685       168.45296    
-807647.9       3.5762216      37.750995      25.859025      167.87217    
-807650.47      3.2872261      35.109539      25.854211      167.29519    
-807639.83      3.9488964      34.511139      25.84512       166.72216    
-807611.77      3.0285478      36.451484      25.883281      166.15048    
-807579.36      3.6079003      40.329856      25.916026      165.58042    
-807599.22      4.0692738      38.826981      25.855634      165.01671    
-807626.02      3.5311779      35.706962      25.90335       164.45369    
-807644.34      3.6165281      35.084586      25.881638      163.89483    
-807643.5       4.4147449      39.353619      25.870541      163.33949    
-807658.31      3.4582416      36.854196      25.823085      162.78937    
-807649.45      3.4234015      37.194808      25.785078      162.24385    
-807633.71      3.2884427      35.123411      25.846029      161.69805    
-807594.86      4.1860604      39.525158      25.906148      161.15206    
-807597.85      3.7478085      40.871782      25.806614      160.61338    
-807601.46      3.7700635      38.10107       25.799746      160.0775     
-807624.23      2.9356418      35.0108        25.864125      159.54106    
-807630.92      3.9385296      37.152742      25.886991      159.00601    
-807658.64      2.8694855      35.165445      25.857796      158.47465    
-807655.69      3.8956516      36.779707      25.815901      157.94745    
-807646.68      3.0953114      34.936493      25.848758      157.421      
-807623.56      4.0378937      35.071722      25.884169      156.8952     
-807614.13      3.6209232      37.166794      25.893058      156.37118    
-807598.46      3.7529311      40.179703      25.878635      155.84989    
-807599         3.6744978      38.995857      25.842954      155.33216    
-807614.59      3.3220298      36.776692      25.833741      154.81679    
-807645.31      4.4650229      35.639715      25.809903      154.30435    
-807654.92      3.9104366      36.685229      25.769142      153.79544    
-807648.55      3.7938488      37.070646      25.802043      153.28699    
-807640.28      3.9711678      36.118212      25.887908      152.77687    
-807634.5       2.9884058      33.86591       25.900351      152.26807    
-807615.11      3.5976364      37.590662      25.858688      151.76268    
-807589.79      3.5599669      38.577948      25.895888      151.25755    
-807600.59      3.2256322      37.956219      25.913688      150.75344    
-807627.46      4.2141064      36.113188      25.890119      150.2519     
-807649.17      3.2226669      34.623469      25.851746      149.75343    
-807643.85      4.4860769      38.972953      25.86499       149.25603    
-807649.3       2.8490236      36.567319      25.866359      148.76012    
-807646.33      3.618271       36.362288      25.815725      148.26757    
-807633.8       3.4441126      34.921359      25.870261      147.77448    
-807598.63      3.4826385      38.210391      25.820637      147.28463    
-807596.51      3.4933154      39.083072      25.872547      146.79431    
-807608.51      3.7272451      37.418986      25.854743      146.30601    
-807633.78      3.1879069      34.193156      25.879468      145.81821    
-807638.88      3.1996627      35.668283      25.887221      145.33148    
-807651.76      3.6824368      35.674898      25.829729      144.84804    
-807654.11      3.0745231      35.917428      25.802657      144.36678    
-807647.28      3.0770471      33.648433      25.846095      143.88527    
-807620.61      3.4628944      34.830875      25.92041       143.40252    
-807607.18      3.282049       36.362697      25.882752      142.92224    
-807602.22      3.8338412      38.404521      25.834804      142.44473    
-807610.79      3.4976905      36.307876      25.832544      141.96844    
-807624.62      3.2573514      34.46262       25.817708      141.49375    
-807642.92      4.2785121      35.108423      25.837257      141.01952    
-807656.95      3.266974       35.041464      25.803545      140.54745    
-807649.73      4.1346415      35.574212      25.804908      140.07637    
-807638.09      3.4541035      34.553319      25.882172      139.60393    
-807622.85      3.1849745      34.409204      25.899499      139.13201    
-807613.66      3.4813108      37.458162      25.828136      138.66329    
-807595.78      3.7076238      39.106141      25.822197      138.19573    
-807604.81      4.0873341      37.720651      25.835196      137.72875    
-807627.14      4.1361077      34.990804      25.888967      137.26113    
-807648.89      3.1744016      34.517495      25.844061      136.79579    
-807647.01      3.4237929      36.719156      25.838059      136.33155    
-807646.82      3.3320385      35.535651      25.929756      135.86557    
-807637.34      3.7989571      34.920618      25.869172      135.40225    
-807628.18      2.962834       33.988495      25.892895      134.93915    
-807603.45      3.2206859      37.300316      25.857759      134.47792    
-807594.7       3.5204537      38.134306      25.859338      134.01749    
-807611.09      3.7654428      36.847688      25.853917      133.55806    
-807633.13      3.883214       35.812517      25.819836      133.10037    
-807642.29      2.8196468      35.609505      25.800095      132.64401    
-807646.51      4.1613843      36.420091      25.866966      132.18662    
-807648.56      2.9551154      35.389002      25.909458      131.72889    
-807641.39      2.6913561      33.872712      25.851933      131.27347    
-807619.2       3.4035548      35.248037      25.785659      130.82054    
-807597.51      3.3334146      37.28917       25.834828      130.36704    
-807599.32      3.1718987      38.854649      25.870205      129.91336    
-807615.96      4.2113         35.846218      25.800328      129.46218    
-807630.11      3.5800749      34.699423      25.840231      129.01068    
-807641.15      4.1310411      35.998301      25.844065      128.55977    
-807652.35      3.9788435      36.25065       25.878636      128.10868    
-807648.05      3.1756424      35.285382      25.857166      127.65881    
-807635.81      3.2740271      34.749734      25.873632      127.2092     
-807613.81      2.9007112      36.065026      25.8777        126.76015    
-807604.97      3.2696243      38.094368      25.895902      126.31132    
-807600.94      3.4502344      38.88672       25.848703      125.86425    
-807612.62      3.5061745      36.186408      25.843762      125.41793    
-807628.83      3.7558753      35.62724       25.866004      124.9717     
-807646.69      3.5077369      35.726057      25.9012        124.52525    
-807649.61      3.2342206      36.577321      25.878809      124.07994    
-807643.77      4.0054828      36.839239      25.877181      123.63526    
-807631.28      3.6512831      36.136541      25.868738      123.19135    
-807619.8       3.8156039      36.957758      25.865238      122.74809    
-807606.21      3.5664983      38.536337      25.861234      122.30549    
-807598.88      3.4261721      39.078512      25.867513      121.8633     
-807614.15      3.9772385      36.828526      25.821498      121.42267    
-807634.38      3.4457564      35.588189      25.831025      120.98236    
-807647.3       3.4773323      35.413204      25.825         120.54269    
-807643.94      2.9592426      37.074991      25.826715      120.1035     
-807642.77      2.7960857      35.47208       25.795415      119.66547    
-807634.64      2.7812031      34.579848      25.800686      119.22782    
-807620.14      3.5391441      35.612775      25.806694      118.79052    
-807601.62      3.211185       37.113564      25.84184       118.35296    
-807605.44      4.9154421      38.267542      25.872482      117.91526    
-807620.63      2.8304379      35.328871      25.859356      117.47831    
-807635.97      3.4264849      34.915118      25.845731      117.0421     
-807641.32      3.4923714      36.50321       25.835933      116.60655    
-807647.63      3.3905103      36.05135       25.883959      116.1705     
-807644.44      3.8889999      36.24719       25.861617      115.73535    
-807632.02      3.0749622      34.737087      25.859716      115.30068    
-807612.81      3.3449718      35.837574      25.876152      114.86614    
-807604.67      3.6979178      37.25053       25.911409      114.43136    
-807607.57      3.8682674      37.762009      25.898543      113.99726    
-807621.63      3.0125322      34.850122      25.943818      113.56276    
-807634.58      3.9319042      34.785799      25.952739      113.12852    
-807647.07      3.1566192      34.43593       25.901514      112.69568    
-807649.75      3.0855255      34.956021      25.862425      112.26396    
-807642.3       3.6236428      35.326081      25.854295      111.8328     
-807626.86      3.7251744      34.927475      25.831495      111.40245    
-807612.69      2.9553737      36.594591      25.887446      110.97147    
-807605.37      3.4636348      38.33257       25.897578      110.5407     
-807607.18      3.7695569      37.523752      25.925671      110.10982    
-807619.41      2.9965669      35.843133      25.927535      109.67931    
-807638.25      2.9717665      34.476373      25.922517      109.24927    
-807648.35      2.9444232      35.199918      25.880521      108.82034    
-807643.68      2.9150399      36.062166      25.833653      108.39257    
-807637.26      2.873614       35.26778       25.841038      107.96503    
-807627.01      2.6924462      34.228898      25.840511      107.53784    
-807614.16      3.7394722      36.59977       25.855527      107.11073    
-807599.86      3.5290188      37.827207      25.858184      106.68393    
-807608.71      3.496983       37.369481      25.86293       106.25739    
-807622.7       3.6902652      35.756831      25.88293       105.83085    
-807638.86      3.1939174      35.463448      25.885752      105.4046     
-807641.2       3.6234469      37.090731      25.865195      104.97901    
-807646.75      2.6309553      35.079496      25.848325      104.55401    
-807635.74      3.0792127      36.098219      25.870584      104.12898    
-807628.68      3.3124805      35.3163        25.867691      103.70431    
-807607.95      3.1313161      36.9699        25.891355      103.27957    
-807605.04      4.4243555      37.877998      25.923522      102.85466    
-807609.13      3.1516929      36.859856      25.922508      102.43008    
-807626.6       3.225435       35.757883      25.924747      102.00578    
-807634.81      3.1736846      35.532739      25.920471      101.58186    
-807645.1       3.7927704      35.196298      25.8841        101.15878    
-807645.45      5.2472833      36.508389      25.895813      100.73582    
-807638.03      2.6450004      35.488284      25.852796      100.31378    
-807623.4       3.0916452      35.668674      25.842825      99.892168    
-807608.29      2.9968576      36.909037      25.90688       99.469902    
-807606.85      3.0996271      37.607975      25.856694      99.048641    
-807609.87      3.2211887      36.991033      25.882692      98.62728     
-807625.96      3.3851741      35.131903      25.870187      98.206367    
-807637.74      3.8613314      35.571862      25.863051      97.785821    
-807646.96      3.5326354      34.762328      25.874581      97.365376    
-807642.68      4.1354642      35.579195      25.868593      96.945275    
-807637.49      3.1428817      34.625093      25.842647      96.525786    
-807622.56      3.0328037      34.611067      25.919927      96.105498    
-807613.01      3.5004775      36.947083      25.900989      95.685726    
-807605.95      3.5005091      37.002019      25.893565      95.266308    
-807614.22      3.1872712      36.658203      25.906111      94.846975    
-807626.04      3.4591465      35.58023       25.885682      94.428161    
-807641.55      3.7332625      35.528073      25.864112      94.009871    
-807644.78      4.4550743      35.427009      25.874403      93.591685    
-807642.69      3.6727368      36.213919      25.867023      93.173829    
-807632.79      4.059333       36.16653       25.8977        92.755813    
-807626.55      3.459951       35.752691      25.901987      92.33798     
-807609.57      5.107427       37.554399      25.921063      91.920142    
-807608.28      3.4414405      38.621706      25.924653      91.502495    
-807612.98      4.8268788      38.297488      25.889843      91.085508    
-807631.96      3.4109703      36.741538      25.858002      90.669134    
-807638.85      4.859042       36.493921      25.887109      90.252621    
-807642.91      3.1221701      36.340511      25.863705      89.836608    
-807641.79      3.7612126      35.908099      25.84798       89.420995    
-807637.84      3.2794538      34.705619      25.864289      89.005394    
-807623.37      3.687888       35.330307      25.852862      88.590134    
-807607.68      3.5635415      37.451786      25.859478      88.175       
-807609.07      3.0731892      37.425889      25.86498       87.760004    
-807615.87      3.6150548      36.82956       25.888391      87.34494     
-807630.39      3.2821075      35.876888      25.895916      86.929993    
-807635.59      5.7681336      38.027406      25.888237      86.515335    
-807643.61      3.1510387      36.284595      25.850402      86.101299    
-807640.54      4.1431727      37.603983      25.845428      85.687507    
-807633.74      3.6316609      36.378061      25.848666      85.273866    
-807615.17      4.0147385      37.654345      25.886112      84.860002    
-807609.97      3.348699       38.684184      25.903843      84.446137    
-807606.06      3.7523457      38.866006      25.898112      84.032524    
-807616.7       3.5749418      38.336773      25.902301      83.619055    
-807625.71      3.9483613      36.971424      25.85987       83.20622     
-807640.33      3.6654765      37.242699      25.870617      82.793451    
-807644.29      3.2459595      36.253226      25.833644      82.381244    
-807638.02      4.2403152      37.937131      25.840889      81.969131    
-807626.12      4.0222954      36.624097      25.851746      81.557077    
-807619.3       4.0900291      37.323612      25.86692       81.145039    
-807607.6       3.9945146      38.992237      25.855882      80.733281    
-807609.36      3.6274436      38.730285      25.912722      80.321125    
-807616.09      3.8703992      36.489019      25.93264       79.908947    
-807633.42      2.9006257      35.153537      25.89652       79.497298    
-807641.33      4.4643202      36.281422      25.898422      79.085798    
-807641.52      3.1619036      35.735771      25.92018       78.674257    
-807637.5       4.9561628      35.609344      25.883363      78.263235    
-807628.03      3.6085869      35.812944      25.860488      77.852591    
-807618.91      2.9676509      36.46654       25.878988      77.441929    
-807607.98      3.3451276      36.696065      25.873905      77.031473    
-807608.89      4.1398194      37.632225      25.897505      76.620953    
-807621.42      3.3346223      36.614398      25.894657      76.210617    
-807634.14      3.9334505      35.907698      25.851775      75.800826    
-807638.54      4.0277228      36.756172      25.859227      75.391114    
-807641.85      3.3154994      36.407573      25.868935      74.981463    
-807639.39      3.6081806      35.514668      25.893501      74.571742    
-807630.73      2.7404724      35.572969      25.911818      74.162009    
-807615.55      3.4606078      35.594974      25.935375      73.752224    
-807609.5       3.9580608      36.846286      25.917432      73.342745    
-807612.72      4.2421557      37.278899      25.886989      72.933674    
-807626.05      3.7229832      35.75479       25.879306      72.524811    
-807632.4       3.3083593      34.924016      25.89974       72.115918    
-807639.45      3.8540983      35.463418      25.857205      71.70752     
-807641.67      4.1358374      36.279441      25.807947      71.299665    
-807640.19      3.2250829      34.552691      25.849232      70.891597    
-807624.53      2.8126762      35.40741       25.889914      70.48333     
-807616.43      3.0071913      35.673265      25.890808      70.075191    
-807611.84      4.1719966      37.306897      25.858223      69.667446    
-807615.79      4.1302821      36.774319      25.887462      69.259598    
-807624.22      4.838831       35.902722      25.891338      68.851852    
-807634.03      3.4074857      35.273468      25.867188      68.444424    
-807641.55      4.2539383      36.223561      25.861838      68.037164    
-807641.82      3.2433997      35.044467      25.852751      67.630097    
-807633.44      3.5157461      35.701803      25.863992      67.223067    
-807624.21      3.1064602      35.300489      25.918591      66.815752    
-807618.42      3.9929722      36.433814      25.924791      66.408518    
-807609.53      3.5619079      37.924816      25.861516      66.001879    
-807616.48      4.1343606      36.464683      25.877028      65.595245    
-807622.28      3.7545842      36.665271      25.894803      65.188602    
-807638.77      3.9943402      35.561051      25.87009       64.782258    
-807638.8       3.0870703      36.577758      25.845144      64.376207    
-807639.29      3.9444718      35.54565       25.874812      63.970061    
-807630.81      3.2395486      36.979155      25.863132      63.56411     
-807625.38      3.3742142      36.51134       25.871441      63.158216    
-807612.75      3.3577724      36.507443      25.888875      62.752315    
-807608.67      3.6835792      37.117955      25.870029      62.346656    
-807611.5       3.9059251      38.248795      25.881289      61.941032    
-807627.26      3.0516553      36.296018      25.883755      61.535503    
-807635.94      4.3320896      35.851709      25.871361      61.130167    
-807637.16      3.7630839      37.179533      25.890331      60.724814    
-807637.99      3.4944857      36.290852      25.894817      60.319543    
-807631.8       2.8110462      36.838588      25.919492      59.914222    
-807622.09      2.9529779      35.869232      25.887054      59.509219    
-807610.38      3.7069326      37.473206      25.898044      59.104252    
-807611.79      3.1301126      36.5096        25.889662      58.699444    
-807615.7       3.0350444      37.357662      25.914327      58.29459     
-807628.47      2.8166304      35.021556      25.873026      57.890094    
-807633.26      3.0575874      35.955533      25.871137      57.48571     
-807638.6       2.8727245      36.048361      25.876374      57.081396    
-807637.86      3.0439627      36.626754      25.885969      56.677124    
-807631.05      3.591426       35.990779      25.889694      56.27293     
-807619.38      3.2251258      36.87118       25.886699      55.868854    
-807613         2.8615989      37.526518      25.902157      55.464787    
-807613.34      2.8771075      37.366917      25.852597      55.061101    
-807617.68      3.0048923      36.130095      25.857975      54.657479    
-807625.68      3.1853791      35.768491      25.861553      54.253929    
-807633.51      3.6710063      35.694874      25.847225      53.850551    
-807640.55      3.616756       35.861884      25.797164      53.447538    
-807636.34      4.2922097      36.667192      25.837636      53.044388    
-807627.78      3.4857571      35.977731      25.834452      52.641344    
-807621.72      3.2125122      36.460171      25.835659      52.238379    
-807615         3.6191145      37.524357      25.865104      51.835346    
-807613.67      3.0496782      36.799624      25.902438      51.432207    
-807617.74      3.292054       36.182747      25.924462      51.029047    
-807629.44      3.0360989      35.380091      25.91801       50.626014    
-807637.91      2.6505384      34.64861       25.919609      50.223064    
-807639.58      2.9259077      35.028812      25.924842      49.82018     
-807634.67      3.213507       35.186625      25.899449      49.417512    
-807629.76      2.6575519      34.602888      25.921768      49.014823    
-807622.17      3.5562823      35.875264      25.900381      48.612326    
-807615.31      3.3190833      35.869242      25.876621      48.21003     
-807613.3       3.1227831      36.587379      25.902017      47.807696    
-807621.01      3.675768       35.68053       25.889685      47.405506    
-807631.73      2.6422889      35.621801      25.855057      47.003559    
-807636.31      3.1847152      35.193716      25.851954      46.601706    
-807637.69      3.1758687      35.807385      25.877459      46.199815    
-807636.54      2.9525106      35.569497      25.85876       45.798088    
-807631.21      3.4326697      35.038428      25.833911      45.39655     
-807618.69      3.2185567      36.253243      25.85059       44.995012    
-807611.83      2.9028413      35.889676      25.912456      44.593284    
-807616.46      3.0875968      36.708098      25.931308      44.191557    
-807624.5       3.4652664      36.226709      25.910824      43.789999    
-807630.2       3.2919609      35.975091      25.894859      43.388587    
-807634.16      4.5536192      36.372922      25.878249      42.98732     
-807639.74      2.8631645      35.52913       25.908293      42.586008    
-807636.08      3.4515488      35.992087      25.925462      42.184704    
-807627.54      3.0677198      35.330139      25.88128       41.783655    
-807616.58      2.7236751      36.439981      25.912935      41.382555    
-807615.65      3.3605794      37.188653      25.917269      40.981516    
-807618.27      3.4046562      37.032303      25.894194      40.58064     
-807621.19      3.0222202      36.893192      25.880855      40.179889    
-807629.41      3.5213054      35.812528      25.86025       39.779287    
-807636.23      3.5838565      36.225502      25.810552      39.378938    
-807637.62      3.021475       36.146425      25.860773      38.978469    
-807634.72      3.3248746      35.705206      25.869328      38.578038    
-807624.26      3.481538       35.774653      25.926002      38.177476    
-807619.61      3.3630694      36.729844      25.928274      37.776978    
-807615.15      3.0985239      36.721712      25.893571      37.376673    
-807614.8       3.3101676      36.842009      25.862618      36.976543    
-807621.48      3.7320887      36.700872      25.805505      36.576673    
-807630.64      3.6231055      36.200116      25.808719      36.176851    
-807636.32      4.2346525      37.076945      25.845084      35.776971    
-807634.32      4.2978582      37.125699      25.830984      35.377199    
-807629.76      3.6302299      37.671496      25.853676      34.977416    
-807623.5       4.0974999      37.871076      25.885454      34.577596    
-807618.49      3.0491008      37.409259      25.863856      34.177908    
-807610.63      3.7612887      38.128859      25.861922      33.778289    
-807615.35      3.7757145      37.136676      25.888459      33.378652    
-807625         4.3690717      35.831284      25.880995      32.979102    
-807634.22      3.8233967      35.606984      25.906971      32.579538    
-807635.66      4.6203077      36.347429      25.925312      32.179986    
-807634.94      3.6476126      35.720373      25.924885      31.780502    
-807630.38      3.1058004      36.734525      25.921365      31.381092    
-807621.52      4.4827883      37.377226      25.863128      30.981908    
-807614.85      4.1934842      37.128654      25.876182      30.582748    
-807611.82      3.6128737      38.43266       25.938392      30.183481    
-807619.44      3.3332775      37.124464      25.925288      29.784313    
-807628.82      4.1493498      36.288085      25.918742      29.385226    
-807631.97      3.3968151      37.018118      25.894822      28.986261    
-807635.52      3.4613808      37.350165      25.895646      28.587354    
-807635.76      4.042553       37.211589      25.879975      28.188546    
-807632.43      3.9033787      35.758292      25.828874      27.789919    
-807621.06      3.7752978      36.064803      25.834587      27.391332    
-807615.42      3.2871894      36.225556      25.816272      26.992841    
-807616.94      3.8472563      35.574897      25.77556       26.594497    
-807621.5       3.5804523      35.18349       25.822962      26.196092    
-807625.21      3.6499038      35.670248      25.823852      25.797736    
-807633.99      4.343819       35.632118      25.878188      25.399312    
-807638.2       3.5224618      35.676696      25.885974      25.000926    
-807635.98      3.7043208      35.763777      25.874962      24.602619    
-807628.51      3.5439077      36.565181      25.908382      24.204296    
-807625.51      3.3662898      35.56246       25.899356      23.806048    
-807616.79      3.178474       36.932945      25.93624       23.407781    
-807616.91      3.4543623      37.054179      25.909183      23.009625    
-807618.99      3.2791351      35.787214      25.86702       22.611604    
-807627.02      3.7277646      35.942916      25.862231      22.213644    
-807635.19      2.8652097      35.223233      25.878965      21.815704    
-807637.02      3.9007715      36.434595      25.887808      21.4178      
-807631.83      3.2889723      37.14289       25.873311      21.019973    
-807628.62      3.1945567      36.591615      25.884682      20.622177    
-807623.39      3.2690519      35.564041      25.876093      20.224447    
-807617.86      3.2481571      36.910602      25.901071      19.826726    
-807615.39      3.1245187      36.290057      25.894054      19.429067    
-807622.3       3.2000086      36.046255      25.926547      19.031408    
-807631.44      4.0149024      34.842278      25.910698      18.633826    
-807634.65      3.779893       35.134149      25.888314      18.236329    
-807634.92      3.5284235      35.729032      25.870053      17.838909    
-807634.17      3.1385095      34.53641       25.823409      17.441603    
-807629.04      3.6382131      35.693815      25.85757       17.044294    
-807620.72      3.0700279      35.350777      25.850254      16.64704     
-807615.76      3.2956577      37.912205      25.860386      16.249819    
-807616.92      4.5526394      37.354065      25.900466      15.852591    
-807623.48      3.3112526      36.35124       25.888997      15.455426    
-807628.96      4.5156548      37.304217      25.872152      15.058329    
-807635.13      2.9536659      36.308362      25.885688      14.661261    
-807634.77      3.2641076      37.847441      25.922336      14.264198    
-807632.65      3.5697887      36.752029      25.884556      13.867225    
-807625.73      2.9279561      37.117434      25.895983      13.470286    
-807620.26      4.1021149      37.73546       25.860152      13.07343     
-807613.67      3.3653778      37.545824      25.860409      12.676618    
-807618.29      4.1819279      37.152271      25.84104       12.279868    
-807621.06      2.9751452      37.129271      25.864791      11.883137    
-807626.81      4.4430295      37.632371      25.87391       11.48644     
-807632.41      3.3485119      36.654457      25.877736      11.089784    
-807636.27      3.6145961      35.95255       25.892501      10.693158    
-807630.28      5.5194441      37.023125      25.882929      10.296583    
-807624.73      3.2490963      36.917263      25.872308      9.9000603    
-807619.14      3.7051232      37.199753      25.901293      9.5035577    
-807616.94      2.9586929      36.86853       25.923286      9.1070829    
-807614.83      2.8965497      36.94812       25.916623      8.7106576    
-807622.02      3.6919354      36.379829      25.885802      8.3142966    
-807628.76      2.8302017      36.345447      25.894721      7.9179718    
-807633.04      3.7717639      36.54902       25.879842      7.5216981    
-807632.62      3.7104401      36.323235      25.912407      7.1254472    
-807630.2       3.9202842      36.877845      25.924408      6.7292328    
-807624.58      3.2435145      37.131351      25.919757      6.3330639    
-807618.61      3.864687       38.004098      25.882185      5.9369552    
-807615.81      3.1313938      37.859682      25.894575      5.5408812    
-807618.23      4.2005083      37.418174      25.853827      5.144864     
-807623.9       3.1922657      37.275371      25.851236      4.7488857    
-807628.75      3.6164235      37.336354      25.867428      4.3529393    
-807633.9       3.2588955      36.40536       25.866339      3.9570314    
-807632.11      3.7149235      36.22892       25.823178      3.5611733    
-807630.28      3.9020919      36.590062      25.852762      3.165343     
-807625.67      3.5727138      35.8977        25.862564      2.7695472    
-807617.69      3.7541279      37.122472      25.872775      2.3737866    
-807617.84      3.1595857      36.097965      25.876165      1.9780628    
-807622.7       3.0450764      35.731478      25.86269       1.582378     
-807626.74      2.9959846      35.316706      25.87235       1.1867287    
-807630.28      3.0161615      36.388813      25.906363      0.79111403   
-807633.67      3.7944984      36.941111      25.882583      0.39553858   
-807633.12      3.449885       37.095998      25.901391      0            
Loop time of 197.76 on 32 procs for 5000 steps with 1080 atoms

Performance: 4.369 ns/day, 5.493 hours/ns, 25.283 timesteps/s, 27.306 katom-step/s
66.7% CPU use with 32 MPI tasks x 1 OpenMP threads

MPI task timing breakdown:
Section |  min time  |  avg time  |  max time  |%varavg| %total
---------------------------------------------------------------
Pair    | 101.86     | 145.15     | 193.2      | 317.2 | 73.40
Neigh   | 0          | 0          | 0          |   0.0 |  0.00
Comm    | 2.216      | 50.26      | 93.538     | 538.9 | 25.41
Output  | 0.029378   | 0.030505   | 0.031474   |   0.2 |  0.02
Modify  | 1.9851     | 1.997      | 2.0062     |   0.3 |  1.01
Other   |            | 0.3247     |            |       |  0.16

Nlocal:          33.75 ave          48 max          21 min
Histogram: 8 8 0 0 0 0 0 8 0 8
Nghost:        1106.25 ave        1119 max        1092 min
Histogram: 8 0 8 0 0 0 0 0 8 8
Neighs:              0 ave           0 max           0 min
Histogram: 32 0 0 0 0 0 0 0 0 0
FullNghs:       5494.5 ave        7896 max        3378 min
Histogram: 8 8 0 0 0 0 0 8 0 8

Total # of neighbors = 175824
Ave neighs/atom = 162.8
Neighbor list builds = 0
Dangerous builds = 0

reset_timestep 0


variable interval equal 1000
thermo 10

variable nintervals equal $(v_PERIOD/v_interval)
variable nintervals equal 100
variable efield equal 1e-2*36.36*cos((step/${PERIOD})*2*3.14)
variable efield equal 1e-2*36.36*cos((step/100000)*2*3.14)
fix born all addbornforce 0.0 0.0 v_efield

variable Px equal f_born[1]+c_polarization[1]
variable Py equal f_born[2]+c_polarization[2]
variable Pz equal (f_born[3]+c_polarization[3])/vol
variable pe equal pe

fix aveP all ave/time 1 $(v_interval/2) ${interval} v_efield v_Pz v_pe f_born file Pz.${MODEL}.${STRUCTURE}.${TEMP}.$L.${ITER}
fix aveP all ave/time 1 500 ${interval} v_efield v_Pz v_pe f_born file Pz.${MODEL}.${STRUCTURE}.${TEMP}.$L.${ITER}
fix aveP all ave/time 1 500 1000 v_efield v_Pz v_pe f_born file Pz.${MODEL}.${STRUCTURE}.${TEMP}.$L.${ITER}
fix aveP all ave/time 1 500 1000 v_efield v_Pz v_pe f_born file Pz.BaTiO3-E0.${STRUCTURE}.${TEMP}.$L.${ITER}
fix aveP all ave/time 1 500 1000 v_efield v_Pz v_pe f_born file Pz.BaTiO3-E0.BaTiO3-sc333.${TEMP}.$L.${ITER}
fix aveP all ave/time 1 500 1000 v_efield v_Pz v_pe f_born file Pz.BaTiO3-E0.BaTiO3-sc333.340.$L.${ITER}
fix aveP all ave/time 1 500 1000 v_efield v_Pz v_pe f_born file Pz.BaTiO3-E0.BaTiO3-sc333.340.2.${ITER}
fix aveP all ave/time 1 500 1000 v_efield v_Pz v_pe f_born file Pz.BaTiO3-E0.BaTiO3-sc333.340.2.4

thermo_style custom step time temp press pe f_born v_efield v_Pz spcpu cpuremain

# dump 4a all custom 1000 dump.hyst.${MODEL}.${STRUCTURE}.${TEMP}.$L.${ITER}.bin id type xu yu zu fx fy fz
# dump_modify 4a sort id

fix nvt all nvt temp ${TEMP} ${TEMP} $(100*dt)
fix nvt all nvt temp 340 ${TEMP} $(100*dt)
fix nvt all nvt temp 340 340 $(100*dt)
fix nvt all nvt temp 340 340 0.2000000000000000111

run $(v_PERIOD)
run 100000
WARNING: non-constant efield is experimental, strongly distrust scalar/vector output (src/fix_addbornforce.cpp:193)
Per MPI rank memory allocation (min/avg/max) = 3.516 | 3.516 | 3.516 Mbytes
   Step          Time           Temp          Press          PotEng         f_born        v_efield         v_Pz          S/CPU         CPULeft    
         0   0              328.00547      129293.96     -807633.13     -295.09544      0.3636         0.055499125    0              0            
        10   0.02           341.95155      132376.12     -807630.94     -299.35409      0.36359993     0.056300069    27.19405       3676.931     
        20   0.04           330.92034      138490.37     -807621.51     -307.25938      0.36359971     0.057786865    27.143775      3679.9538    
        30   0.06           338.20271      141582.74     -807618.69     -311.07709      0.36359935     0.058504927    27.15162       3680.3643    
        40   0.08           337.21014      141591.41     -807619        -310.61917      0.36359885     0.058418886    27.148098      3680.5025    
        50   0.1            344.74633      139327.38     -807622.14     -308.53092      0.36359821     0.058026246    27.166668      3679.9355    
        60   0.12           337.92106      134563.25     -807626.35     -303.34197      0.36359742     0.05705047     27.177924      3679.181     
        70   0.14           334.26986      130997.8      -807631.73     -297.34333      0.36359649     0.055922431    27.171606      3678.6591    
        80   0.16           337.33229      127846.6      -807636.16     -293.32946      0.36359541     0.05516769     27.149303      3678.5533    
        90   0.18           332.67535      131351.87     -807631.64     -297.08768      0.36359419     0.055874703    27.1898        3677.7801    
       100   0.2            346.61876      132712.73     -807628.79     -301.97628      0.36359283     0.056794337    27.166863      3677.3981    
       110   0.22           342.52268      139006.16     -807621.87     -308.15728      0.36359132     0.057957072    27.154055      3677.1765    
       120   0.24           346.04745      139719.61     -807621.5      -309.02788      0.36358968     0.058121075    27.110076      3677.4279    
       130   0.26           336.0004       142834.88     -807617.04     -311.92303      0.36358788     0.058665876    27.067539      3678.0286    
       140   0.28           344.82516      137660.59     -807622.04     -308.12641      0.36358595     0.057952123    27.17484       3677.4504    
       150   0.3            349.90253      135260.24     -807628.34     -302.23222      0.36358387     0.056843874    27.21427       3676.5454    
       160   0.32           338.01066      128777.88     -807634.79     -294.03256      0.36358165     0.055302019    27.246875      3675.4332    
       170   0.34           324.95517      130579.12     -807630.49     -296.23512      0.36357928     0.055716643    27.262382      3674.2861    
       180   0.36           353.82423      128992.85     -807633.41     -297.26879      0.36357677     0.055911444    27.250049      3673.3177    
       190   0.38           350.4671       136047.41     -807626.83     -303.04261      0.36357412     0.056997822    27.257301      3672.3617    
       200   0.4            338.3729       138025.24     -807622.16     -305.87627      0.36357132     0.057531233    27.210918      3671.7761    
       210   0.42           342.04258      144586.56     -807615.68     -312.55944      0.36356838     0.058788723    27.154869      3671.572     
       220   0.44           336.88913      141625.02     -807616.13     -311.2345       0.3635653      0.058540015    27.200125      3671.075     
       230   0.46           355.65758      139261.57     -807622.73     -306.80484      0.36356207     0.057707353    27.234209      3670.3897    
       240   0.48           348.69812      132161.2      -807629.23     -299.06407      0.3635587      0.056251903    27.253648      3669.622     
       250   0.5            347.84964      130967.46     -807631.14     -296.73619      0.36355519     0.055814583    27.259828      3668.8533    
       260   0.52           335.05904      129324.08     -807631.09     -294.82579      0.36355153     0.055455805    27.193688      3668.4577    
       270   0.54           351.70404      132048.98     -807630.7      -297.28183      0.36354773     0.055918362    27.190781      3668.0787    
       280   0.56           359.77871      134115.4      -807627.47     -301.52101      0.36354379     0.056716363    27.144943      3667.9216    
       290   0.58           343.82975      141735.32     -807617.14     -309.47483      0.3635397      0.058213136    27.141671      3667.7653    
       300   0.6            360.38746      141529.27     -807616.98     -311.85432      0.36353547     0.058661408    27.146415      3667.5734    
       310   0.62           357.89415      141645.39     -807618.63     -309.70917      0.3635311      0.058258595    27.193325      3667.1658    
       320   0.64           353.45178      137756.89     -807622.02     -305.69665      0.36352658     0.057504525    27.222264      3666.6389    
       330   0.66           361.90426      133149.91     -807628.58     -300.30265      0.36352192     0.056490586    27.180881      3666.2906    
       340   0.68           340.81209      129879.5      -807629.99     -295.99577      0.36351712     0.055681144    27.162375      3666.0146    
       350   0.7            346.40741      129672.57     -807632.54     -294.26884      0.36351217     0.055357038    27.143503      3665.8063    
       360   0.72           340.52373      131963.12     -807629.24     -296.87079      0.36350708     0.05584729     27.147965      3665.5722    
       370   0.74           359.51966      135851.17     -807624.43     -304.50011      0.36350185     0.057283342    27.156316      3665.3004    
       380   0.76           355.64015      139437.18     -807620.02     -308.60725      0.36349647     0.058056846    27.117963      3665.1602    
       390   0.78           351.3212       142657.16     -807616.61     -311.55711      0.36349095     0.058612681    27.152747      3664.8874    
       400   0.8            352.24937      140838.12     -807618.79     -309.84531      0.36348529     0.058291551    27.218139      3664.3896    
       410   0.82           356.51421      137588.64     -807622.61     -306.91005      0.36347948     0.05774026     27.226881      3663.8695    
       420   0.84           342.13264      132945.92     -807628.29     -299.5643       0.36347353     0.056359195    27.216474      3663.39      
       430   0.86           332.49882      130747.24     -807631.83     -294.97933      0.36346744     0.055497523    27.244392      3662.8284    
       440   0.88           340.6346       128148.97     -807634.48     -293.8705       0.3634612      0.055289855    27.223252      3662.3403    
       450   0.9            343.16064      131674.91     -807630.72     -298.23924      0.36345482     0.05611279     27.163776      3662.0355    
       460   0.92           351.62797      135598.9      -807626.54     -303.99744      0.3634483      0.057197205    27.152541      3661.7608    
       470   0.94           337.89688      140772.16     -807620.55     -308.30236      0.36344163     0.058008241    27.179008      3661.4063    
       480   0.96           334.91175      141637.22     -807617.74     -310.82036      0.36343482     0.058483108    27.254214      3660.8406    
       490   0.98           350.7419       139807.49     -807620.74     -310.22826      0.36342786     0.058372816    27.265746      3660.2516    
       500   1              335.47215      136509.96     -807624.13     -304.78681      0.36342077     0.05735007     27.225266      3659.7799    
       510   1.02           338.80079      131999.06     -807631        -9550.5773      0.36341353     0.056159868    27.077639      3659.703     
       520   1.04           336.79816      129591.98     -807634.11     -9442.1055      0.36340614     0.055523153    27.108403      3659.5347    
       530   1.06           340.62573      129175.08     -807634.13     -9461.9904      0.36339862     0.055641237    27.108028      3659.3598    
       540   1.08           331.54716      132348.69     -807629.41     -9573.8984      0.36339095     0.0563005      27.09343       3659.2143    
       550   1.1            343.68365      135806.51     -807626.37     -9728.1462      0.36338313     0.057208803    27.102174      3659.0391    
       560   1.12           348.40951      139601.16     -807622.67     -9868.2249      0.36337518     0.058033842    27.118713      3658.8171    
       570   1.14           336.41962      141929.1      -807618.06     -9963.8504      0.36336707     0.05859751     27.149684      3658.5165    
       580   1.16           330.03508      140931.39     -807619.24     -9899.325       0.36335883     0.058219357    27.174474      3658.156     
       590   1.18           341.98766      135387.99     -807627.3      -9694.7766      0.36335044     0.057017694    27.166559      3657.8133    
       600   1.2            334.06824      132266.41     -807630.65     -9549.9961      0.36334191     0.056167518    27.163725      3657.4762    
       610   1.22           328.57735      129381.25     -807632.5      -9466.0197      0.36333324     0.055674947    27.141661      3657.1867    
       620   1.24           334.60718      130298.04     -807632.3      -9496.1008      0.36332442     0.055853226    27.156934      3656.8616    
       630   1.26           337.4123       132472        -807630.7      -9559.7058      0.36331546     0.056228718    27.166812      3656.5139    
       640   1.28           349.58292      136371.14     -807625.59     -9775.471       0.36330636     0.057499256    27.167219      3656.1647    
       650   1.3            342.79021      139956.53     -807620.11     -9920.0769      0.36329711     0.058351313    27.148366      3655.854     
       660   1.32           333.69019      141838.15     -807617.94     -9947.1537      0.36328772     0.058512095    27.159402      3655.519     
       670   1.34           352.69437      138779.87     -807624.16     -9829.24        0.36327819     0.057820009    27.169157      3655.1634    
       680   1.36           344.2844       135091.24     -807626.62     -9711.058       0.36326851     0.057126331    27.121857      3654.9013    
       690   1.38           335.14416      131967.64     -807629.84     -9566.2434      0.36325869     0.056275965    27.072877      3654.7321    
       700   1.4            330.55401      130168.4      -807632.99     -9440.2793      0.36324873     0.05553647     27.083683      3654.5362    
       710   1.42           340.45793      129542.38     -807635.02     -9417.1427      0.36323863     0.055401901    27.104308      3654.2962    
       720   1.44           344.3578       132762.8      -807629.37     -9614.3928      0.36322838     0.056563937    27.092236      3654.0752    
       730   1.46           340.82417      137477.18     -807622.26     -9823.8676      0.36321798     0.057797985    27.093927      3653.8471    
       740   1.48           343.8653       140937.53     -807620.27     -9897.3165      0.36320745     0.058231805    27.08958       3653.623     
       750   1.5            320.94931      142015.88     -807617.81     -9871.4459      0.36319677     0.058081301    27.092287      3653.3903    
       760   1.52           345.1656       138853.82     -807621.42     -9860.0992      0.36318595     0.058016268    27.111796      3653.1193    
       770   1.54           340.75189      134601.6      -807624.61     -9734.0698      0.36317498     0.057276448    27.141357      3652.7939    
       780   1.56           349.01186      131454.71     -807632.38     -9514.4693      0.36316387     0.055986004    27.145124      3652.461     
       790   1.58           331.9205       129100.06     -807633.52     -9396.4256      0.36315262     0.055293113    27.127709      3652.1568    
       800   1.6            345.80067      131306.17     -807631.57     -9515.0488      0.36314122     0.055992906    27.151939      3651.8103    
       810   1.62           358.42088      133174.47     -807628.33     -9671.9186      0.36312968     0.056917841    27.160865      3651.4484    
       820   1.64           350.03648      138803.51     -807623.81     -9772.925       0.363118       0.0575141      27.143359      3651.115     
       830   1.66           352.70387      140316.59     -807622.13     -9830.9393      0.36310618     0.057857401    27.08731       3650.8719    
       840   1.68           344.48691      141749.16     -807618.09     -9917.9463      0.36309421     0.058371381    27.0764        3650.6434    
       850   1.7            354.61716      137791.44     -807621.54     -9848.314       0.3630821      0.057963498    27.11689       3650.3472    
       860   1.72           350.54844      134392.82     -807627.07     -9640.9018      0.36306984     0.056744663    27.157635      3649.9855    
       870   1.74           336.97647      130787.07     -807631.11     -9443.9275      0.36305745     0.055587205    27.129591      3649.6671    
       880   1.76           346.17503      130789.14     -807631.31     -9470.4134      0.3630449      0.055745027    27.147414      3649.3203    
       890   1.78           354.80282      130813.29     -807630.05     -9543.8503      0.36303222     0.056179256    27.177331      3648.9278    
       900   1.8            347.48149      135112.52     -807626.5      -9618.405       0.36301939     0.056620119    27.148711      3648.5786    
       910   1.82           351.9827       137591.09     -807623.72     -9722.1203      0.36300642     0.057232699    27.117727      3648.2747    
       920   1.84           354.9226       140977.05     -807617.61     -9925.0356      0.36299331     0.058429342    27.038062      3648.0865    
       930   1.86           357.87239      139987.62     -807618.3      -9914.4247      0.36298005     0.058369006    27.098147      3647.8071    
       940   1.88           360.67254      138545.94     -807623.12     -9765.3224      0.36296665     0.057493322    27.079626      3647.5523    
       950   1.9            356.93284      133775.07     -807628.97     -9562.4669      0.36295311     0.056301111    27.081111      3647.293     
       960   1.92           341.43212      133013.74     -807627.31     -9543.803       0.36293942     0.056193342    27.051594      3647.073     
       970   1.94           345.02267      130499        -807629.86     -9479.0437      0.36292559     0.05581417     27.073271      3646.8196    
       980   1.96           346.12645      131896.57     -807629.85     -9483.1911      0.36291162     0.055840741    27.033636      3646.6186    
       990   1.98           357.14716      135355.17     -807627.41     -9612.2156      0.3628975      0.056602689    27.044109      3646.3999    
      1000   2              356.72325      139072.57     -807620.67     -9830.0894      0.36288325     0.057887939    27.010402      3646.2239    
      1010   2.02           367.74005      141529.21     -807619.21     -310.31612      0.36286884     0.058479301    27.167565      3645.8341    
      1020   2.04           354.21622      140350.29     -807621.47     -306.36358      0.3628543      0.057736756    27.164163      3645.4491    
      1030   2.06           354.47765      137304.71     -807624.71     -303.34882      0.36283961     0.057170914    27.202389      3645.0149    
      1040   2.08           358.82551      133323.61     -807628.58     -300.48837      0.36282478     0.056634132    27.243402      3644.5292    
      1050   2.1            338.86254      131004.93     -807628.61     -298.11039      0.3628098      0.056188263    27.314785      3643.9554    
      1060   2.12           334.74866      131405.09     -807631.47     -295.00712      0.36279469     0.055605673    27.29453       3643.4108    
      1070   2.14           346.93594      132172.88     -807631.52     -297.0694       0.36277943     0.055996745    27.256061      3642.9174    
      1080   2.16           348.86809      136205.94     -807625.42     -303.84905      0.36276402     0.057277121    27.267153      3642.4127    
      1090   2.18           343.50753      139064.73     -807620.32     -308.64497      0.36274848     0.058183672    27.230371      3641.9555    
      1100   2.2            349.62523      140937.34     -807621.63     -308.40594      0.36273279     0.058141125    27.224044      3641.5076    
      1110   2.22           330.23902      139168.84     -807621.71     -305.86126      0.36271695     0.057663916    27.260046      3641.0178    
      1120   2.24           337.82056      137568.28     -807623.12     -305.67063      0.36270098     0.057630515    27.267257      3640.5217    
      1130   2.26           343.19509      131681.17     -807630.07     -299.69088      0.36268486     0.056505616    27.261406      3640.0349    
      1140   2.28           337.97051      131294.05     -807633.01     -296.01748      0.3626686      0.055815513    27.243889      3639.5705    
      1150   2.3            321.57067      128913.04     -807632.89     -294.06917      0.36265219     0.055450658    27.20242       3639.156     
      1160   2.32           339.43152      133944.64     -807629.04     -300.35429      0.36263564     0.056638385    27.190373      3638.7562    
      1170   2.34           341.12491      133947.36     -807627.08     -302.80582      0.36261895     0.057103304    27.189862      3638.3574    
      1180   2.36           341.27957      139753.25     -807621.74     -308.06631      0.36260212     0.058098027    27.176454      3637.9744    
      1190   2.38           333.82477      138748.05     -807622.44     -306.40707      0.36258514     0.057787817    27.169436      3637.5996    
      1200   2.4            326.95831      141152.58     -807619.25     -308.64947      0.36256802     0.058213479    27.21307       3637.1762    
      1210   2.42           339.64744      135251.99     -807626.49     -303.2872       0.36255076     0.05720484     27.193936      3636.7749    
      1220   2.44           350.63223      133590.98     -807632.3      -298.83116      0.36253335     0.056367066    27.240333      3636.3235    
      1230   2.46           319.93442      129035.03     -807632.65     -294.2461       0.3625158      0.055504895    27.228745      3635.8859    
      1240   2.48           328.04523      130954.87     -807631.32     -296.59187      0.36249811     0.055950119    27.188762      3635.4925    
      1250   2.5            344.19978      131708.42     -807630.91     -299.30439      0.36248028     0.056464596    27.172911      3635.1165    
      1260   2.52           341.95159      136554.55     -807626.53     -303.27668      0.3624623      0.057216817    27.193678      3634.7186    
      1270   2.54           328.67249      139505.9      -807621.27     -306.62572      0.36244418     0.057851547    27.254349      3634.2575    
      1280   2.56           334.43511      140494.04     -807619.63     -308.99787      0.36242592     0.058302041    27.258334      3633.7938    
      1290   2.58           342.96455      138934.98     -807622.3      -307.39253      0.36240751     0.058002089    27.262693      3633.327     
      1300   2.6            338.82527      134824.75     -807626.83     -302.17244      0.36238896     0.057020026    27.251143      3632.8736    
      1310   2.62           330.67682      133189.25     -807630.13     -297.54291      0.36237027     0.056149329    27.2283        3632.4447    
      1320   2.64           333.57114      129110.25     -807633.42     -294.57499      0.36235143     0.055592142    27.248265      3631.9966    
      1330   2.66           332.03797      131830.64     -807630.76     -296.84287      0.36233245     0.05602307     27.231671      3631.5663    
      1340   2.68           331.07531      132419.91     -807629.11     -298.32857      0.36231333     0.056306437    27.184338      3631.1841    
      1350   2.7            342.74541      137433.24     -807624        -304.77695      0.36229407     0.057526562    27.206307      3630.7804    
      1360   2.72           340.72368      139261.06     -807622.13     -306.31437      0.36227466     0.057819846    27.247824      3630.3365    
      1370   2.74           332.01403      141694.71     -807617.66     -309.28022      0.36225511     0.05838283     27.25314       3629.8886    
      1380   2.76           345.35164      136973.73     -807623.43     -305.1717       0.36223542     0.057610395    27.214787      3629.4789    
      1390   2.78           346.61708      136250.41     -807626.58     -301.8367       0.36221558     0.056983934    27.195496      3629.0883    
      1400   2.8            341.01844      131702.95     -807630.96     -296.44268      0.3621956      0.05596868     27.180649      3628.7121    
      1410   2.82           349.10334      131335.62     -807633.3      -294.9595       0.36217548     0.05569175     27.179508      3628.3371    
      1420   2.84           333.73314      130801.51     -807630.75     -295.15056      0.36215522     0.055730942    27.188313      3627.954     
      1430   2.86           350.71813      133844.37     -807628.47     -299.54271      0.36213481     0.056563463    27.218481      3627.543     
      1440   2.88           348.97629      136613.67     -807623.78     -303.84735      0.36211426     0.057379577    27.224153      3627.1273    
      1450   2.9            330.73501      140410.67     -807616.8      -308.07609      0.36209357     0.05818147     27.238033      3626.6996    
      1460   2.92           351.03296      140061.61     -807619.09     -308.38711      0.36207273     0.05824356     27.182806      3626.3231    
      1470   2.94           347.6711       138324.57     -807621.28     -305.52833      0.36205176     0.05770698     27.205193      3625.9263    
      1480   2.96           349.85442      136523.42     -807625.1      -301.77113      0.36203064     0.05700066     27.267894      3625.4738    
      1490   2.98           343.95224      131581.3      -807629.16     -296.72556      0.36200937     0.05605091     27.256288      3625.0326    
      1500   3              341.18597      131440.66     -807630.67     -294.59489      0.36198796     0.05565172     27.231483      3624.6145    
      1510   3.02           345.31313      130092.67     -807631.21     -9426.7791      0.36196642     0.055653514    27.128525      3624.2879    
      1520   3.04           352.29382      134653.48     -807626.89     -9591.4203      0.36194472     0.056628911    27.162966      3623.9305    
      1530   3.06           353.83735      136144.83     -807623.39     -9711.6302      0.36192289     0.057342104    27.172079      3623.5649    
      1540   3.08           347.63974      142194.4      -807617.41     -9869.3504      0.36190091     0.058276899    27.12595       3623.2394    
      1550   3.1            352.03278      139496.95     -807619.66     -9820.6225      0.36187879     0.057992713    27.115291      3622.9225    
      1560   3.12           351.39167      139583.75     -807620.39     -9791.4372      0.36185653     0.057823925    27.110429      3622.6091    
      1570   3.14           355.45158      133804.96     -807627.13     -9596.5616      0.36183412     0.056676585    27.117396      3622.2891    
      1580   3.16           341.9593       132680.56     -807628.66     -9488.9042      0.36181157     0.056044261    27.09532       3621.9872    
      1590   3.18           345.69553      128916.6      -807633.19     -9367.609       0.36178888     0.055331326    27.101095      3621.6796    
      1600   3.2            338.73547      133034.12     -807628.79     -9483.4423      0.36176605     0.05601905     27.107724      3621.3656    
      1610   3.22           350.69307      133688.95     -807627.87     -9579.5559      0.36174307     0.05659039     27.144412      3621.0205    
      1620   3.24           351.84154      138652.02     -807622.36     -9772.287       0.36171995     0.057732623    27.196951      3620.6319    
      1630   3.26           331.14994      140454.65     -807618.65     -9815.5467      0.36169669     0.057991921    27.158679      3620.2748    
      1640   3.28           349.23976      141335.95     -807620.1      -9863.8933      0.36167329     0.058281332    27.181514      3619.899     
      1650   3.3            339.99049      136936.25     -807624.03     -9713.2639      0.36164974     0.057395067    27.175014      3619.5286    
      1660   3.32           344.66218      134222.88     -807628.49     -9601.9667      0.36162605     0.056741136    27.166228      3619.1652    
      1670   3.34           332.73466      129817.69     -807632.29     -9440.148       0.36160222     0.055788573    27.199726      3618.7751    
      1680   3.36           335.79866      129674.27     -807633.81     -9412.976       0.36157824     0.055631683    27.204067      3618.3819    
      1690   3.38           333.64486      131879.66     -807631.09     -9496.2362      0.36155413     0.056127504    27.199256      3617.9927    
      1700   3.4            330.70286      133906.66     -807627.3      -9611.8247      0.36152987     0.056814501    27.22014       3617.5874    
      1710   3.42           333.26118      138645.05     -807623.04     -9761.9456      0.36150546     0.057705746    27.202935      3617.196     
      1720   3.44           336.80689      137945.64     -807622.9      -9787.7356      0.36148092     0.057862127    27.198429      3616.8083    
      1730   3.46           330.82265      141050.69     -807620.49     -9835.4233      0.36145623     0.058148013    27.132494      3616.4716    
      1740   3.48           335.94557      135241.9      -807625.89     -9690.81        0.3614314      0.057296981    27.159663      3616.1137    
      1750   3.5            341.16705      134719.13     -807629.4      -9598.3083      0.36140643     0.056753985    27.16177       3615.7541    
      1760   3.52           328.67314      129681.93     -807633.25     -9421.8037      0.36138131     0.0557142      27.16961       3615.3884    
      1770   3.54           329.86001      132295.62     -807631.68     -9472.7334      0.36135605     0.05601928     27.196755      3615.0024    
      1780   3.56           328.49213      129358.01     -807632.19     -9454.4784      0.36133065     0.055915254    27.178831      3614.6299    
      1790   3.58           329.66224      136978.99     -807626.43     -9638.3603      0.36130511     0.057006791    27.133553      3614.2912    
      1800   3.6            339.94643      135363.51     -807626.62     -9680.3818      0.36127942     0.057259401    27.109305      3613.9701    
      1810   3.62           327.60859      141101.68     -807619.31     -9851.3429      0.3612536      0.0582748      27.066775      3613.68      
      1820   3.64           341.22229      136725.54     -807624.4      -9748.6214      0.36122763     0.057671306    27.072845      3613.3845    
      1830   3.66           340.36893      137801.21     -807624.77     -9724.3672      0.36120151     0.057531981    27.090107      3613.0755    
      1840   3.68           340.37455      131590.97     -807630.42     -9541.9645      0.36117526     0.056456941    27.098638      3612.7597    
      1850   3.7            328.10618      132125.56     -807629.89     -9493.6663      0.36114886     0.056175281    27.11314       3612.4329    
      1860   3.72           338.19406      129663.46     -807634.1      -9400.6335      0.36112232     0.055628881    27.163435      3612.0696    
      1870   3.74           342.41758      132159.99     -807631.26     -9502.87        0.36109564     0.056238028    27.179316      3611.6949    
      1880   3.76           336.24114      134640.12     -807626.14     -9632.9816      0.36106881     0.057012265    27.197494      3611.3075    
      1890   3.78           332.3869       138070.68     -807621.9      -9745.9169      0.36104184     0.057684974    27.171301      3610.9387    
      1900   3.8            347.44692      140006.8      -807622.71     -9775.6159      0.36101474     0.057865104    27.133718      3610.5962    
      1910   3.82           339.90908      138231.34     -807622.24     -9751.1473      0.36098748     0.057724624    27.126629      3610.2584    
      1920   3.84           352.48501      137017.27     -807625.13     -9705.6124      0.36096009     0.057459428    27.180828      3609.8827    
      1930   3.86           352.37771      132246.85     -807630.5      -9526.9982      0.36093255     0.056406294    27.205855      3609.4899    
      1940   3.88           335.50475      132328.68     -807630.73     -9435.4893      0.36090487     0.055868784    27.177505      3609.1167    
      1950   3.9            337.55494      129551.99     -807632.12     -9396.2582      0.36087705     0.055640781    27.204599      3608.7252    
      1960   3.92           336.15627      134276.06     -807627.22     -9538.5311      0.36084909     0.05648764     27.188921      3608.3445    
      1970   3.94           347.85158      133566.75     -807627.8      -9570.927       0.36082098     0.056683905    27.118362      3608.0116    
      1980   3.96           337.39448      140806.71     -807619.67     -9773.7296      0.36079273     0.057889537    27.124856      3607.6739    
      1990   3.98           348.23414      137974.81     -807621.47     -9764.0512      0.36076434     0.057836764    27.100685      3607.3522    
      2000   4              348.36184      141062.93     -807619.36     -9822.3055      0.36073581     0.058186432    27.134972      3607.007     
      2010   4.02           350.09787      134208.06     -807626.5      -300.12652      0.36070713     0.05689802     27.252874      3606.584     
      2020   4.04           347.97746      135741.14     -807627.75     -298.23524      0.36067831     0.056543988    27.209691      3606.1897    
      2030   4.06           340.6568       128976.44     -807631.13     -293.89443      0.36064935     0.055725466    27.197809      3605.8035    
      2040   4.08           338.39536      134059.48     -807628.71     -295.77849      0.36062025     0.05608723     27.222713      3605.4012    
      2050   4.1            359.38851      130184.35     -807632.61     -294.86809      0.36059101     0.055919129    27.239741      3604.9884    
      2060   4.12           354.87695      137181.59     -807625.11     -301.59546      0.36056162     0.057199578    27.183062      3604.6124    
      2070   4.14           346.35961      137384.5      -807621.74     -303.94094      0.36053209     0.057649133    27.204015      3604.2231    
      2080   4.16           354.13018      140966.9      -807620.26     -306.39335      0.36050242     0.058119072    27.205442      3603.833     
      2090   4.18           343.52314      138385.76     -807622.29     -303.01518      0.36047261     0.057483028    27.238244      3603.4225    
      2100   4.2            355.17358      137175.14     -807624.98     -301.92586      0.36044265     0.05728114     27.253164      3603.0029    
      2110   4.22           337.90689      133119.38     -807627.5      -297.14278      0.36041256     0.056378405    27.202341      3602.6157    
      2120   4.24           334.62723      132404.06     -807629.32     -294.94107      0.36038232     0.055965359    27.189742      3602.2366    
      2130   4.26           349.14839      130112.03     -807633.06     -293.34503      0.36035193     0.055667202    27.248346      3601.8212    
      2140   4.28           340.27223      132522.57     -807629.18     -296.2525       0.36032141     0.056223706    27.234285      3601.4149    
      2150   4.3            346.77589      135308.77     -807625.45     -301.12365      0.36029075     0.057153033    27.212215      3601.0225    
      2160   4.32           342.80264      138106.29     -807623.08     -303.2444       0.36025994     0.057560471    27.254778      3600.6044    
      2170   4.34           345.53076      139320.94     -807622.67     -304.36759      0.36022899     0.057778633    27.233498      3600.1997    
      2180   4.36           342.16618      137201.81     -807623.79     -303.24694      0.36019789     0.057570868    27.192334      3599.8202    
      2190   4.38           345.79685      136852.37     -807626.73     -301.24027      0.36016666     0.057194864    27.194606      3599.4395    
      2200   4.4            330.06561      132259.16     -807630.17     -296.0724       0.36013528     0.056218566    27.18589       3599.0641    
      2210   4.42           328.36266      132813.86     -807631.12     -295.14547      0.36010377     0.056047464    27.204025      3598.678     
      2220   4.44           321.78788      129275.41     -807631.31     -294.45423      0.36007211     0.055921117    27.211263      3598.2877    
      2230   4.46           332.38635      134356.15     -807628.31     -299.08576      0.3600403      0.056805729    27.225689      3597.8891    
      2240   4.48           331.13815      133104.32     -807627.75     -299.7302       0.36000836     0.056933178    27.265277      3597.4675    
      2250   4.5            334.52388      139705.93     -807623.49     -304.39711      0.35997627     0.057824803    27.265817      3597.0461    
      2260   4.52           332.3419       136031.75     -807625.31     -302.48452      0.35994404     0.057466624    27.272818      3596.6211    
      2270   4.54           341.97852      138655.43     -807624.34     -304.67485      0.35991167     0.057887952    27.261031      3596.2034    
      2280   4.56           326.85906      131922.82     -807629.44     -297.62287      0.35987916     0.056553192    27.239062      3595.7988    
      2290   4.58           324.85271      135011.6      -807629.31     -297.27419      0.35984651     0.056492063    27.210028      3595.4113    
      2300   4.6            323.68481      129113.24     -807632.45     -294.1125       0.35981371     0.055896329    27.221274      3595.0175    
      2310   4.62           336.39851      133405.01     -807631.06     -296.97387      0.35978077     0.056445302    27.269977      3594.5962    
      2320   4.64           335.24327      130805.65     -807631.59     -296.33595      0.35974769     0.056329233    27.265173      3594.1781    
      2330   4.66           331.62016      138326.26     -807625.07     -302.13532      0.35971447     0.057436915    27.277068      3593.7537    
      2340   4.68           338.51628      135209.05     -807626.24     -301.93774      0.35968111     0.057404678    27.272205      3593.3326    
      2350   4.7            332.17794      139289.65     -807622.17     -304.79108      0.3596476      0.057952557    27.263907      3592.9165    
      2360   4.72           322.46248      134625.47     -807626.01     -299.55792      0.35961396     0.05696286     27.257569      3592.5044    
      2370   4.74           324.2336       135674.77     -807626.1      -299.36413      0.35958017     0.05693136     27.252578      3592.0954    
      2380   4.76           329.76566      130823.24     -807631.36     -294.72989      0.35954624     0.056055334    27.25636       3591.6848    
      2390   4.78           328.74066      132394.3      -807630.22     -295.32127      0.35951216     0.056173135    27.259489      3591.2727    
      2400   4.8            339.94067      130464.38     -807632.53     -294.40696      0.35947795     0.056004554    27.243359      3590.8699    
      2410   4.82           336.65759      135927.7      -807627.52     -298.63558      0.35944359     0.056814387    27.193522      3590.4946    
      2420   4.84           344.71999      135050.19     -807626.23     -300.90759      0.35940909     0.057252123    27.230023      3590.0995    
      2430   4.86           338.89566      138717.43     -807623.11     -302.86524      0.35937446     0.057630149    27.17258       3589.7358    
      2440   4.88           333.4416       137258.53     -807623.33     -301.77741      0.35933967     0.057428712    27.156042      3589.381     
      2450   4.9            348.87044      136559.95     -807625.72     -301.27474      0.35930475     0.057338625    27.187264      3589.0092    
      2460   4.92           329.7434       134968.63     -807626.23     -297.90594      0.35926969     0.05670301     27.209423      3588.6256    
      2470   4.94           338.50007      132354.45     -807630.55     -294.54289      0.35923448     0.056068385    27.252786      3588.2191    
      2480   4.96           345.07613      131779.16     -807632.01     -293.7593       0.35919913     0.055924727    27.27088       3587.8033    
      2490   4.98           347.06191      131130.22     -807630.34     -295.57548      0.35916364     0.056276043    27.269198      3587.3888    
      2500   5              339.00482      135778.38     -807625.28     -299.31163      0.35912801     0.056993041    27.261638      3586.9786    
[...]
     98740   197.48         351.47416      133740.72     -807629.71     -9611.5532      0.36236891     0.056681349    30.340719      44.330769    
     98750   197.5          340.71588      135199.63     -807626        -9680.2635      0.36238762     0.057083602    30.366264      43.978652    
     98760   197.52         343.0806       134475.74     -807625.69     -9697.9211      0.36240618     0.057184799    30.362826      43.626541    
     98770   197.54         339.60722      134759.15     -807626.74     -9646.6898      0.36242459     0.056879817    30.282504      43.274445    
     98780   197.56         340.40018      134011.2      -807627.81     -9613.1167      0.36244287     0.056679002    30.27596       42.922354    
     98790   197.58         336.12233      136033.68     -807624.34     -9702.0851      0.362461       0.057200699    30.304757      42.570264    
     98800   197.6          340.11009      135449.12     -807625.24     -9689.8616      0.36247899     0.057125798    30.353499      42.218172    
     98810   197.62         353.65078      135193.65     -807627.7      -9668.029       0.36249683     0.05699428     30.318098      41.866089    
     98820   197.64         344.16039      134382.42     -807627.93     -9616.954       0.36251453     0.056690418    30.312758      41.514012    
     98830   197.66         346.53234      136039.59     -807626.79     -9662.2272      0.36253209     0.056954537    30.330153      41.161936    
     98840   197.68         344.12551      134907.08     -807626.43     -9662.4224      0.36254951     0.056952952    30.381877      40.809859    
     98850   197.7          345.11119      135074.32     -807626.82     -9650.0045      0.36256678     0.056877047    30.33647       40.457792    
     98860   197.72         336.68126      134480.64     -807627.17     -9601.6506      0.36258391     0.056589376    30.263238      40.105738    
     98870   197.74         346.33186      135652.5      -807625.22     -9707.4709      0.3626009      0.05721037     30.307779      39.753684    
     98880   197.76         341.41983      136068.48     -807624.37     -9712.0929      0.36261774     0.057234951    30.344924      39.401629    
     98890   197.78         348.03155      134664.66     -807627.05     -9653.5204      0.36263445     0.056887154    30.307323      39.049584    
     98900   197.8          342.9009       135507.1      -807626.96     -9633.0699      0.362651       0.056764049    30.365324      38.697536    
     98910   197.82         334.72976      134804.55     -807624.47     -9677.3685      0.36266742     0.057022503    30.369111      38.345492    
     98920   197.84         342.41413      134658.83     -807625.01     -9693.2831      0.36268369     0.057113715    30.327108      37.993457    
     98930   197.86         349.90193      133813.33     -807628.74     -9606.1549      0.36269982     0.05659783     30.340912      37.641426    
     98940   197.88         336.90901      135220.65     -807625.6      -9645.3192      0.36271581     0.056826075    30.340744      37.289399    
     98950   197.9          346.05956      135292.66     -807625.53     -9691.1618      0.36273165     0.057093666    30.309505      36.93738     
     98960   197.92         349.88437      135567.62     -807624.97     -9726.5943      0.36274735     0.05729993     30.270091      36.585371    
     98970   197.94         346.86215      135093.83     -807626.52     -9663.3461      0.36276291     0.05692489     30.259587      36.233366    
     98980   197.96         345.39358      136444.92     -807627.04     -9642.4949      0.36277832     0.056799646    30.304206      35.881362    
     98990   197.98         338.76963      135262.44     -807624.79     -9689.6829      0.36279359     0.057075207    30.293742      35.529362    
     99000   198            343.64879      136112.09     -807625.03     -9705.6517      0.36280872     0.057166884    30.257585      35.177372    
     99010   198.02         340.781        134318.65     -807627.7      -300.26698      0.3628237      0.056592573    30.277176      34.825383    
     99020   198.04         348.04027      134904.01     -807628.05     -300.98804      0.36283855     0.056726153    30.311449      34.473395    
     99030   198.06         348.17989      134147.67     -807626.83     -302.46988      0.36285324     0.057003122    30.390047      34.121403    
     99040   198.08         341.28739      136350.89     -807624.49     -303.97542      0.3628678      0.057284556    30.371385      33.769418    
     99050   198.1          338.99734      134645.95     -807627.58     -300.79887      0.36288221     0.056683681    30.345934      33.41744     
     99060   198.12         341.90489      135878.22     -807626.78     -302.12618      0.36289648     0.056931565    30.401746      33.065461    
     99070   198.14         335.16607      135065.53     -807624.63     -303.61952      0.36291061     0.057210738    30.338919      32.713493    
     99080   198.16         334.986        135613.7      -807624.57     -303.87679      0.36292459     0.057257008    30.351736      32.361528    
     99090   198.18         325.10296      134981.89     -807626.18     -301.11325      0.36293843     0.056734135    30.375889      32.009565    
     99100   198.2          339.20646      134955.46     -807627.93     -301.53555      0.36295213     0.056811558    30.338141      31.65761     
     99110   198.22         330.97595      135329.41     -807625.25     -303.35127      0.36296568     0.057151519    30.437588      31.305651    
     99120   198.24         338.84231      135882.58     -807627.14     -302.75344      0.36297909     0.05703678     30.39726       30.9537      
     99130   198.26         335.48939      135020.99     -807628.44     -301.22617      0.36299236     0.056746978    30.425552      30.601751    
     99140   198.28         344.50244      134784.84     -807629.51     -301.61041      0.36300548     0.056817309    30.454155      30.249804    
     99150   198.3          321.97874      135095.13     -807624.41     -303.82564      0.36301846     0.057232568    30.470124      29.89786     
     99160   198.32         333.90857      134828.49     -807626.83     -303.31694      0.3630313      0.057134721    30.395647      29.545928    
     99170   198.34         332.285        134539.42     -807628.41     -301.57437      0.36304399     0.056804493    30.371746      29.194002    
     99180   198.36         332.46282      134917.28     -807627.91     -302.25096      0.36305655     0.056929968    30.342468      28.842084    
     99190   198.38         334.16468      134765.42     -807627.48     -303.07723      0.36306895     0.057083648    30.358062      28.490169    
     99200   198.4          334.32609      135595.06     -807627.03     -303.64409      0.36308122     0.057188482    30.420949      28.138253    
     99210   198.42         337.8677       134002.58     -807629.1      -302.14892      0.36309334     0.05690498     30.413964      27.786342    
     99220   198.44         330.9632       135426.77     -807627.53     -302.77251      0.36310532     0.057020544    30.37076       27.43444     
     99230   198.46         327.7306       134576.29     -807627.05     -302.8938       0.36311715     0.057041526    30.378654      27.082541    
     99240   198.48         335.33378      135258.94     -807626.76     -304.27273      0.36312885     0.057299363    30.380723      26.730647    
     99250   198.5          330.23077      133944.46     -807628.84     -301.49419      0.3631404      0.056774314    30.352598      26.37876     
     99260   198.52         330.92919      135282.11     -807627.5      -302.80415      0.3631518      0.057019202    30.24732       26.026886    
     99270   198.54         334.83351      134590.6      -807627.53     -303.32525      0.36316306     0.057115556    30.310961      25.675011    
     99280   198.56         328.50151      136632.72     -807625.52     -304.2826       0.36317418     0.057294069    30.310332      25.32314     
     99290   198.58         336.38739      134009.82     -807629.38     -301.35716      0.36318516     0.056741516    30.304738      24.971274    
     99300   198.6          319.73071      135286.83     -807625.76     -302.43543      0.36319599     0.056942841    30.354014      24.619409    
     99310   198.62         336.15514      134131.36     -807627.39     -302.88114      0.36320668     0.057025082    30.326093      24.267551    
     99320   198.64         333.56363      135737        -807625.19     -304.29682      0.36321723     0.057289956    30.373672      23.915693    
     99330   198.66         344.72258      133921.32     -807628.72     -301.89201      0.36322763     0.056835575    30.316769      23.563845    
     99340   198.68         346.6524       134645.59     -807628.24     -302.20748      0.36323789     0.056893361    30.277426      23.212003    
     99350   198.7          341.18318      135790.42     -807624.67     -304.63682      0.36324801     0.057349109    30.319356      22.860163    
     99360   198.72         333.63582      134747.38     -807625.09     -302.80162      0.36325798     0.05700206     30.426121      22.50832     
     99370   198.74         343.80008      135156.78     -807627.21     -301.66372      0.36326781     0.056786315    30.434968      22.156481    
     99380   198.76         330.56678      133880.08     -807625.77     -301.05068      0.3632775      0.056669403    30.409662      21.804648    
     99390   198.78         354.02695      136583.99     -807625.26     -304.56731      0.36328704     0.057329862    30.396621      21.452821    
     99400   198.8          332.82704      134820.83     -807624.24     -302.4897       0.36329644     0.056937312    30.422752      21.100997    
     99410   198.82         351.79055      137797.56     -807625.82     -303.34386      0.3633057      0.057096636    30.426735      20.749177    
     99420   198.84         344.72136      134322.54     -807626.99     -301.17825      0.36331481     0.056687593    30.358706      20.397366    
     99430   198.86         348.08675      138775.73     -807622.07     -306.40511      0.36332378     0.057669965    30.334766      20.045561    
     99440   198.88         342.84296      133420.8      -807625.95     -301.93147      0.36333261     0.05682658     30.403218      19.693756    
     99450   198.9          338.0687       137586.48     -807624.29     -302.73732      0.36334129     0.056976889    30.408338      19.341956    
     99460   198.92         347.95345      132986.7      -807628.14     -300.41719      0.36334983     0.056538896    30.417356      18.990159    
     99470   198.94         352.48448      137488.89     -807623.9      -305.17782      0.36335823     0.057433525    30.423127      18.638367    
     99480   198.96         353.37173      132378.62     -807627.4      -302.01522      0.36336648     0.056837044    30.446099      18.286579    
     99490   198.98         344.78504      137541.72     -807624.73     -303.39741      0.3633746      0.057095887    30.384269      17.934798    
     99500   199            344.06477      134149.59     -807626.97     -301.25678      0.36338256     0.056691802    30.331521      17.583025    
     99510   199.02         341.90547      137477.74     -807622.48     -9774.017       0.36339039     0.057477411    30.236997      17.231261    
     99520   199.04         338.80688      134435.5      -807624.32     -9708.0609      0.36339807     0.05708834     30.265938      16.8795      
     99530   199.06         344.54539      135787.78     -807627.39     -9634.6904      0.3634056      0.056655709    30.27797       16.527743    
     99540   199.08         347.32693      134087.94     -807627.78     -9638.4708      0.363413       0.056676786    30.289372      16.17599     
     99550   199.1          340.85748      135096.73     -807624.07     -9735.5814      0.36342025     0.057246681    30.295588      15.82424     
     99560   199.12         345.1794       135504.97     -807624.99     -9728.8987      0.36342736     0.057206266    30.344287      15.472493    
     99570   199.14         350.05208      134858.89     -807628.6      -9640.675       0.36343432     0.056686422    30.367746      15.120749    
     99580   199.16         332.56071      136804.07     -807623.93     -9717.8975      0.36344114     0.057139412    30.3396        14.76901     
     99590   199.18         340.04252      134445.52     -807623.77     -9763.6782      0.36344782     0.057407539    30.323498      14.417277    
     99600   199.2          332.52845      136992.87     -807623.64     -9736.5891      0.36345435     0.057247234    30.380504      14.065546    
     99610   199.22         341.71439      131894.07     -807630.27     -9573.519       0.36346074     0.056287457    30.273918      13.713824    
     99620   199.24         347.76334      135970.11     -807626.73     -9716.2802      0.36346699     0.05712584     30.263558      13.362107    
     99630   199.26         331.26269      133008.84     -807624.99     -9711.2881      0.3634731      0.05709553     30.273303      13.010393    
     99640   199.28         341.1305       137684.91     -807625.85     -9725.0957      0.36347906     0.057175771    30.283772      12.658683    
     99650   199.3          335.2297       131987.75     -807629.68     -9588.4225      0.36348487     0.05637134     30.290147      12.306978    
     99660   199.32         339.05343      138727.24     -807623.68     -9797.864       0.36349055     0.057601769    30.265247      11.955277    
     99670   199.34         332.67818      133469.68     -807624.64     -9753.0627      0.36349608     0.05733751     30.277785      11.603581    
     99680   199.36         332.02135      138780.11     -807624.01     -9766.6727      0.36350147     0.057416671    30.255814      11.25189     
     99690   199.38         335.92419      132032.63     -807630.96     -9572.854       0.36350671     0.05627643     30.264831      10.900202    
     99700   199.4          336.82271      137548.43     -807625.13     -9762.8159      0.36351181     0.057392364    30.247626      10.548519    
     99710   199.42         329.55625      131641.99     -807626.48     -9698.5424      0.36351677     0.057013744    30.329819      10.196838    
     99720   199.44         331.5185       137261.57     -807625.94     -9720.0718      0.36352158     0.05713955     30.311981      9.8451623    
     99730   199.46         345.13886      130942.73     -807632.54     -9577.9398      0.36352625     0.056303302    30.315055      9.4934905    
     99740   199.48         333.1127       137398.16     -807623.44     -9814.9987      0.36353078     0.057696119    30.348481      9.1418221    
     99750   199.5          325.93203      133933.18     -807624.45     -9759.6482      0.36353516     0.057370057    30.391724      8.790157     
     99760   199.52         334.07601      137706.4      -807625.56     -9756.0116      0.3635394      0.057348011    30.37587       8.4384968    
     99770   199.54         330.78305      132808.56     -807629.32     -9624.883       0.3635435      0.05657657     30.381961      8.086841     
     99780   199.56         344.93643      136252.43     -807626.64     -9771.5161      0.36354745     0.057437878    30.308857      7.7351915    
     99790   199.58         326.08781      133448.59     -807625.5      -9728.2459      0.36355126     0.057182932    30.326613      7.3835459    
     99800   199.6          337.55329      134642.82     -807628.95     -9662.7658      0.36355493     0.056797465    30.271678      7.0319058    
     99810   199.62         337.05746      133170.84     -807631.16     -9589.7522      0.36355845     0.056367747    30.264575      6.6802702    
     99820   199.64         339.91371      135459.59     -807625.93     -9768.9335      0.36356183     0.057420426    30.30436       6.3286381    
     99830   199.66         338.63512      135552.1      -807624.99     -9791.1282      0.36356507     0.057550371    30.369994      5.9770091    
     99840   199.68         323.21778      135739.09     -807625.65     -9693.5564      0.36356816     0.056976378    30.315935      5.6253855    
     99850   199.7          345.40912      135119.06     -807628.93     -9677.8571      0.36357111     0.056883639    30.342217      5.2737658    
     99860   199.72         343.4309       134412.89     -807625.51     -9772.9831      0.36357392     0.057442319    30.350655      4.9221505    
     99870   199.74         339.11884      137554.67     -807623.76     -9795.5214      0.36357658     0.05757437     30.312552      4.5705401    
     99880   199.76         337.07474      132777.98     -807629.87     -9580.068       0.3635791      0.056307626    30.24493       4.2189349    
     99890   199.78         336.37178      135886.06     -807627.1      -9648.5905      0.36358148     0.056710002    30.253282      3.8673338    
     99900   199.8          326.66134      133732.33     -807624.23     -9691.0321      0.36358371     0.056959104    30.268088      3.5157368    
     99910   199.82         345.17129      137893.67     -807621.8      -9833.5871      0.3635858      0.05779664     30.238792      3.1641443    
     99920   199.84         342.58189      132037.46     -807628.93     -9585.9468      0.36358775     0.05634084     30.218325      2.8125562    
     99930   199.86         349.35376      138830.98     -807624.2      -9751.1981      0.36358955     0.05731181     30.187668      2.4609724    
     99940   199.88         344.84096      133462.64     -807622.79     -9777.6699      0.36359121     0.057467134    30.163178      2.1093929    
     99950   199.9          358.36589      139030.47     -807622.2      -9841.3646      0.36359273     0.057841251    30.182647      1.7578173    
     99960   199.92         360.2783       131083.02     -807631.29     -9557.8511      0.3635941      0.056174728    30.271844      1.4062454    
     99970   199.94         334.2562       138651.89     -807623.42     -9683.9698      0.36359533     0.056915777    30.228903      1.0546778    
     99980   199.96         348.29339      132289.37     -807626.37     -9658.1033      0.36359641     0.056763582    30.278188      0.70311427   
     99990   199.98         355.93105      137777.59     -807623.37     -9777.3037      0.36359736     0.05746401     30.292268      0.35155499   
    100000   200            349.33367      131878.26     -807630.05     -9539.1012      0.36359816     0.056063902    30.278431      0            
Loop time of 3515.53 on 32 procs for 100000 steps with 1080 atoms

Performance: 4.915 ns/day, 4.883 hours/ns, 28.445 timesteps/s, 30.721 katom-step/s
62.3% CPU use with 32 MPI tasks x 1 OpenMP threads

MPI task timing breakdown:
Section |  min time  |  avg time  |  max time  |%varavg| %total
---------------------------------------------------------------
Pair    | 2574.5     | 2801.3     | 3058.8     | 215.4 | 79.68
Neigh   | 0.0016705  | 0.0017941  | 0.0019916  |   0.2 |  0.00
Comm    | 381.95     | 639.53     | 866.57     | 450.6 | 18.19
Output  | 2.4476     | 2.4574     | 2.4632     |   0.2 |  0.07
Modify  | 65.646     | 66.058     | 66.342     |   2.1 |  1.88
Other   |            | 6.197      |            |       |  0.18

Nlocal:          33.75 ave          39 max          28 min
Histogram: 3 1 5 4 5 2 2 1 1 8
Nghost:        1047.34 ave        1062 max        1025 min
Histogram: 2 1 1 4 2 5 3 6 3 5
Neighs:              0 ave           0 max           0 min
Histogram: 32 0 0 0 0 0 0 0 0 0
FullNghs:      5335.62 ave        6191 max        4364 min
Histogram: 2 1 5 5 5 2 2 1 1 8

Total # of neighbors = 170740
Ave neighs/atom = 158.09259
Neighbor list builds = 4
Dangerous builds = 0

Total wall time: 1:02:06
