
units		metal
atom_style	atomic

read_data ${STRUCTURE}.data
read_data BaTiO3-sc333.data
Reading data file ...
  orthogonal box = (0 0 0) to (11.898253 11.898253 12.912076)
  2 by 4 by 4 MPI processor grid
  reading atoms ...
  135 atoms
  read_data CPU = 0.004 seconds
replicate $L $L $L
replicate 2 $L $L
replicate 2 2 $L
replicate 2 2 2
Replication is creating a 2x2x2 = 8 times larger system...
  orthogonal box = (0 0 0) to (23.796507 23.796507 25.824152)
  2 by 4 by 4 MPI processor grid
  1080 atoms
  replicate CPU = 0.003 seconds

pair_style allegro
pair_coeff	* * ${MODEL}.pth Ba Ti O
pair_coeff	* * BaTiO3-E0.pth Ba Ti O
mass 1 137.3
mass 2 47.9
mass 3 15.9994

timestep 0.002
compute polarization all allegro polarization 3
compute allegro will evaluate the quantity polarization of length 3 (src/compute_allegro.cpp:53)
compute polarizability all allegro polarizability 9
compute allegro will evaluate the quantity polarizability of length 9 (src/compute_allegro.cpp:53)

thermo_style custom pe fmax fnorm spcpu cpuremain

variable efield equal 1e-2*36.36
fix born all addbornforce 0.0 0.0 ${efield}
fix born all addbornforce 0.0 0.0 0.3636

thermo 10
min_style fire
#minimize 0.0 1e-6 100 100
velocity all create ${TEMP} ${SEED} dist gaussian rot yes mom yes
velocity all create 350 ${SEED} dist gaussian rot yes mom yes
velocity all create 350 7581 dist gaussian rot yes mom yes
fix nvt all nvt temp ${TEMP} ${TEMP} $(100*dt)
fix nvt all nvt temp 350 ${TEMP} $(100*dt)
fix nvt all nvt temp 350 350 $(100*dt)
fix nvt all nvt temp 350 350 0.2000000000000000111
run 5000
Neighbor list info ...
  update: every = 1 steps, delay = 0 steps, check = yes
  max neighbors/atom: 2000, page size: 100000
  master list distance cutoff = 8
  ghost atom cutoff = 8
  binsize = 8, bins = 3 3 4
  1 neighbor lists, perpetual/occasional/extra = 1 0 0
  (1) pair allegro/kk, perpetual
      attributes: full, newton on, kokkos_device
      pair build: full/bin/kk/device
      stencil: full/bin/3d
      bin: kk/device
Per MPI rank memory allocation (min/avg/max) = 3.516 | 3.516 | 3.516 Mbytes
    PotEng          Fmax          Fnorm          S/CPU         CPULeft    
-807708.29      1.5960782      37.043361      0              0            
-807642.86      3.5290499      46.354347      2.6640808      1873.0676    
-807632.45      2.7100762      36.743127      25.964885      1030.5556    
-807603.99      2.9715075      38.990676      25.972798      749.44214    
-807602.67      4.0976596      50.711453      25.906794      608.81454    
-807564.46      4.0798357      41.705503      25.881348      524.32117    
-807598.88      3.0720039      40.18349       25.966081      467.75964    
-807642.44      3.6272656      35.731663      25.970984      427.24343    
-807681.92      2.847834       35.478783      25.933644      396.79405    
-807663.18      3.8883007      36.579352      25.944508      373.01673    
-807651.03      3.6240548      35.276328      25.981804      353.89067    
-807656.61      3.3019858      29.515573      25.939343      338.20011    
-807625.65      3.6072378      32.262442      25.896257      325.08647    
-807581.76      3.3639972      41.096921      25.954319      313.89856    
-807567.04      3.2694707      38.750065      25.985218      304.23794    
-807627.6       3.9914193      35.039796      25.956403      295.82793    
-807650.75      3.4939656      31.898783      25.944443      288.42638    
-807661.44      3.2047847      35.09984       25.953016      281.84664    
-807642.68      4.6143333      45.280287      25.984261      275.94276    
-807676.02      2.7921351      37.342975      25.905965      270.64928    
-807638.53      4.6386793      40.352921      25.868868      265.85983    
-807614.66      3.5304566      39.262445      25.946398      261.46336    
-807559.94      5.6518023      47.466033      25.977939      257.42135    
-807601.69      4.7244938      50.532065      25.943686      253.7079     
-807607.63      5.5257344      41.43644       25.875179      250.29202    
-807638.62      3.8113659      36.642415      25.95064       247.09715    
-807638.41      5.6851781      46.840705      25.955655      244.11703    
-807677.97      3.1316036      38.75824       25.904423      241.34247    
-807658.42      4.47626        37.440751      25.82683       238.75807    
-807635.57      3.1308369      33.687118      25.921742      236.30216    
-807605.31      4.4852865      36.000056      25.955735      233.97637    
-807603.01      3.8441061      42.784235      25.965417      231.77359    
-807594.09      3.1420041      38.526113      25.872434      229.70466    
-807604.36      4.7673141      36.268901      25.934771      227.72454    
-807637.88      3.5235916      33.028123      25.95733       225.83363    
-807667.8       5.6649846      35.058831      25.922488      224.03563    
-807671.99      3.6470811      34.704617      25.875707      222.32508    
-807639.99      5.9204264      41.684165      25.961382      220.67015    
-807643.56      3.5103366      33.727301      25.95509       219.08318    
-807619.29      5.5793582      37.049227      25.955283      217.5578     
-807599.41      4.0705715      44.429771      25.932991      216.09323    
-807568.21      4.6222007      43.622285      25.928469      214.68205    
-807617.84      3.7608719      37.653934      25.913452      213.32214    
-807645.09      3.5026642      36.561173      25.908262      212.00835    
-807667.03      2.9710751      36.53192       25.923643      210.73436    
-807639.05      5.0569423      45.963951      25.950146      209.49587    
-807660.55      3.4028633      36.876552      25.912585      208.29998    
-807641.42      4.8848824      38.027909      25.908595      207.13914    
-807621.13      3.4643159      39.342602      25.893306      206.01273    
-807564.47      5.1656319      44.499533      25.978354      204.90488    
-807595.11      4.0296773      44.749669      25.932601      203.83208    
-807618.15      4.216287       38.081311      25.907418      202.78951    
-807648.67      3.252267       35.110334      25.921282      201.77042    
-807637.12      4.3923602      42.674484      25.952014      200.77138    
-807664.55      3.1082029      36.762664      25.958681      199.79425    
-807660.86      3.9327862      36.483602      25.927624      198.84238    
-807636.92      3.8781825      34.917586      25.962536      197.90662    
-807597.39      3.2131524      38.126045      25.956078      196.99092    
-807591.95      4.4082671      39.877987      25.981116      196.09068    
-807600.72      4.3802516      42.136457      25.923042      195.21435    
-807614.35      3.7261863      35.378399      25.831923      194.36436    
-807631.92      3.8348971      35.645443      26.018333      193.50958    
-807655.8       4.2856571      36.945452      25.949765      192.67716    
-807669.69      3.4490433      37.214726      25.894226      191.86466    
-807641.5       4.1773775      40.617555      25.874224      191.06751    
-807629.27      3.8937531      36.722762      25.942392      190.2762     
-807607.96      3.974418       39.163959      25.919465      189.49944    
-807602.14      4.5853304      46.07685       25.905922      188.73564    
-807578.09      4.094001       42.568249      25.872896      187.98609    
-807609.8       3.6224504      38.80209       25.850432      187.24916    
-807637.15      4.8250626      39.906243      25.927214      186.5152     
-807666.71      3.3788073      37.919877      25.954275      185.78862    
-807644.16      6.0690774      43.733543      25.96535       185.07054    
-807645.93      3.4719221      37.486853      25.960958      184.36196    
-807638.16      4.804744       36.682394      25.967253      183.66158    
-807621.66      4.0583924      38.982011      25.941095      182.97182    
-807581.54      4.0771152      40.125873      25.958764      182.28859    
-807584.68      3.1068908      40.603769      25.998986      181.60984    
-807622.07      3.7331157      34.113211      25.969739      180.94096    
-807650.96      2.9142707      33.39623       25.987118      180.2779     
-807648.73      3.7362763      36.312539      25.967224      179.62335    
-807647.72      3.5413859      38.133112      25.832565      178.98583    
-807660.36      2.6446433      34.539649      25.930341      178.34698    
-807638.38      3.0444194      34.86177       25.900865      177.71644    
-807607.78      3.2900446      37.435541      25.925881      177.08987    
-807579.73      3.5338107      41.870922      25.947545      176.46739    
-807603.7       4.1580797      42.837825      25.882465      175.8551     
-807619.34      3.5496231      36.962058      25.903419      175.24651    
-807635.87      3.7129755      36.502159      25.973569      174.6381     
-807640.8       5.1151022      41.173548      25.984868      174.03394    
-807665.27      2.9168004      37.691665      25.857089      173.44331    
-807648.56      3.6929611      38.23717       25.857117      172.85717    
-807629.21      4.9480121      36.128313      25.889869      172.27319    
-807603.05      3.9620113      38.375642      25.902191      171.69266    
-807605.74      3.9363614      42.895233      25.86832       171.11844    
-807593.19      3.8994339      40.330283      25.855987      170.54897    
-807612.05      3.1444254      37.936591      25.975827      169.97579    
-807631.21      4.1148513      38.370186      25.945274      169.40837    
-807663.14      3.5760066      36.545183      25.946491      168.8446     
-807655.07      3.5691371      37.538931      25.919479      168.28606    
-807642.99      3.8067334      35.865152      25.906151      167.73176    
-807630.44      3.7709408      34.84722       25.95293       167.17805    
-807621.65      3.3431228      36.50138       25.95388       166.62759    
-807594.2       3.2784697      39.216388      25.854591      166.08603    
-807586.52      3.8796045      38.669762      25.910197      165.54429    
-807616.72      3.1575434      35.241098      26.018015      164.99951    
-807648.47      3.744542       34.412738      25.986811      164.45946    
-807654.65      4.0831578      35.541961      25.928571      163.92549    
-807642.95      4.5709102      38.799341      25.901132      163.39575    
-807649         2.864699       35.109843      25.854535      162.87115    
-807636.85      3.9165703      35.052099      25.844614      162.34957    
-807612.53      3.3522347      38.035777      20.45273       162.1879     
-807579.01      2.9638669      39.932797      18.80056       162.16923    
-807600.31      3.3095828      40.097567      18.04444       162.21781    
-807621.42      3.0432536      36.217898      25.9184        161.68575    
-807642.69      2.7363841      35.187883      25.846694      161.15982    
-807637.57      4.5224848      40.345307      23.220009      160.78116    
-807656.05      3.3301373      36.92316       25.669067      160.26711    
-807646.11      3.8259938      37.242025      7.3319971      162.9093     
-807630.58      2.7916557      35.51953       10.724235      164.1029     
-807595.13      4.3789912      39.490683      25.890739      163.53133    
-807597.78      3.3554728      41.011332      25.905186      162.96216    
-807600.15      3.5766931      38.779335      25.902557      162.39611    
-807621.93      3.3323177      35.266181      25.935893      161.83147    
-807629.68      3.8550175      36.403871      22.980881      161.42004    
-807653.73      2.8218994      35.3796        17.814372      161.38684    
-807652.79      3.3173973      36.106942      18.11592       161.31752    
-807642.8       3.4394096      34.757769      25.795729      160.75794    
-807622.31      3.3919661      35.093443      25.898476      160.19657    
-807613.2       3.3454318      35.486577      25.961979      159.6352     
-807601.02      3.7111324      39.29146       25.907694      159.07884    
-807598.88      4.1173567      37.368247      21.270251      158.76212    
-807615.01      2.977349       35.537516      25.907361      158.20848    
-807641.89      3.9266203      34.143073      19.155021      158.03282    
-807655.67      3.3833613      35.379926      25.854414      157.48251    
-807643.09      3.6209735      37.56639       25.833987      156.93545    
-807639.9       3.0586479      35.063746      25.917044      156.38742    
-807629.95      3.2085371      34.673933      25.910117      155.84203    
-807614.92      3.1687259      38.009605      25.913489      155.29882    
-807589.51      3.5494646      38.581885      25.944672      154.75667    
-807599.2       3.1425935      38.126745      25.902065      154.21839    
-807624.31      3.6761711      34.658691      25.868049      153.68356    
-807647.85      3.4183515      34.137149      25.887276      153.1501     
-807642.68      3.7029365      36.564084      25.930581      152.61708    
-807648.12      2.8463098      35.082132      25.928336      152.08619    
-807643.32      3.2064992      34.626346      25.909606      151.55799    
-807634.11      2.6305742      34.547827      25.899216      151.03211    
-807600.75      3.0933629      36.583558      25.935311      150.50684    
-807593.98      3.12175        40.135443      25.919629      149.98402    
-807607.63      3.3948153      37.580251      25.921835      149.46296    
-807630.62      3.1574966      35.37792       25.852752      148.9461     
-807634.9       3.7390391      36.125664      25.937622      148.42805    
-807646.13      3.113852       36.19026       25.884416      147.91355    
-807652.36      3.2401954      35.349521      25.902533      147.40011    
-807642.95      3.4570971      34.652298      25.918288      146.8878     
-807619.68      3.0678701      34.878094      25.93253       146.37665    
-807605.04      3.5038145      35.921962      25.911013      145.86782    
-807602.51      3.8964977      38.409153      25.856678      145.36232    
-807608.65      4.1065286      36.973574      25.882371      144.8575     
-807620.7       3.3071563      35.538943      25.976647      144.35116    
-807636.92      4.643087       35.920881      26.023978      143.84485    
-807653.97      2.9569694      35.982431      25.905228      143.34376    
-807647.39      3.5061298      36.493352      25.839525      142.84614    
-807633.93      3.0450253      36.419475      25.869521      142.34895    
-807620.73      3.0464477      35.224497      25.877829      141.85286    
-807613         4.0530828      37.514102      25.920789      141.3568     
-807598.65      3.0315758      37.547749      25.860195      140.86388    
-807603.73      3.3630279      37.284604      25.899422      140.37106    
-807623.94      3.3812233      34.586089      25.928472      139.87867    
-807647.09      2.8301037      35.535252      25.865932      139.38936    
-807644.95      3.5028115      37.222499      25.85962       138.90144    
-807644.39      3.5342947      35.818515      25.857528      138.41477    
-807633.15      3.6732186      36.392192      25.910671      137.92775    
-807628.64      3.2435896      36.212408      25.87804       137.44281    
-807602.95      3.5300285      37.769611      25.905715      136.95823    
-807594.46      3.0545352      39.086469      25.877684      136.47556    
-807606.27      3.4104896      36.667204      25.918836      135.99285    
-807632.84      3.2229095      35.259522      25.86838       135.51261    
-807640.8       3.101018       35.732766      25.923647      135.03193    
-807642.04      3.9478742      36.259288      25.859602      134.55403    
-807643.71      3.6904746      36.260404      25.897342      134.07613    
-807640.38      3.4593814      35.019231      25.86753       133.60004    
-807617.71      3.0660984      36.228979      25.874271      133.12475    
-807596.19      3.3886763      37.947027      25.894851      132.6499     
-807599.05      3.9915084      38.905163      25.964291      132.17424    
-807613.15      3.7490558      37.23484       25.966979      131.69949    
-807627.29      3.5934209      36.336506      25.926285      131.22673    
-807633.2       4.5177417      37.091755      25.888806      130.75583    
-807647.65      2.601246       35.554093      25.964215      130.28397    
-807643.25      2.830609       36.397019      25.920934      129.81408    
-807633.81      3.2622812      34.921495      25.920108      129.3451     
-807609.75      3.8555805      37.877264      25.950649      128.87626    
-807608.05      3.4412204      38.566472      25.91871       128.40905    
-807600.39      3.3795317      39.778465      25.925684      127.94252    
-807612.4       3.6160427      38.186893      25.9046        127.47731    
-807620.81      4.305202       37.768831      25.919808      127.01257    
-807641.87      3.0153679      37.01211       25.859775      126.55001    
-807644.55      2.901715       37.400134      25.860162      126.08822    
-807639.34      4.1235377      37.067889      25.851235      125.62739    
-807628.5       3.489379       36.657941      25.924844      125.16565    
-807622.49      3.6058858      36.53356       25.940992      124.7043     
-807606.44      3.2826917      38.660306      25.913939      124.24431    
-807601.86      3.2284022      38.754811      25.923811      123.78483    
-807611.78      3.3345954      36.639287      25.943478      123.32565    
-807631.88      3.676267       35.629509      25.997041      122.86605    
-807641.56      2.7716526      36.153109      25.947606      122.40823    
-807641.51      3.6305771      36.924392      25.913808      121.95183    
-807636.84      3.154454       36.672798      25.924463      121.49588    
-807635.55      3.2263046      34.795989      25.932539      121.04044    
-807621.08      3.4325937      36.558037      25.922121      120.58589    
-807601.89      3.5127807      37.552655      25.9239        120.13196    
-807600.62      3.8201422      38.972412      25.922731      119.67869    
-807617.72      3.4806487      36.955393      25.919672      119.22612    
-807632.16      4.3415186      36.225097      25.939107      118.7738     
-807637.33      3.7820506      36.90662       25.95899       118.3217     
-807643.92      2.999389       35.254004      25.957447      117.87025    
-807642.57      3.3825481      35.625521      25.9043        117.42045    
-807634.58      2.7396846      35.24267       25.86062       116.9721     
-807613.61      3.7579647      36.342091      25.897305      116.5236     
-807604.15      3.256654       38.201176      25.814271      116.07726    
-807604.33      3.4133325      38.588185      25.90662       115.62971    
-807620.37      3.3466345      36.860713      25.930078      115.18226    
-807627.67      3.263308       36.569597      25.936885      114.73525    
-807641.63      2.9221268      35.812451      25.956939      114.28842    
-807645.39      3.2980598      36.337406      25.949479      113.84228    
-807643.91      3.4506233      35.241471      25.923522      113.39715    
-807624.82      3.3371359      35.311348      25.932607      112.95238    
-807615.45      3.4785857      35.86632       25.956315      112.5077     
-807608.36      2.8888795      36.788617      25.954418      112.06358    
-807610.02      3.9817168      36.384561      25.949715      111.62006    
-807616.36      3.1968099      36.012061      25.982593      111.17647    
-807632.07      3.6520436      36.0137        25.92278       110.73443    
-807645.07      2.795342       35.489622      25.981489      110.29186    
-807642.97      3.0617123      36.611982      25.92393       109.85077    
-807636.29      3.5003053      36.599507      25.913252      109.41033    
-807627.17      4.4896128      35.827097      25.862098      108.97121    
-807617.78      3.8389536      36.152843      25.924911      108.53149    
-807605.37      3.8187157      37.784443      25.929986      108.09215    
-807608.57      3.2230693      36.438514      25.916272      107.65348    
-807618.55      3.2590623      36.482866      25.941327      107.21484    
-807637.19      2.9145221      34.847078      25.91079       106.77714    
-807641.19      3.456167       35.345733      25.930348      106.33956    
-807641.3       2.7687525      35.817924      25.929719      105.90241    
-807637.95      4.284934       34.99181       25.916601      105.4659     
-807630.48      3.2322099      36.012239      25.926479      105.02964    
-807610.81      3.622384       36.641827      25.893991      104.59431    
-807604.66      3.2073642      38.513965      25.932156      104.15878    
-807606.99      4.1237563      38.679304      25.972794      103.72305    
-807624.24      3.2542548      36.777484      25.978373      103.28763    
-807632.94      5.295892       37.45887       25.938714      102.85322    
-807639.65      3.4768909      36.774567      25.897246      102.41981    
-807642.87      3.9951691      36.993906      25.944406      101.98609    
-807639.33      3.6430025      35.882834      25.90031       101.55339    
-807622.83      3.5611825      36.051576      25.888326      101.12123    
-807606.36      3.271914       38.108858      25.946301      100.68861    
-807604.53      3.9645637      38.27663       25.950909      100.25628    
-807609.79      3.7296077      38.643842      25.748947      99.827206    
-807621.74      3.8264465      36.80001       25.905849      99.396223    
-807632.4       3.8992571      37.379584      25.922686      98.965353    
-807642.3       4.2271764      37.544166      25.92317       98.534824    
-807643.43      3.0571021      36.805759      25.891734      98.105073    
-807634.07      3.6491297      37.195547      25.829976      97.6765      
-807618.95      3.3555216      37.168306      25.815273      97.248444    
-807611.34      3.2080712      38.391007      25.901284      96.819539    
-807604.17      3.5045344      39.078302      25.918444      96.390729    
-807609.01      3.5685411      37.181519      25.841099      95.963268    
-807621.51      3.810157       36.197308      25.825224      95.53632     
-807638.49      3.7274025      36.092101      25.8564        95.109262    
-807641.77      3.5247268      37.826753      25.862056      94.682433    
-807639.39      3.3876648      37.132864      25.9089        94.255301    
-807629.58      3.7746508      38.283041      25.924662      93.828274    
-807622.49      2.9421696      37.700759      25.957053      93.401146    
-807610.16      3.6370391      38.879864      25.926995      92.974699    
-807602.01      3.9063041      39.77013       25.985172      92.547834    
-807612.27      3.9416603      37.800489      25.96313       92.121544    
-807629.28      4.1002803      36.751268      25.893916      91.696396    
-807638.06      4.1678564      36.748714      25.906725      91.271375    
-807640.58      3.3103544      36.133752      25.910818      90.846587    
-807637.94      3.867202       36.588876      25.959204      90.421504    
-807634.42      3.304865       35.898397      25.960051      89.996697    
-807620.98      3.6299085      36.44324       25.907967      89.572781    
-807608.91      3.365633       36.262079      25.929446      89.148885    
-807606.51      3.8640227      37.698982      25.894234      88.725667    
-807619.55      3.6439195      36.619175      25.888902      88.302771    
-807629.81      3.9301829      36.7548        25.926516      87.879707    
-807635.25      3.729334       36.538975      25.927817      87.45689     
-807640.75      3.4389533      37.149166      25.944114      87.034152    
-807641.26      3.6500464      36.561864      25.904269      86.612114    
-807630.34      3.5549727      36.1578        25.876643      86.190629    
-807617.87      4.4641143      36.819823      25.919345      85.768921    
-807610.7       3.6138696      37.669173      25.917032      85.347487    
-807610.28      5.8089508      38.017928      25.867901      84.926823    
-807618.87      3.7591844      37.207557      25.852917      84.506552    
-807627.77      4.5970236      36.596113      25.874749      84.086279    
-807639.1       3.2110808      35.983601      25.891462      83.666061    
-807642.87      3.6975638      36.322116      25.841024      83.246598    
-807637.88      3.4729942      36.595984      25.886042      82.82689     
-807626.75      3.3337903      36.414585      25.932278      82.406936    
-807618.11      3.6251258      36.779087      25.955571      81.986978    
-807610.96      3.2435471      37.866682      25.917633      81.567631    
-807610.52      3.0673211      38.150134      25.914025      81.148544    
-807616.24      3.7595541      37.876148      25.925141      80.729567    
-807631.2       2.8101194      36.53571       25.908999      80.310969    
-807640.54      3.9467397      36.366267      25.921466      79.892465    
-807638.64      4.5817324      38.032926      25.930113      79.474093    
-807633.9       3.762996       37.634916      25.933523      79.055904    
-807627.01      3.6234881      36.890386      25.948812      78.637783    
-807617.55      4.0054355      38.000621      25.914091      78.220201    
-807608.46      3.6347949      38.670237      25.925057      77.802722    
-807607.59      2.809237       38.296406      25.89289       77.385745    
-807620.95      4.1402919      37.11664       25.863934      76.969232    
-807634.14      3.2054615      35.770745      25.92308       76.552375    
-807636.13      4.0078238      36.841353      25.922405      76.135723    
-807636.07      3.4154216      36.594799      25.875596      75.719686    
-807635.51      3.6273002      36.24501       25.879459      75.303802    
-807626.77      3.065423       36.829121      25.890334      74.888011    
-807614.56      3.5218627      37.564001      25.885288      74.47245     
-807607.76      3.0126943      38.581205      25.922325      74.056755    
-807613.7       3.4454555      37.597762      25.905136      73.641395    
-807623.18      3.2382723      36.766114      25.871173      73.226506    
-807629.7       3.4226267      36.530241      25.907897      72.811487    
-807635.69      3.1203417      36.782949      25.929531      72.396468    
-807637.74      3.8947235      37.164317      25.915611      71.981747    
-807634.49      3.3177799      37.022397      25.885452      71.56745     
-807623.05      4.7941664      37.704738      25.908028      71.153144    
-807613.34      4.0953597      38.026741      25.908745      70.739006    
-807610.9       4.3264455      38.378054      25.901031      70.325102    
-807614.97      3.7140736      37.25662       25.911535      69.911286    
-807620.26      5.8334435      37.95626       25.848148      69.498136    
-807630.09      3.4252884      37.395243      25.861122      69.085044    
-807638.52      3.7010051      37.467499      25.865835      68.672077    
-807640.04      3.9307985      36.469108      25.873777      68.259208    
-807630.76      3.830978       36.489639      25.947194      67.845944    
-807624.52      3.6754921      36.285461      25.908455      67.433137    
-807614.64      3.4417368      37.83327       25.912384      67.020462    
-807613.31      3.6362762      36.806545      25.933814      66.607789    
-807613.74      3.1248744      36.294083      25.917206      66.195398    
-807624.24      2.9694211      35.021746      25.937868      65.783016    
-807634.55      3.2891804      35.596709      25.898244      65.371076    
-807640.15      3.6422455      36.27593       25.86455       64.959526    
-807635.47      3.273051       37.046412      25.888345      64.547956    
-807631.48      3.5423647      36.568085      25.887362      64.136542    
-807626.46      3.483981       36.53699       25.895859      63.725215    
-807616.97      3.6150618      36.954266      25.910827      63.313933    
-807609.93      3.1364194      37.503039      25.966981      62.902421    
-807616.72      3.8219436      36.514568      25.921837      62.491362    
-807627.15      3.5031346      35.488233      25.915226      62.080494    
-807634.63      3.656881       35.014056      25.840576      61.670261    
-807637.31      3.4601752      35.764402      25.869144      61.259975    
-807637.28      3.1206791      35.775423      25.875025      60.849786    
-807633.23      3.0632551      36.143637      25.876877      60.439722    
-807624.94      2.9850742      36.241872      25.927272      60.029473    
-807614.35      2.8244567      37.234663      26.010899      59.618843    
-807611.87      3.3316067      37.473475      25.943922      59.208774    
-807620.08      3.6395967      36.289871      25.884834      58.799207    
-807626.83      4.001475       35.491704      25.892048      58.389727    
-807632.11      3.9267605      36.291251      25.895176      57.980359    
-807638.5       3.6293938      35.829176      25.908366      57.571042    
-807639.9       3.5214756      35.091362      25.862813      57.162125    
-807630.3       4.5492359      35.977582      25.892113      56.75316     
-807620.11      3.6631178      36.039051      25.885354      56.344361    
-807613.85      4.0864572      36.618742      25.91419       55.935521    
-807615.29      3.8033187      37.487975      25.89349       55.526925    
-807616.37      4.2040349      37.005279      25.913036      55.118343    
-807624.47      2.8412375      35.919672      25.909017      54.709907    
-807633.87      2.7529328      35.525751      25.86491       54.301839    
-807638.02      3.0434091      36.145182      25.865046      53.893886    
-807634.28      3.6189661      35.597437      25.914584      53.485782    
-807627.17      3.202031       35.911859      25.918111      53.07778     
-807620.26      3.1892096      36.00648       25.945887      52.669752    
-807616.88      3.3062987      36.588878      25.922423      52.261968    
-807611.18      4.7203068      37.419219      25.927235      51.854278    
-807617.14      3.2636781      36.473358      25.958682      51.446546    
-807625.46      4.9174295      36.882862      25.919556      51.039132    
-807636.13      3.4717837      36.123824      25.905056      50.631907    
-807633.03      3.9704812      36.918684      25.911587      50.224762    
-807633.98      3.1721285      35.7838        25.925211      49.817663    
-807627.22      3.9017577      37.434843      25.898576      49.410807    
-807621.98      2.9270503      36.852893      25.931001      49.003905    
-807612.8       3.7870453      37.838791      25.86963       48.597407    
-807614.99      3.2782439      36.864533      25.909768      48.190825    
-807619.18      3.8600641      37.042099      25.925315      47.784279    
-807630.89      3.3232234      35.506513      25.911254      47.377907    
-807633.66      4.8759406      36.850145      25.865985      46.971848    
-807633.29      3.8638809      36.781035      25.811825      46.566135    
-807632.98      5.1687411      37.158682      25.839555      46.160393    
-807628.91      3.7402881      36.468533      25.924108      45.754375    
-807618.99      4.9220329      36.515679      25.934669      45.348416    
-807610.66      3.1327483      37.93939       25.909299      44.942672    
-807616.53      5.1058634      37.496238      25.890807      44.537107    
-807621.84      3.2915131      36.723228      25.889178      44.131648    
-807630.92      3.982109       35.307787      25.862042      43.726401    
-807631.97      3.4383075      35.561258      25.860067      43.321257    
-807637.95      3.0456626      34.901369      25.9218        42.915956    
-807634.49      2.9155948      35.35249       25.938151      42.510688    
-807628.01      3.7388646      35.655544      25.950091      42.105473    
-807616.45      3.5000988      36.476046      25.938564      41.700404    
-807612.65      3.5252674      38.036217      25.958136      41.295357    
-807618.39      3.3085771      37.063496      25.926076      40.890533    
-807621.63      3.9036944      37.469127      25.945267      40.485731    
-807627.8       2.7737098      36.620735      25.916789      40.081133    
-807635.51      3.548665       37.134977      25.895392      39.676707    
-807637.58      3.0224054      36.16902       25.877766      39.272435    
-807630.36      3.3582366      36.519266      25.868346      38.868287    
-807623.63      3.5533004      35.948006      25.901224      38.464108    
-807617.89      3.2436703      36.773899      25.917769      38.059961    
-807616.89      3.4681843      37.093144      25.932683      37.655853    
-807615.86      3.5252584      37.253421      25.922152      37.251872    
-807620.09      2.9952108      36.114564      25.933199      36.847942    
-807630.33      3.1085936      35.865576      25.847304      36.444388    
-807636.8       3.1478986      35.543042      25.817029      36.041014    
-807634.35      3.3011914      35.83713       25.831826      35.637671    
-807629         4.0131837      36.186556      25.86129       35.234312    
-807628.19      3.8941669      35.775828      25.882533      34.830966    
-807622.47      3.6070387      35.992935      25.882233      34.427704    
-807614.92      5.0737449      37.092025      25.910336      34.024438    
-807614.73      3.3024038      36.959174      25.927639      33.621202    
-807626.06      3.1134414      35.591108      25.910823      33.218101    
-807631.46      3.0415306      36.396797      25.95098       32.814965    
-807631.52      3.3120168      37.151074      25.939467      32.411946    
-807631.21      3.721445       37.427718      25.945746      32.008993    
-807631.23      3.4520734      37.140132      25.938179      31.606145    
-807625.35      3.960302       37.318808      25.902081      31.203478    
-807616.49      4.2585511      37.489906      25.941831      30.800782    
-807613.02      3.4332473      37.909013      25.939335      30.398173    
-807620.64      3.3457658      37.552319      25.916784      29.995705    
-807625.52      3.7931419      36.952936      25.850178      29.593487    
-807629.74      3.3654567      35.658437      25.918356      29.191167    
-807631.01      3.2314769      36.718459      25.852017      28.78909     
-807635.73      2.7332266      35.603045      25.809532      28.387191    
-807630.62      3.7612202      36.655474      25.795471      27.985392    
-807621.37      3.1153753      36.441497      25.791953      27.583668    
-807615.92      4.1213479      36.904676      25.84952       27.181873    
-807618.27      4.0672996      36.915446      25.807471      26.780244    
-807621.09      3.6086693      36.760554      25.84185       26.378602    
-807622.34      4.4138032      37.2624        25.881373      25.976939    
-807628.52      3.2368427      36.502049      25.901833      25.575302    
-807633.94      3.8715803      36.574427      25.863579      25.173818    
-807632.55      3.2851622      37.14789       25.868504      24.772391    
-807623.94      3.0464191      37.614845      25.912174      24.370942    
-807622.3       3.7157145      38.122347      25.895799      23.969597    
-807617.76      3.8417261      38.29214       25.88439       23.568343    
-807617.14      3.7233329      37.859294      25.857816      23.167208    
-807614.46      4.9291348      39.168743      25.86493       22.766125    
-807625.49      3.2375598      37.036017      25.837621      22.365159    
-807629.47      3.181825       37.594731      25.91708       21.964109    
-807632.08      3.2153638      37.833989      25.895958      21.563165    
-807625.75      5.2529174      39.03543       25.855864      21.162358    
-807627.74      3.6057116      36.752192      25.843329      20.761635    
-807621.95      3.7822884      37.697702      25.861202      20.360944    
-807619.1       3.3739496      37.39537       25.868691      19.960302    
-807613.44      3.2061212      38.36598       25.913093      19.559651    
-807620.32      3.4720713      36.932985      25.895378      19.159093    
-807624.74      2.9541772      37.262843      25.882135      18.75862     
-807631.22      3.6129643      37.509847      25.86187       18.358239    
-807630.11      3.2730271      38.157104      25.869079      17.957907    
-807631.07      3.5935609      37.713688      25.845671      17.55767     
-807629.25      2.9026884      36.742539      25.801472      17.157553    
-807621.35      3.4979665      37.510883      25.841701      16.757436    
-807616.43      3.0285864      36.848656      25.843595      16.357374    
-807617.78      3.6489011      36.406208      25.873333      15.95733     
-807623.55      3.7110361      36.23347       25.871538      15.557347    
-807625.92      3.7478929      36.849079      25.86886       15.157426    
-807632.07      2.9661632      35.920936      25.89343       14.757533    
-807633.53      3.8634962      37.257765      25.903773      14.357687    
-807634.25      2.8310379      36.253542      25.889768      13.957916    
-807625.98      4.1086025      37.028778      25.860767      13.558234    
-807621.77      3.199421       37.162858      25.89719       13.15857     
-807616         3.9004494      37.415504      25.941704      12.758919    
-807619.05      3.8735104      37.083042      25.919149      12.35935     
-807622.46      3.9757607      37.33961       25.914828      11.959844    
-807627.55      3.9142076      37.438373      25.899158      11.56041     
-807631.41      4.1806827      38.150644      25.882912      11.161046    
-807635.58      3.8702841      37.380955      25.84067       10.761774    
-807629.99      4.2477662      38.380463      25.805559      10.362583    
-807624.79      3.6284051      37.416999      25.896675      9.9633685    
-807618.97      4.1320909      38.172057      25.887699      9.5642161    
-807617.81      3.8550405      37.963622      25.876265      9.1651258    
-807618.93      3.2777136      36.951759      25.889061      8.7660796    
-807622.55      4.7039793      36.716575      25.913449      8.3670709    
-807628.97      3.2648729      36.217167      25.89927       7.9681256    
-807634.07      3.4608691      35.959769      25.917131      7.5692232    
-807631.87      3.3977159      36.885097      25.86929       7.1704015    
-807630.29      3.3229403      36.873636      25.851765      6.7716399    
-807625.99      3.6780385      37.101633      25.865789      6.3729207    
-807619.89      3.6013383      37.670074      25.888242      5.974241     
-807617.36      3.3851923      37.246248      25.888645      5.5756122    
-807618.73      3.7993799      37.134123      25.943321      5.1770125    
-807624.54      3.361606       37.482985      25.941835      4.7784671    
-807627.87      3.8618726      37.495472      25.879665      4.379996     
-807633.19      4.0341782      36.578112      25.820935      3.9815922    
-807631.18      3.5428239      37.360331      25.797585      3.58324      
-807629.5       3.7877732      37.578612      25.788098      3.1849337    
-807622.24      3.7184424      37.652699      25.814017      2.7866647    
-807619.83      3.4341816      38.366127      25.825201      2.3884376    
-807617.06      3.2182488      37.890415      25.862477      1.9902494    
-807616.82      3.5549696      38.440483      25.911897      1.5921017    
-807623.23      3.3929676      37.287916      25.917047      1.1940028    
-807629.91      3.460173       37.302527      25.910579      0.79595342   
-807631.05      3.0513023      36.965767      25.873487      0.3979537    
-807630.15      3.876582       37.696681      25.858796      0            
Loop time of 198.967 on 32 procs for 5000 steps with 1080 atoms

Performance: 4.342 ns/day, 5.527 hours/ns, 25.130 timesteps/s, 27.140 katom-step/s
67.4% CPU use with 32 MPI tasks x 1 OpenMP threads

MPI task timing breakdown:
Section |  min time  |  avg time  |  max time  |%varavg| %total
---------------------------------------------------------------
Pair    | 101.43     | 144.12     | 192.84     | 314.2 | 72.43
Neigh   | 0          | 0          | 0          |   0.0 |  0.00
Comm    | 3.5882     | 52.281     | 94.988     | 521.6 | 26.28
Output  | 0.034322   | 0.035083   | 0.036541   |   0.2 |  0.02
Modify  | 2.1667     | 2.1996     | 2.2328     |   1.4 |  1.11
Other   |            | 0.3338     |            |       |  0.17

Nlocal:          33.75 ave          48 max          21 min
Histogram: 8 8 0 0 0 0 0 8 0 8
Nghost:        1106.25 ave        1119 max        1092 min
Histogram: 8 0 8 0 0 0 0 0 8 8
Neighs:              0 ave           0 max           0 min
Histogram: 32 0 0 0 0 0 0 0 0 0
FullNghs:       5494.5 ave        7896 max        3378 min
Histogram: 8 8 0 0 0 0 0 8 0 8

Total # of neighbors = 175824
Ave neighs/atom = 162.8
Neighbor list builds = 0
Dangerous builds = 0

reset_timestep 0


variable interval equal 1000
thermo 10

variable nintervals equal $(v_PERIOD/v_interval)
variable nintervals equal 100
variable efield equal 1e-2*36.36*cos((step/${PERIOD})*2*3.14)
variable efield equal 1e-2*36.36*cos((step/100000)*2*3.14)
fix born all addbornforce 0.0 0.0 v_efield

variable Px equal f_born[1]+c_polarization[1]
variable Py equal f_born[2]+c_polarization[2]
variable Pz equal (f_born[3]+c_polarization[3])/vol
variable pe equal pe

fix aveP all ave/time 1 $(v_interval/2) ${interval} v_efield v_Pz v_pe f_born file Pz.${MODEL}.${STRUCTURE}.${TEMP}.$L.${ITER}
fix aveP all ave/time 1 500 ${interval} v_efield v_Pz v_pe f_born file Pz.${MODEL}.${STRUCTURE}.${TEMP}.$L.${ITER}
fix aveP all ave/time 1 500 1000 v_efield v_Pz v_pe f_born file Pz.${MODEL}.${STRUCTURE}.${TEMP}.$L.${ITER}
fix aveP all ave/time 1 500 1000 v_efield v_Pz v_pe f_born file Pz.BaTiO3-E0.${STRUCTURE}.${TEMP}.$L.${ITER}
fix aveP all ave/time 1 500 1000 v_efield v_Pz v_pe f_born file Pz.BaTiO3-E0.BaTiO3-sc333.${TEMP}.$L.${ITER}
fix aveP all ave/time 1 500 1000 v_efield v_Pz v_pe f_born file Pz.BaTiO3-E0.BaTiO3-sc333.350.$L.${ITER}
fix aveP all ave/time 1 500 1000 v_efield v_Pz v_pe f_born file Pz.BaTiO3-E0.BaTiO3-sc333.350.2.${ITER}
fix aveP all ave/time 1 500 1000 v_efield v_Pz v_pe f_born file Pz.BaTiO3-E0.BaTiO3-sc333.350.2.8

thermo_style custom step time temp press pe f_born v_efield v_Pz spcpu cpuremain

# dump 4a all custom 1000 dump.hyst.${MODEL}.${STRUCTURE}.${TEMP}.$L.${ITER}.bin id type xu yu zu fx fy fz
# dump_modify 4a sort id

fix nvt all nvt temp ${TEMP} ${TEMP} $(100*dt)
fix nvt all nvt temp 350 ${TEMP} $(100*dt)
fix nvt all nvt temp 350 350 $(100*dt)
fix nvt all nvt temp 350 350 0.2000000000000000111

run $(v_PERIOD)
run 100000
WARNING: non-constant efield is experimental, strongly distrust scalar/vector output (src/fix_addbornforce.cpp:193)
Per MPI rank memory allocation (min/avg/max) = 3.516 | 3.516 | 3.516 Mbytes
   Step          Time           Temp          Press          PotEng         f_born        v_efield         v_Pz          S/CPU         CPULeft    
         0   0              354.87551      130196        -807630.15     -295.28016      0.3636         0.055533866    0              0            
        10   0.02           371.8112       132725.16     -807628.99     -298.82111      0.36359993     0.05619983     29.33268       3408.8455    
        20   0.04           357.80555      138060.21     -807621.29     -304.65916      0.36359971     0.057297836    29.332421      3408.5098    
        30   0.06           358.8292       141708.65     -807616.65     -309.55071      0.36359935     0.058217857    29.344246      3407.7129    
        40   0.08           359.36889      142335.71     -807615.62     -310.76568      0.36359885     0.058446441    29.337788      3407.3314    
        50   0.1            357.9143       140063.37     -807618.62     -307.67041      0.36359821     0.057864409    29.360523      3406.4385    
        60   0.12           358.41577      136378.71     -807623.65     -302.87444      0.36359742     0.056962541    29.405662      3404.8591    
        70   0.14           362.94786      132275.9      -807629.11     -298.23885      0.36359649     0.056090855    29.374352      3404.151     
        80   0.16           352.86526      130980.08     -807630.57     -295.57745      0.36359541     0.055590481    29.355027      3403.8154    
        90   0.18           354.62762      130085.83     -807631.47     -295.27259      0.36359419     0.05553333     29.269952      3404.5768    
       100   0.2            355.71449      134397.95     -807627.28     -299.90096      0.36359283     0.056404021    29.334927      3404.3621    
       110   0.22           363.24396      136039.3      -807623.89     -304.74962      0.36359132     0.057316173    29.358554      3403.8754    
       120   0.24           362.25259      141031.67     -807617.98     -310.77309      0.36358968     0.058449309    29.346724      3403.5269    
       130   0.26           354.66663      139484.36     -807619.81     -308.32305      0.36358788     0.057988799    29.291305      3403.6756    
       140   0.28           355.45681      140686.4      -807619.68     -308.71459      0.36358595     0.058062747    29.321651      3403.5019    
       150   0.3            350.22563      134306.36     -807625.47     -302.561        0.36358387     0.056905711    29.354317      3403.0532    
       160   0.32           350.39805      133496.67     -807628.05     -300.09151      0.36358165     0.056441594    29.371797      3402.4915    
       170   0.34           349.37674      128258.06     -807634.26     -294.03491      0.36357928     0.055302821    29.316308      3402.3347    
       180   0.36           347.55581      132024.37     -807631.66     -296.38809      0.36357677     0.055745798    29.351922      3401.9272    
       190   0.38           334.56377      132362.91     -807626.44     -300.03121      0.36357412     0.056431422    29.435169      3401.0209    
       200   0.4            357.13652      138047.83     -807623.07     -306.5739       0.36357132     0.057662448    29.427201      3400.2172    
       210   0.42           349.06744      139052.27     -807620.27     -308.40828      0.36356838     0.05800794     29.405982      3399.5742    
       220   0.44           355.3354       141562.38     -807620.09     -309.38354      0.3635653      0.058191869    29.360228      3399.199     
       230   0.46           336.7161       138522.54     -807619.11     -307.88998      0.36356207     0.057911458    29.367719      3398.7891    
       240   0.48           353.13356      135993.52     -807625.24     -304.02765      0.3635587      0.057185517    29.366755      3398.3897    
       250   0.5            348.9189       130854.01     -807631.35     -297.33158      0.36355519     0.055926574    29.391187      3397.8823    
       260   0.52           339.96876      130039.56     -807632.48     -294.97526      0.36355153     0.055483919    29.336352      3397.6313    
       270   0.54           337.36608      131177.22     -807628.86     -298.20608      0.36354773     0.056092213    29.343145      3397.3447    
       280   0.56           355.84735      133365.59     -807627.86     -301.79598      0.36354379     0.056768085    29.328312      3397.1156    
       290   0.58           347.9864       138916.81     -807623.33     -305.18233      0.3635397      0.057405705    29.339201      3396.8353    
       300   0.6            346.29005      140275.01     -807619.36     -308.91411      0.36353547     0.05810834     29.281936      3396.7724    
       310   0.62           350.26302      140331.16     -807618.31     -310.4484       0.3635311      0.05839765     29.333166      3396.4998    
       320   0.64           344.41787      137644.64     -807621.3      -306.65981      0.36352658     0.057685705    29.348974      3396.1655    
       330   0.66           358.92136      134531.53     -807628.39     -301.48365      0.36352192     0.056712746    29.332301      3395.8896    
       340   0.68           340.57792      130689.48     -807630.98     -296.3173       0.36351712     0.055741628    29.288123      3395.7606    
       350   0.7            341.92915      130899.96     -807630.18     -297.1572       0.36351217     0.055900388    29.341943      3395.4411    
       360   0.72           353.3027       130415.61     -807630.96     -297.99111      0.36350708     0.056058045    29.379482      3394.9999    
       370   0.74           351.23053      134522.29     -807627.22     -301.29432      0.36350185     0.056680261    29.376757      3394.5727    
       380   0.76           345.85771      138068.55     -807621.84     -305.88647      0.36349647     0.057544998    29.310769      3394.3508    
       390   0.78           347.10054      141327.96     -807617.32     -310.55975      0.36349095     0.058425049    29.321801      3394.0902    
       400   0.8            343.5007       141648.99     -807617.77     -309.50266      0.36348529     0.058227088    29.365177      3393.6999    
       410   0.82           353.64618      138306.15     -807623.07     -305.43012      0.36347948     0.057461834    29.361408      3393.3228    
       420   0.84           349.70008      134358.98     -807627.04     -300.7579       0.36347353     0.056583757    29.37566       3392.9083    
       430   0.86           348.32265      131442.81     -807629.61     -297.87558      0.36346744     0.056042424    29.383521      3392.4761    
       440   0.88           350.71101      130031.43     -807631.68     -296.00824      0.3634612      0.055692057    29.362931      3392.102     
       450   0.9            352.02873      132102.2      -807630.73     -296.97613      0.36345482     0.055875141    29.350869      3391.7605    
       460   0.92           350.65246      135594.23     -807625.42     -302.01096      0.3634483      0.056823449    29.378987      3391.3484    
       470   0.94           347.26127      139772.82     -807618.88     -307.87563      0.36344163     0.057927951    29.350363      3391.0096    
       480   0.96           349.43043      140673.78     -807617.99     -308.91408      0.36343482     0.058124427    29.297454      3390.7983    
       490   0.98           354.01348      139661.64     -807618.94     -308.36638      0.36342786     0.058022485    29.306635      3390.5602    
       500   1              362.49065      136855.1      -807624.06     -304.24099      0.36342077     0.057247364    29.380109      3390.1479    
       510   1.02           351.52897      134694.22     -807624.75     -9655.5569      0.36341353     0.056777174    29.26775       3389.9934    
       520   1.04           363.72284      130591.12     -807630.86     -9505.7108      0.36340614     0.055897177    29.315035      3389.7262    
       530   1.06           354.29459      130288.32     -807631.09     -9448.282       0.36339862     0.055560624    29.265411      3389.5649    
       540   1.08           360.28508      132550.21     -807628.63     -9548.377       0.36339095     0.056150418    29.280744      3389.3639    
       550   1.1            351.38408      136033.21     -807621.79     -9719.5201      0.36338313     0.057158076    29.252132      3389.2182    
       560   1.12           356.80788      139354.12     -807618.95     -9824.9661      0.36337518     0.057779442    29.253178      3389.0633    
       570   1.14           364.90913      140321.97     -807619.06     -9849.912       0.36336707     0.057927437    29.254373      3388.8994    
       580   1.16           369.15408      139626.94     -807618.53     -9876.7875      0.36335883     0.05808681     29.340764      3388.5569    
       590   1.18           373.18558      138071.13     -807622.5      -9760.8932      0.36335044     0.057406544    29.328234      3388.239     
       600   1.2            360.812        134203.04     -807625.11     -9616.0335      0.36334191     0.056555911    29.273489      3388.0259    
       610   1.22           357.54481      131351.73     -807629.18     -9463.6673      0.36333324     0.055661111    29.307451      3387.7441    
       620   1.24           355.88402      130814.1      -807628.71     -9469.2291      0.36332442     0.055695175    29.286362      3387.4998    
       630   1.26           368.72057      133089.12     -807626.4      -9597.3196      0.36331546     0.056449957    29.256753      3387.3069    
       640   1.28           352.91334      136750.55     -807620.93     -9700.9277      0.36330636     0.057060794    29.220316      3387.1755    
       650   1.3            376.39948      139223.68     -807621.22     -9793.6107      0.36329711     0.05760742     29.278777      3386.9332    
       660   1.32           366.0534       140962.93     -807617.53     -9865.5683      0.36328772     0.058032185    29.285382      3386.6763    
       670   1.34           373.99202      140411.91     -807618.8      -9864.1765      0.36327819     0.058025521    29.29434       3386.4014    
       680   1.36           369.91281      136378.8      -807622.85     -9719.1119      0.36326851     0.057173709    29.229944      3386.2344    
       690   1.38           365.2599       133036.42     -807627.16     -9564.6919      0.36325869     0.056266838    29.263793      3386.0053    
       700   1.4            356.29821      131266.05     -807628.55     -9489.864       0.36324873     0.055828174    29.254382      3385.7886    
       710   1.42           359.31388      132030.5      -807628.3      -9520.7938      0.36323863     0.05601169     29.24662       3385.5811    
       720   1.44           363.87024      132363.32     -807627.67     -9574.3964      0.36322838     0.056328628    29.263649      3385.3424    
       730   1.46           357.49791      137098.03     -807623.54     -9692.8159      0.36321798     0.057026952    29.291685      3385.0564    
       740   1.48           359.74378      138297.05     -807619.99     -9832.2689      0.36320745     0.057849092    29.286239      3384.7775    
       750   1.5            360.71996      141236.4      -807618.28     -9906.294       0.36319677     0.058286339    29.286059      3384.4971    
       760   1.52           362.04628      138382.1      -807622.95     -9778.6528      0.36318595     0.057537042    29.28963       3384.2097    
       770   1.54           340.88985      137114.23     -807622.79     -9699.3058      0.36317498     0.057071892    29.287269      3383.9244    
       780   1.56           360.88043      132481.59     -807630.14     -9563.7739      0.36316387     0.056276127    29.324548      3383.5825    
       790   1.58           340.24315      132296.04     -807627.74     -9554.3804      0.36315262     0.056222595    29.345109      3383.2106    
       800   1.6            352.55336      130840.73     -807631.65     -9490.4463      0.36314122     0.055848129    29.279166      3382.9346    
       810   1.62           346.54223      134527.05     -807627.55     -9598.7377      0.36312968     0.056487182    29.278945      3382.6573    
       820   1.64           358.09731      135320.15     -807624.94     -9739.7708      0.363118       0.057318986    29.287311      3382.3667    
       830   1.66           358.8187       139183.55     -807621.68     -9848.4146      0.36310618     0.057960247    29.344489      3381.9954    
       840   1.68           346.35344      139576.2      -807620.51     -9835.1865      0.36309421     0.057884304    29.29835       3381.6882    
       850   1.7            349.53661      138218.32     -807622.83     -9777.0201      0.3630821      0.057543889    29.28673       3381.3959    
       860   1.72           342.59512      135524.74     -807624.57     -9691.9142      0.36306984     0.057044913    29.279927      3381.1116    
       870   1.74           349.11448      132181.43     -807629.36     -9569.4922      0.36305745     0.056326282    29.314012      3380.7808    
       880   1.76           343.71289      132322.97     -807630.43     -9509.702       0.3630449      0.055976289    29.341837      3380.4133    
       890   1.78           336.25202      131606.49     -807629.62     -9505.0646      0.36303222     0.055950947    29.352033      3380.0332    
       900   1.8            346.39354      134495.27     -807627.01     -9632.207       0.36301939     0.056701366    29.319246      3379.6959    
       910   1.82           346.11138      134995.85     -807623.91     -9732.1543      0.36300642     0.057291767    29.292914      3379.392     
       920   1.84           362.44926      139020.54     -807623.55     -9811.6964      0.36299331     0.057762106    29.198322      3379.2063    
       930   1.86           352.57342      138447.03     -807622.32     -9809.6386      0.36298005     0.057752101    29.202944      3379.0115    
       940   1.88           352.16702      139894.92     -807622.21     -9808.5836      0.36296665     0.057748022    29.259368      3378.744     
       950   1.9            356.20496      133500.4      -807628.5      -9627.5962      0.36295311     0.056684574    29.279999      3378.4498    
       960   1.92           355.5419       133329.56     -807629.53     -9586.4463      0.36293942     0.056444423    29.289049      3378.1437    
       970   1.94           336.57041      129847.47     -807630.43     -9475.0669      0.36292559     0.055790754    29.238921      3377.8966    
       980   1.96           337.88877      133461.65     -807627.52     -9566.7791      0.36291162     0.056332939    29.246668      3377.6385    
       990   1.98           349.86045      132104.72     -807628.28     -9595.7539      0.3628975      0.056505752    29.282052      3377.3373    
      1000   2              349.57388      137801.96     -807623.13     -9754.8279      0.36288325     0.057444735    29.121998      3377.2212    
      1010   2.02           352.6157       137525.41     -807622.92     -305.44696      0.36286884     0.057561703    29.356648      3376.8315    
      1020   2.04           349.01745      140912.61     -807620.27     -307.34746      0.3628543      0.057922176    29.366577      3376.4316    
      1030   2.06           348.88146      136888.2      -807622.93     -304.57244      0.36283961     0.057401525    29.389241      3376.0077    
      1040   2.08           344.56142      135838.29     -807624.44     -302.27564      0.36282478     0.056970985    29.399911      3375.5736    
      1050   2.1            355.04384      131932.43     -807630.16     -297.86858      0.3628098      0.056142688    29.450955      3375.0857    
      1060   2.12           334.97198      132603.45     -807626.65     -298.30426      0.36279469     0.056227148    29.397261      3374.6585    
      1070   2.14           351.63083      133072.49     -807629.17     -297.96853      0.36277943     0.05616623     29.303897      3374.3332    
      1080   2.16           357.94508      134897.67     -807627.21     -300.585        0.36276402     0.056661832    29.371149      3373.936     
      1090   2.18           361.36664      136605.54     -807624.46     -303.5903       0.36274848     0.0572308      29.371155      3373.5398    
      1100   2.2            353.97724      138189.34     -807620.97     -305.86817      0.36273279     0.057662701    29.354879      3373.1616    
      1110   2.22           345.61451      139556.39     -807618.76     -306.71899      0.36271695     0.057825625    29.307435      3372.8333    
      1120   2.24           366.90209      136350.84     -807624.7      -303.54153      0.36270098     0.057229098    29.26868       3372.5445    
      1130   2.26           353.41129      136242.45     -807623.9      -302.17898      0.36268486     0.056974738    29.338056      3372.1842    
      1140   2.28           347.12029      132619.32     -807626.91     -298.21403      0.3626686      0.056229683    29.363018      3371.7991    
      1150   2.3            348.14678      134024.76     -807626.45     -298.49117      0.36265219     0.056284486    29.376802      3371.401     
      1160   2.32           358.82009      130756.48     -807629.36     -296.95875      0.36263564     0.055998082    29.348236      3371.0321    
      1170   2.34           365.48059      136395.18     -807625.12     -301.86504      0.36261895     0.056925891    29.382366      3370.6303    
      1180   2.36           352.94545      135733.1      -807622.26     -302.9316       0.36260212     0.057129675    29.400846      3370.2116    
      1190   2.38           349.17038      140875.46     -807617.97     -306.41741      0.36258514     0.057789768    29.344802      3369.8482    
      1200   2.4            372.66855      137187.56     -807623.92     -303.76791      0.36256802     0.057292782    29.349686      3369.4804    
      1210   2.42           357.54812      139181.22     -807620.16     -305.18628      0.36255076     0.057563038    29.362398      3369.1011    
      1220   2.44           357.01498      134163.31     -807624.35     -300.95404      0.36253335     0.056767495    29.365583      3368.7194    
      1230   2.46           360.76858      133850.52     -807626.57     -299.05245      0.3625158      0.056411537    29.382867      3368.3223    
      1240   2.48           351.79697      131556.73     -807628.35     -296.07374      0.36249811     0.055852376    29.348321      3367.9581    
      1250   2.5            356.48876      134517.62     -807625.4      -299.60441      0.36248028     0.056521195    29.298638      3367.6398    
      1260   2.52           357.79494      134881.43     -807623.6      -301.60753      0.3624623      0.056901911    29.294628      3367.3248    
      1270   2.54           370.80507      136706.5      -807624.46     -302.54707      0.36244418     0.057082021    29.300664      3367.004     
      1280   2.56           355.49936      138358.31     -807619.83     -305.10484      0.36242592     0.0575675      29.285137      3366.6968    
      1290   2.58           358.12883      138135.94     -807620.05     -305.42943      0.36240751     0.057631671    29.313724      3366.3636    
      1300   2.6            356.28139      137469.06     -807621.13     -304.20329      0.36238896     0.057403248    29.375795      3365.9755    
      1310   2.62           349.51859      134892.21     -807625.07     -299.60628      0.36237027     0.056538707    29.397876      3365.5689    
      1320   2.64           353.54478      133103.57     -807627.82     -297.71038      0.36235143     0.056183852    29.44548       3365.1222    
      1330   2.66           345.14627      132520.15     -807626.53     -298.25858      0.36233245     0.056290257    29.436         3364.6853    
      1340   2.68           345.95906      134044.11     -807625.13     -300.14701      0.36231333     0.05664965     29.450095      3364.2378    
      1350   2.7            349.65917      134213.8      -807626.33     -299.88808      0.36229407     0.056603787    29.386889      3363.8452    
      1360   2.72           361.16374      137127.42     -807625.27     -302.90362      0.36227466     0.057176033    29.365174      3363.4717    
      1370   2.74           343.76162      137971.49     -807619.49     -306.70805      0.36225511     0.057897281    29.36356       3363.1       
      1380   2.76           359.49083      138432.75     -807622.17     -306.48401      0.36223542     0.057858134    29.395728      3362.7022    
      1390   2.78           345.1865       135043.39     -807625.52     -301.38633      0.36221558     0.056898909    29.399132      3362.3024    
      1400   2.8            342.33507      134579.58     -807627.34     -299.36471      0.3621956      0.056520363    29.405616      3361.8981    
      1410   2.82           345.17236      131917.76     -807628.32     -299.00468      0.36217548     0.056455525    29.362091      3361.53      
      1420   2.84           347.85051      133116.21     -807628.6      -299.18339      0.36215522     0.056492429    29.338068      3361.1817    
      1430   2.86           341.10929      132014.74     -807629.46     -297.52547      0.36213481     0.056182543    29.180274      3360.9604    
      1440   2.88           345.46736      136447.98     -807625.54     -302.15066      0.36211426     0.057059168    29.184206      3360.7344    
      1450   2.9            350.40448      136757.93     -807623.84     -304.75809      0.36209357     0.057554854    29.22436       3360.4747    
      1460   2.92           346.62992      139148.41     -807621.32     -306.63721      0.36207273     0.057913064    29.337148      3360.1252    
      1470   2.94           341.23099      136876.66     -807624.99     -302.24564      0.36205176     0.057086959    29.33728       3359.7756    
      1480   2.96           343.13764      137036.84     -807626.33     -301.19178      0.36203064     0.056891228    29.286538      3359.4655    
      1490   2.98           341.36984      133639.4      -807627.27     -300.10021      0.36200937     0.056688374    29.359321      3359.099     
      1500   3              331.29157      133708.4      -807626.99     -298.84174      0.36198796     0.05645399     29.363253      3358.7298    
      1510   3.02           341.87848      132153.18     -807630.96     -9481.1937      0.36196642     0.055974765    29.334852      3358.3826    
      1520   3.04           336.52772      134150.41     -807627.19     -9575.5768      0.36194472     0.056535369    29.233328      3358.1121    
      1530   3.06           352.45649      135721.99     -807625        -9714.7248      0.36192289     0.057360377    29.229049      3357.8439    
      1540   3.08           357.21244      137226.39     -807624.18     -9759.0045      0.36190091     0.057625324    29.227856      3357.5756    
      1550   3.1            343.52173      138700.5      -807623.53     -9712.4532      0.36187879     0.057353952    29.218629      3357.3132    
      1560   3.12           352.87116      135377.92     -807625.42     -9692.2682      0.36185653     0.057238277    29.205952      3357.0592    
      1570   3.14           345.30408      136158.83     -807624.4      -9684.5767      0.36183412     0.057196396    29.251896      3356.7704    
      1580   3.16           342.75175      132872.81     -807627.62     -9563.6705      0.36181157     0.056485853    29.209527      3356.5118    
      1590   3.18           341.85293      133164.07     -807629.2      -9501.1946      0.36178888     0.056120371    29.234521      3356.234     
      1600   3.2            342.73745      131694.64     -807629.39     -9494.7049      0.36176605     0.056085579    29.198209      3355.9815    
      1610   3.22           342.27951      136047.6      -807623.95     -9656.5866      0.36174307     0.057045443    29.259577      3355.6841    
      1620   3.24           358.85938      134757.16     -807626.06     -9657.2044      0.36171995     0.057052739    29.212906      3355.4192    
      1630   3.26           352.77776      137964.97     -807623.42     -9704.9876      0.36169669     0.057338719    29.234539      3355.1382    
      1640   3.28           346.49053      137575.76     -807622.18     -9711.2677      0.36167329     0.057379536    29.267304      3354.8333    
      1650   3.3            349.9555       137925.07     -807620.85     -9759.5653      0.36164974     0.057668659    29.194607      3354.5788    
      1660   3.32           362.32662      134451.64     -807627.04     -9608.933       0.36162605     0.056782302    29.275401      3354.2672    
      1670   3.34           348.58652      134455.65     -807628.15     -9501.0003      0.36160222     0.056148193    29.216584      3353.9958    
      1680   3.36           351.84014      132142.6      -807629.05     -9481.6356      0.36157824     0.056037469    29.256456      3353.6962    
      1690   3.38           361.05216      134589.75     -807626.32     -9601.3835      0.36155413     0.056748977    29.242534      3353.4055    
      1700   3.4            355.83125      134160.62     -807626.7      -9562.8065      0.36152987     0.05652476     29.180007      3353.1567    
      1710   3.42           350.32062      137572.09     -807623.91     -9618.2381      0.36150546     0.056856248    29.156186      3352.9228    
      1720   3.44           359.0215       136274.68     -807622.81     -9689.5113      0.36148092     0.057281454    29.180845      3352.6711    
      1730   3.46           362.66839      138826.35     -807619.59     -9803.158       0.36145623     0.057957257    29.17166       3352.4245    
      1740   3.48           353.89662      136914.34     -807622.32     -9672.7498      0.3614314      0.0571902      29.201205      3352.1572    
      1750   3.5            359.4946       136271.17     -807626.84     -9549.6632      0.36140643     0.056466351    29.234193      3351.8673    
      1760   3.52           355.28607      133876.73     -807626.78     -9532.2879      0.36138131     0.056367529    29.252398      3351.5649    
      1770   3.54           357.10578      133491.1      -807626.6      -9542.9176      0.36135605     0.05643433     29.205362      3351.2927    
      1780   3.56           365.31504      132109.88     -807629.14     -9495.8908      0.36133065     0.056160174    29.257299      3350.9861    
      1790   3.58           356.59053      134298.67     -807627.15     -9520.4522      0.36130511     0.056309415    29.14205       3350.7533    
      1800   3.6            361.49131      136828.76     -807623.5      -9661.6355      0.36127942     0.057148516    29.169604      3350.5016    
      1810   3.62           353.45327      138832.5      -807618.78     -9779.8349      0.3612536      0.057851801    29.233775      3350.2081    
      1820   3.64           365.03927      138541.24     -807622.28     -9720.5026      0.36122763     0.057504959    29.21898       3349.9234    
      1830   3.66           356.93167      136450.08     -807623.9      -9633.1955      0.36120151     0.056992585    29.243645      3349.6225    
      1840   3.68           350.1035       136111.97     -807624.33     -9593.4149      0.36117526     0.056761358    29.18514       3349.3578    
      1850   3.7            349.10756      133400.18     -807625.39     -9558.4523      0.36114886     0.056558628    29.199216      3349.0835    
      1860   3.72           355.37033      132965.42     -807628.73     -9479.6343      0.36112232     0.056096374    29.22881       3348.7901    
      1870   3.74           361.07497      132182.55     -807631.35     -9426.3625      0.36109564     0.055785256    29.338765      3348.429     
      1880   3.76           354.78282      134888.61     -807625.67     -9583.3686      0.36106881     0.056718633    29.293213      3348.0957    
      1890   3.78           360.39855      136263.64     -807623.24     -9692.7953      0.36104184     0.057370554    29.257628      3347.7839    
      1900   3.8            355.59767      139290.79     -807621.11     -9739.9272      0.36101474     0.057653851    29.259529      3347.4706    
      1910   3.82           353.8396       137033.09     -807623.55     -9659.7194      0.36098748     0.057183391    29.229825      3347.1749    
      1920   3.84           350.05619      138336.19     -807622.11     -9690.8376      0.36096009     0.057371958    29.238456      3346.8735    
      1930   3.86           349.58182      132916.44     -807624.97     -9603.1469      0.36093255     0.056857147    29.305072      3346.5322    
      1940   3.88           362.56787      133715.3      -807629.07     -9527.7053      0.36090487     0.056414807    29.33707       3346.1721    
      1950   3.9            343.51372      129774.3      -807631.76     -9361.6093      0.36087705     0.055435605    29.372198      3345.7917    
      1960   3.92           346.09241      134787.97     -807626.39     -9542.8152      0.36084909     0.05651301     29.353296      3345.4226    
      1970   3.94           346.78418      134432.33     -807624.93     -9597.7903      0.36082098     0.056843003    29.306506      3345.081     
      1980   3.96           357.86611      139288.52     -807623.17     -9700.1067      0.36079273     0.057453471    29.312031      3344.7361    
      1990   3.98           347.4833       136829.66     -807623.02     -9661.6839      0.36076434     0.057230397    29.354777      3344.3668    
      2000   4              350.17782      139537.64     -807620.91     -9739.675       0.36073581     0.057696936    29.336096      3344.0084    
      2010   4.02           344.59755      135195.07     -807623.05     -301.53494      0.36070713     0.057165029    29.394491      3343.6172    
      2020   4.04           349.61862      134924.35     -807626.64     -298.54488      0.36067831     0.056602696    29.441254      3343.2002    
      2030   4.06           354.14243      130088.9      -807632.27     -293.54373      0.36064935     0.055658971    29.443403      3342.7829    
      2040   4.08           341.06097      133955.36     -807626.86     -297.08633      0.36062025     0.056335231    29.424724      3342.3766    
      2050   4.1            349.52186      133404.24     -807627.38     -297.78505      0.36059101     0.056472306    29.383886      3341.9936    
      2060   4.12           353.5088       137175.33     -807625.65     -300.04801      0.36056162     0.056906093    29.320525      3341.6459    
      2070   4.14           347.5401       136984.94     -807623.66     -301.1715       0.36053209     0.057123848    29.272211      3341.325     
      2080   4.16           355.13177      138248.75     -807621.46     -304.47133      0.36050242     0.057754487    29.275538      3341.002     
      2090   4.18           352.56254      138016.22     -807622.4      -303.18803      0.36047261     0.057515818    29.292584      3340.6695    
      2100   4.2            350.41755      134947.19     -807625.97     -299.27544      0.36044265     0.056778304    29.342276      3340.31      
      2110   4.22           345.82355      133459.16     -807627.45     -297.0897       0.36041256     0.056368334    29.401776      3339.9187    
      2120   4.24           337.28932      131672.7      -807628.39     -295.03434      0.36038232     0.055983057    29.373391      3339.543     
      2130   4.26           350.10923      133623.22     -807628.21     -296.92748      0.36035193     0.056347032    29.401782      3339.1526    
      2140   4.28           346.66121      132531.17     -807628.85     -295.83656      0.36032141     0.056144768    29.425795      3338.7499    
      2150   4.3            354.47783      136292.67     -807625.33     -300.29239      0.36029075     0.056995259    29.388668      3338.3674    
      2160   4.32           361.01056      135851.53     -807625.77     -300.91526      0.36025994     0.057118364    29.331871      3338.0151    
      2170   4.34           339.24329      140670.21     -807618.82     -304.7219       0.36022899     0.057845893    29.354181      3337.6512    
      2180   4.36           353.25415      135686.05     -807624.75     -300.86214      0.36019789     0.057118118    29.381082      3337.2735    
      2190   4.38           353.94239      136756.43     -807625.46     -300.04374      0.36016666     0.056967687    29.424755      3336.8736    
      2200   4.4            341.67216      132989.7      -807627.01     -296.91387      0.36013528     0.056378347    29.407084      3336.4834    
      2210   4.42           344.1592       133987.75     -807627.03     -297.12646      0.36010377     0.056423651    29.375584      3336.1097    
      2220   4.44           360.54633      131351.25     -807631.14     -295.27375      0.36007211     0.056076755    29.387082      3335.7304    
      2230   4.46           341.7775       134471.55     -807626.87     -296.86009      0.3600403      0.056383004    29.354723      3335.368     
      2240   4.48           356.86172      135658.11     -807625.75     -300.1122       0.36000836     0.05700574     29.322656      3335.022     
      2250   4.5            350.24537      137726.54     -807622        -302.90889      0.35997627     0.057542094    29.349175      3334.6627    
      2260   4.52           351.72933      137306.23     -807623.07     -301.9592       0.35994404     0.057366822    29.361296      3334.2974    
      2270   4.54           338.12629      136748.86     -807623.4      -299.71388      0.35991167     0.056945373    29.396615      3333.9148    
      2280   4.56           348.17911      135055.41     -807625.24     -299.2513       0.35987916     0.056862619    29.428746      3333.5166    
      2290   4.58           349.66684      132812.18     -807627.32     -297.28655      0.35984651     0.056494411    29.405423      3333.1304    
      2300   4.6            349.16528      132659.88     -807628.93     -295.57468      0.35981371     0.056174217    29.37415       3332.76      
      2310   4.62           336.44391      133909.5      -807626.96     -295.7546       0.35978077     0.056213558    29.367216      3332.3932    
      2320   4.64           345.62597      135578.12     -807624.85     -299.06117      0.35974769     0.056847258    29.342733      3332.0386    
      2330   4.66           354.82807      135805.45     -807624.89     -300.25734      0.35971447     0.057079905    29.292878      3331.7085    
      2340   4.68           357.37099      137551.87     -807624.15     -301.23259      0.35968111     0.057270614    29.361477      3331.345     
      2350   4.7            358.70765      136462.12     -807625.42     -300.10113      0.3596476      0.057060816    29.357419      3330.9837    
      2360   4.72           349.09218      136527.81     -807623.94     -300.143        0.35961396     0.057074116    29.379587      3330.6118    
      2370   4.74           340.37002      134225.52     -807624.9      -297.89974      0.35958017     0.05665287     29.37726       3330.2414    
      2380   4.76           353.45595      132879.53     -807628.5      -295.98367      0.35954624     0.056293794    29.356564      3329.881     
      2390   4.78           354.3874       131282.68     -807629.91     -294.62869      0.35951216     0.056041399    29.305954      3329.5449    
      2400   4.8            346.99883      134441.82     -807626.04     -297.3581       0.35947795     0.056565944    29.291188      3329.2157    
      2410   4.82           350.1867       134351.11     -807625.08     -298.79964      0.35944359     0.056845598    29.269422      3328.8966    
      2420   4.84           358.36006      137084.4      -807624.71     -300.05545      0.35940909     0.05708999     29.294783      3328.5655    
      2430   4.86           356.44096      137000.7      -807624.47     -299.96268      0.35937446     0.057077842    29.325695      3328.2198    
      2440   4.88           350.99567      138059.47     -807621.37     -302.22848      0.35933967     0.05751455     29.354223      3327.8609    
      2450   4.9            361.99925      134452.49     -807625.72     -299.29299      0.35930475     0.05696146     29.363156      3327.4981    
      2460   4.92           342.58907      135734.31     -807625.49     -296.61065      0.35926969     0.056456466    29.403086      3327.1171    
      2470   4.94           355.70434      131860.37     -807629.9      -293.98023      0.35923448     0.05596128     29.378291      3326.7477    
      2480   4.96           344.96363      133787.43     -807625.8      -296.39427      0.35919913     0.056426362    29.372541      3326.3812    
      2490   4.98           349.49335      132602.06     -807626.63     -296.14217      0.35916364     0.056383939    29.364686      3326.0185    
      2500   5              349.3409       135427.98     -807625.35     -297.23276      0.35912801     0.056597196    29.353062      3325.6612    
[...]
     98740   197.48         367.69277      136899.43     -807623.86     -9677.0499      0.36236891     0.057067597    29.97634       44.590882    
     98750   197.5          348.20122      139851.99     -807619.18     -9742.9718      0.36238762     0.057453387    30.015489      44.236724    
     98760   197.52         357.89562      137797.46     -807622.15     -9693.8592      0.36240618     0.057160847    30.015773      43.88257     
     98770   197.54         358.81123      136556.25     -807623.46     -9659.1361      0.36242459     0.056953205    29.973171      43.528426    
     98780   197.56         351.618        135776.09     -807622.82     -9650.4648      0.36244287     0.056899207    29.935716      43.174291    
     98790   197.58         351.99786      135133.94     -807624.39     -9606.6649      0.362461       0.056638129    29.951258      42.820158    
     98800   197.6          355.17872      135020.21     -807625.45     -9589.9201      0.36247899     0.056536601    29.934827      42.466032    
     98810   197.62         358.79289      134951.62     -807626.38     -9581.9875      0.36249683     0.056487054    29.941412      42.111909    
     98820   197.64         368.82008      137126.97     -807625.34     -9665.9038      0.36251453     0.056978969    29.975694      41.757785    
     98830   197.66         353.79008      136721.08     -807622.25     -9705.1387      0.36253209     0.057207482    29.960333      41.403667    
     98840   197.68         352.84625      138369.61     -807621.79     -9718.306       0.36254951     0.057282345    29.874037      41.049565    
     98850   197.7          363.46273      135461.14     -807624.96     -9674.4131      0.36256678     0.057020911    29.805085      40.695476    
     98860   197.72         359.64073      138246.27     -807623.44     -9710.2318      0.36258391     0.057229323    29.808758      40.34139     
     98870   197.74         351.7422       134166.02     -807625.66     -9612.7148      0.3626009      0.056651931    29.831881      39.987305    
     98880   197.76         352.94081      135822.24     -807625.76     -9618.1454      0.36261774     0.056681303    29.884955      39.633217    
     98890   197.78         347.17572      133201.63     -807627.23     -9555.6174      0.36263445     0.056310222    29.905016      39.27913     
     98900   197.8          350.99194      136694.87     -807624.93     -9649.3837      0.362651       0.05686018     29.950707      38.925042    
     98910   197.82         360.43151      134445.86     -807626.97     -9635.7471      0.36266742     0.056777255    29.976296      38.570955    
     98920   197.84         345.30086      137980.71     -807622.09     -9728.4411      0.36268369     0.057320869    29.939052      38.216876    
     98930   197.86         354.90246      136709.89     -807624.64     -9697.5024      0.36269982     0.057136034    29.923203      37.862803    
     98940   197.88         350.31585      137935.16     -807623.43     -9718.8025      0.36271581     0.057259007    29.9416        37.508732    
     98950   197.9          343.68089      135391.14     -807624        -9677.9376      0.36273165     0.057015759    29.981644      37.154661    
     98960   197.92         344.83639      136433.34     -807624.73     -9663.0726      0.36274735     0.05692572     29.945144      36.800598    
     98970   197.94         350.52288      133678.36     -807627.85     -9594.2681      0.36276291     0.056517965    29.950725      36.446538    
     98980   197.96         342.50624      134238.04     -807626.39     -9606.913       0.36277832     0.056590049    29.954592      36.092482    
     98990   197.98         349.50285      134740.67     -807626.45     -9641.9132      0.36279359     0.056793829    29.985254      35.738426    
     99000   198            347.18972      136460        -807624.37     -9698.6144      0.36280872     0.057125434    29.984501      35.384375    
     99010   198.02         359.03446      136931.37     -807625.59     -303.64793      0.3628237      0.057229794    30.035852      35.030322    
     99020   198.04         334.90731      137328.47     -807622.38     -303.5939       0.36283855     0.057217271    30.041839      34.676273    
     99030   198.06         353.25739      137542.76     -807624.14     -304.50073      0.36285324     0.057385854    30.074342      34.322225    
     99040   198.08         341.57594      136040.19     -807624.43     -302.68156      0.3628678      0.057040727    30.021154      33.968186    
     99050   198.1          352.46865      135133.65     -807627.65     -300.95491      0.36288221     0.056713084    30.002162      33.614154    
     99060   198.12         327.36167      134419.3      -807626.77     -298.43072      0.36289648     0.056235205    29.996172      33.260127    
     99070   198.14         339.48807      134448.45     -807625.89     -300.98979      0.36291061     0.056715221    30.029573      32.9061      
     99080   198.16         352.30656      134211.94     -807626.3      -302.42907      0.36292459     0.056984226    30.071886      32.552073    
     99090   198.18         339.80104      136539.6      -807624.05     -302.88664      0.36293843     0.057068266    30.065749      32.198052    
     99100   198.2          341.10091      137214.99     -807624.28     -302.85504      0.36295213     0.05706016     29.990657      31.844042    
     99110   198.22         343.58499      137977.75     -807622.28     -305.17696      0.36296568     0.05749548     30.017007      31.490033    
     99120   198.24         355.44121      136831.31     -807624.22     -304.902        0.36297909     0.057441554    30.073301      31.136024    
     99130   198.26         343.74275      135112.7      -807625.11     -302.37691      0.36299236     0.056963763    30.093572      30.782016    
     99140   198.28         348.35257      134495.31     -807627.63     -300.41688      0.36300548     0.056592472    30.059658      30.428017    
     99150   198.3          338.213        134368.15     -807625.89     -300.7675       0.36301846     0.056656496    30.034467      30.074024    
     99160   198.32         344.56027      135263.85     -807626.18     -301.27123      0.3630313      0.056749378    30.069569      29.720032    
     99170   198.34         345.13754      134498.64     -807626.75     -300.69109      0.36304399     0.056638119    30.07099       29.366044    
     99180   198.36         341.16284      137096.83     -807623.96     -302.69846      0.36305655     0.057014256    30.033447      29.012064    
     99190   198.38         358.62478      136312.45     -807625.02     -303.92645      0.36306895     0.057243594    29.983165      28.658092    
     99200   198.4          344.45429      138710.33     -807620.4      -306.26586      0.36308122     0.057682266    30.008219      28.304123    
     99210   198.42         361.90295      135528.6      -807625.92     -302.86847      0.36309334     0.057040497    30.047697      27.950154    
     99220   198.44         357.85154      136680.84     -807625.15     -302.56263      0.36310532     0.056981017    30.00803       27.596193    
     99230   198.46         351.6823       134811.68     -807624.25     -302.28868      0.36311715     0.056927569    30.035488      27.242234    
     99240   198.48         347.23304      135324.1      -807623.81     -301.66114      0.36312885     0.05680756     30.061696      26.888277    
     99250   198.5          350.5293       134063.08     -807626.51     -299.00591      0.3631404      0.056305747    30.019852      26.534327    
     99260   198.52         355.37464      135476.67     -807624.84     -300.92101      0.3631518      0.056664599    30.036061      26.180381    
     99270   198.54         353.26448      135455.43     -807622.22     -303.02509      0.36316306     0.057059037    30.024592      25.826439    
     99280   198.56         363.36942      137226.7      -807622.01     -304.30979      0.36317418     0.057299188    30.002163      25.472504    
     99290   198.58         361.96599      137305        -807622.55     -303.33405      0.36318516     0.057113738    30.016686      25.118572    
     99300   198.6          367.32467      136528.03     -807623.37     -303.12191      0.36319599     0.057072093    30.024365      24.764643    
     99310   198.62         357.14791      137592.22     -807620.35     -304.60018      0.36320668     0.057348736    30.025719      24.410718    
     99320   198.64         357.72869      134986.98     -807623.08     -301.92545      0.36321723     0.056843499    30.036805      24.056797    
     99330   198.66         372.85157      135175.92     -807627.09     -299.93064      0.36322763     0.056466318    30.087811      23.702876    
     99340   198.68         350.8596       135337.51     -807624.12     -299.87145      0.36323789     0.056453581    30.044292      23.348963    
     99350   198.7          377.85804      136485.31     -807624.36     -303.51089      0.36324801     0.057137147    30.096089      22.99505     
     99360   198.72         367.62464      136363.54     -807623.76     -302.7781       0.36325798     0.056997632    30.112229      22.64114     
     99370   198.74         365.64425      137623.9      -807622.97     -303.35268      0.36326781     0.057104251    30.081603      22.287237    
     99380   198.76         368.23939      136349.3      -807623.95     -303.02772      0.3632775      0.057041558    30.030096      21.933342    
     99390   198.78         351.57578      138135.43     -807619.62     -305.23388      0.36328704     0.057455333    30.048719      21.57945     
     99400   198.8          367.75076      135033.14     -807624.72     -302.61342      0.36329644     0.0569606      29.986939      21.225566    
     99410   198.82         355.40917      136043.97     -807624.4      -301.36659      0.3633057      0.056724466    30.023761      20.871684    
     99420   198.84         361.95585      134720.32     -807627        -299.94825      0.36331481     0.056456084    30.060642      20.517803    
     99430   198.86         359.90657      136641.99     -807623.91     -303.02824      0.36332378     0.05703439     30.055443      20.163927    
     99440   198.88         357.0737       135391.66     -807624.13     -302.68762      0.36333261     0.056968896    29.979285      19.810061    
     99450   198.9          361.11568      136604.07     -807625.33     -302.21309      0.36334129     0.056878225    29.995595      19.456197    
     99460   198.92         352.8702       136040.55     -807623.96     -302.7646       0.36334983     0.056980682    29.925575      19.102341    
     99470   198.94         351.65189      136940.88     -807621.37     -305.45479      0.36335823     0.057485652    29.9723        18.748487    
     99480   198.96         355.04459      135713.2      -807623.2      -304.29459      0.36336648     0.057266003    30.013314      18.394635    
     99490   198.98         349.95872      136540.56     -807625.32     -301.58792      0.3633746      0.056755363    29.957118      18.04079     
     99500   199            360.16471      134927.97     -807626.46     -302.08706      0.36338256     0.056848048    29.977527      17.686947    
     99510   199.02         352.52312      136012.07     -807624.65     -9696.7331      0.36339039     0.057022932    29.963199      17.33311     
     99520   199.04         354.36863      134647.64     -807626.08     -9665.5007      0.36339807     0.056838065    29.922435      16.979279    
     99530   199.06         357.05819      135230.12     -807626.68     -9658.5145      0.3634056      0.056795804    29.947168      16.62545     
     99540   199.08         354.11087      134867.41     -807626.37     -9662.9589      0.363413       0.056820783    30.015944      16.271622    
     99550   199.1          353.51981      137316.34     -807623.51     -9755.6099      0.36342025     0.057364451    30.018908      15.917798    
     99560   199.12         338.67406      136247.8      -807622.68     -9720.4075      0.36342736     0.057156338    29.993855      15.563979    
     99570   199.14         351.15152      136038.48     -807625.28     -9692.825       0.36343432     0.05699306     30.051834      15.210162    
     99580   199.16         352.89282      134712.1      -807626.62     -9661.7563      0.36344114     0.056809312    30.014138      14.856351    
     99590   199.18         352.92762      137085.49     -807624.6      -9727.6025      0.36344782     0.057195424    29.97835       14.502545    
     99600   199.2          360.04114      133665.35     -807627.96     -9653.8744      0.36345435     0.056760905    29.99432       14.148743    
     99610   199.22         344.60903      135610.66     -807626.18     -9644.6216      0.36346074     0.056705505    30.051311      13.794942    
     99620   199.24         354.85137      135133.97     -807626.98     -9667.4286      0.36346699     0.056838622    29.994433      13.441148    
     99630   199.26         344.89807      136163.56     -807623.66     -9733.0525      0.3634731      0.057223489    29.930754      13.087361    
     99640   199.28         344.81477      137008.77     -807623.24     -9746.7008      0.36347906     0.057302792    29.95176       12.733577    
     99650   199.3          347.26906      136685.33     -807624.89     -9706.3427      0.36348487     0.057064606    29.977973      12.379796    
     99660   199.32         343.97605      136364.14     -807624.26     -9711.5839      0.36349055     0.057094528    29.94539       12.02602     
     99670   199.34         348.58134      135964.43     -807624.17     -9735.2267      0.36349608     0.057232653    29.972984      11.672247    
     99680   199.36         347.56936      135845.89     -807625.09     -9701.7839      0.36350147     0.0570352      29.978864      11.318478    
     99690   199.38         361.69316      134727.26     -807629.46     -9621.5938      0.36350671     0.05656296     29.959331      10.964713    
     99700   199.4          348.16167      135593.23     -807626.85     -9645.6905      0.36351181     0.056703823    29.895096      10.610955    
     99710   199.42         351.62097      134798.54     -807626.46     -9676.0095      0.36351677     0.056881282    29.909915      10.2572      
     99720   199.44         347.4975       135643.18     -807624.5      -9718.687       0.36352158     0.057131409    29.890266      9.9034501    
     99730   199.46         331.26604      135980.11     -807623.79     -9670.1786      0.36352625     0.056845522    29.931117      9.5497024    
     99740   199.48         352.2146       136462.98     -807624.83     -9729.0661      0.36353078     0.057190976    29.934346      9.1959585    
     99750   199.5          344.94314      136287.64     -807623.21     -9747.2106      0.36353516     0.057296945    29.920985      8.842219     
     99760   199.52         351.56751      136764.78     -807624.4      -9736.4183      0.3635394      0.057232837    29.926275      8.4884832    
     99770   199.54         352.73764      134970.33     -807626.44     -9673.8046      0.3635435      0.056864139    29.898548      8.1347521    
     99780   199.56         356.50225      134118.36     -807627.98     -9638.3394      0.36354745     0.056655053    29.936662      7.7810239    
     99790   199.58         349.40499      134155.25     -807626.17     -9662.5555      0.36355126     0.056796802    29.951999      7.4272993    
     99800   199.6          343.52366      134791.68     -807625.3      -9661.4474      0.36355493     0.056789715    29.972394      7.0735783    
     99810   199.62         346.35178      136178.23     -807626.24     -9639.1575      0.36355845     0.056658147    29.97948       6.719861     
     99820   199.64         347.39599      135895.44     -807623.91     -9712.1823      0.36356183     0.05708685     29.941388      6.3661486    
     99830   199.66         354.90493      137547.51     -807621.41     -9818.9291      0.36356507     0.057713779    29.951491      6.01244      
     99840   199.68         350.32422      137269.26     -807621.54     -9788.0626      0.36356816     0.057531862    30.000158      5.6587345    
     99850   199.7          354.18589      137465.62     -807623.78     -9721.9217      0.36357111     0.057142638    30.043082      5.3050323    
     99860   199.72         353.03516      135363.51     -807624.62     -9680.9292      0.36357392     0.056901257    30.032256      4.9513345    
     99870   199.74         353.93046      135195.76     -807623.87     -9699.2161      0.36357658     0.057008323    30.013622      4.597641     
     99880   199.76         358.29457      134569.89     -807626.44     -9625.5861      0.3635791      0.056575162    29.992171      4.243952     
     99890   199.78         350.83626      134036.09     -807626.53     -9578.3178      0.36358148     0.056296971    29.993874      3.890267     
     99900   199.8          363.0448       135239.78     -807625.34     -9663.3842      0.36358371     0.056796604    29.958021      3.5365865    
     99910   199.82         348.72044      137552.7      -807619.79     -9772.0316      0.3635858      0.057434849    29.897012      3.1829106    
     99920   199.84         355.65977      139031.26     -807619.54     -9800.9901      0.36358775     0.057604744    29.944156      2.8292381    
     99930   199.86         360.26221      137541.49     -807622.34     -9728.8265      0.36358955     0.057180323    29.969916      2.4755693    
     99940   199.88         354.57324      137773.47     -807620.44     -9756.9919      0.36359121     0.057345601    29.935216      2.1219048    
     99950   199.9          365.51977      136064.67     -807622.23     -9746.009       0.36359273     0.057280811    29.949348      1.7682441    
     99960   199.92         360.30905      135358.32     -807624.41     -9649.2645      0.3635941      0.056711995    29.952475      1.4145874    
     99970   199.94         373.94351      134372.69     -807628.6      -9573.5549      0.36359533     0.056266834    29.956642      1.0609346    
     99980   199.96         364.90001      133780.06     -807625.8      -9624.3287      0.36359641     0.056565079    29.944588      0.70728578   
     99990   199.98         359.91995      135912.83     -807622.32     -9715.6905      0.36359736     0.057101891    29.981909      0.35364088   
    100000   200            366.37489      136098.14     -807623.07     -9724.0325      0.36359816     0.057150794    29.979454      0            
Loop time of 3536.39 on 32 procs for 100000 steps with 1080 atoms

Performance: 4.886 ns/day, 4.912 hours/ns, 28.277 timesteps/s, 30.540 katom-step/s
62.6% CPU use with 32 MPI tasks x 1 OpenMP threads

MPI task timing breakdown:
Section |  min time  |  avg time  |  max time  |%varavg| %total
---------------------------------------------------------------
Pair    | 2518.6     | 2798.7     | 3080.1     | 284.9 | 79.14
Neigh   | 0.0016451  | 0.0017771  | 0.0019764  |   0.2 |  0.00
Comm    | 353.55     | 635.37     | 915        | 597.9 | 17.97
Output  | 2.3287     | 31.151     | 32.084     |  92.7 |  0.88
Modify  | 63.56      | 65.213     | 94.524     |  65.4 |  1.84
Other   |            | 5.968      |            |       |  0.17

Nlocal:          33.75 ave          40 max          27 min
Histogram: 2 0 3 4 6 6 6 2 1 2
Nghost:        1024.38 ave        1050 max         997 min
Histogram: 3 1 3 6 3 4 2 4 5 1
Neighs:              0 ave           0 max           0 min
Histogram: 32 0 0 0 0 0 0 0 0 0
FullNghs:      5359.69 ave        6431 max        4243 min
Histogram: 2 0 3 3 7 7 5 2 1 2

Total # of neighbors = 171510
Ave neighs/atom = 158.80556
Neighbor list builds = 4
Dangerous builds = 0

Total wall time: 1:02:18
