
units		metal
atom_style	atomic

read_data ${STRUCTURE}.data
read_data BaTiO3-sc333.data
Reading data file ...
  orthogonal box = (0 0 0) to (11.898253 11.898253 12.912076)
  2 by 4 by 4 MPI processor grid
  reading atoms ...
  135 atoms
  read_data CPU = 0.010 seconds
replicate $L $L $L
replicate 2 $L $L
replicate 2 2 $L
replicate 2 2 2
Replication is creating a 2x2x2 = 8 times larger system...
  orthogonal box = (0 0 0) to (23.796507 23.796507 25.824152)
  2 by 4 by 4 MPI processor grid
  1080 atoms
  replicate CPU = 0.004 seconds

pair_style allegro
pair_coeff	* * ${MODEL}.pth Ba Ti O
pair_coeff	* * BaTiO3-E0.pth Ba Ti O
mass 1 137.3
mass 2 47.9
mass 3 15.9994

timestep 0.002
compute polarization all allegro polarization 3
compute allegro will evaluate the quantity polarization of length 3 (src/compute_allegro.cpp:53)
compute polarizability all allegro polarizability 9
compute allegro will evaluate the quantity polarizability of length 9 (src/compute_allegro.cpp:53)

thermo_style custom pe fmax fnorm spcpu cpuremain

variable efield equal 1e-2*36.36
fix born all addbornforce 0.0 0.0 ${efield}
fix born all addbornforce 0.0 0.0 0.3636

thermo 10
min_style fire
#minimize 0.0 1e-6 100 100
velocity all create ${TEMP} ${SEED} dist gaussian rot yes mom yes
velocity all create 320 ${SEED} dist gaussian rot yes mom yes
velocity all create 320 17325 dist gaussian rot yes mom yes
fix nvt all nvt temp ${TEMP} ${TEMP} $(100*dt)
fix nvt all nvt temp 320 ${TEMP} $(100*dt)
fix nvt all nvt temp 320 320 $(100*dt)
fix nvt all nvt temp 320 320 0.2000000000000000111
run 5000
Neighbor list info ...
  update: every = 1 steps, delay = 0 steps, check = yes
  max neighbors/atom: 2000, page size: 100000
  master list distance cutoff = 8
  ghost atom cutoff = 8
  binsize = 8, bins = 3 3 4
  1 neighbor lists, perpetual/occasional/extra = 1 0 0
  (1) pair allegro/kk, perpetual
      attributes: full, newton on, kokkos_device
      pair build: full/bin/kk/device
      stencil: full/bin/3d
      bin: kk/device
Per MPI rank memory allocation (min/avg/max) = 3.516 | 3.516 | 3.516 Mbytes
    PotEng          Fmax          Fnorm          S/CPU         CPULeft    
-807708.29      1.5954132      37.04407       0              0            
-807644.42      3.458694       46.011067      2.1274946      2345.483     
-807634.82      2.8974301      35.883509      25.900651      1266.5278    
-807608.22      3.8835949      37.468065      25.891888      906.64038    
-807603.7       4.0617963      50.151217      25.84565       726.58924    
-807564.98      3.8531056      40.812439      25.826331      618.4324     
-807601.32      2.846478       39.072454      25.900159      546.10798    
-807646.53      3.8170073      33.481988      25.91713       494.31952    
-807683.59      2.4301631      33.845961      25.878789      455.41685    
-807665.89      3.3970411      34.368101      25.877381      425.07454    
-807653.45      2.8931634      34.259878      25.932212      400.68334    
-807661.16      2.7334658      27.367711      25.894482      380.68178    
-807628.27      3.1821534      30.462447      25.876783      363.9602     
-807585.33      3.4526611      39.713617      25.862532      349.75967    
-807569.63      3.6973633      37.708865      25.909659      337.50814    
-807632.53      3.3297726      33.906447      25.890244      326.84805    
-807652.86      3.013361       30.723884      25.886172      317.47403    
-807662.92      2.8924804      34.116612      25.87907       309.1604     
-807646.3       4.5625155      44.302201      25.895929      301.72083    
-807679.71      3.2631215      36.980091      25.830571      295.04847    
-807640.08      4.5722031      40.76428       25.806097      289.01344    
-807614.72      3.0904583      39.567315      25.850139      283.5012     
-807561.5       4.0411092      46.359874      25.900492      278.43859    
-807605.48      4.1748202      49.925027      25.816143      273.80877    
-807611.12      4.2717673      40.074612      25.844657      269.52401    
-807639.06      3.0259846      35.987681      25.922517      265.52902    
-807641.92      4.3431939      45.204669      25.939339      261.80708    
-807681.76      2.7469668      38.268827      25.847321      258.35634    
-807660.86      3.8100399      35.600478      25.786522      255.13982    
-807636.64      2.486086       32.469427      25.915798      252.08696    
-807607.25      3.2278402      33.675067      25.906181      249.21415    
-807606.24      3.5169721      42.399941      25.926685      246.49715    
-807596.04      3.0166975      35.541127      25.851932      243.94219    
-807608.02      3.7282534      33.778071      25.940358      241.49995    
-807642.97      3.2096006      29.912488      25.920855      239.18268    
-807673.34      2.6319094      32.093292      25.903008      236.97931    
-807674.4       2.8459484      32.696646      25.834873      234.89003    
-807642.21      4.2718454      38.888872      25.917974      232.87722    
-807649.12      2.6852375      31.280745      25.924666      230.94884    
-807620.44      3.6541836      34.252407      25.911291      229.10192    
-807600.19      4.1042723      43.493547      25.876226      227.33406    
-807568.49      3.5626494      41.936732      25.937158      225.62343    
-807625.89      3.2562481      35.808674      25.948891      223.97399    
-807647.82      3.9426244      35.541548      25.898538      222.39131    
-807671.25      2.9449549      35.215484      25.850209      220.8705     
-807639.26      4.6097926      47.521954      25.882794      219.39516    
-807667.35      2.7777697      35.561037      25.883552      217.96706    
-807642.28      3.6824208      37.158572      25.848007      216.58841    
-807622.31      3.0398625      38.04242       25.888774      215.24535    
-807565.03      3.7517095      43.011377      25.917322      213.93742    
-807602.57      4.040182       43.715715      25.919058      212.66615    
-807622.62      3.9144198      35.805747      25.843229      211.43956    
-807652.32      2.8702689      32.97145       25.881114      210.24039    
-807642.1       4.8786945      41.197986      25.927206      209.0661     
-807672.05      2.8580515      34.086787      25.860392      207.92924    
-807664.1       2.8431828      32.524727      25.762599      206.83154    
-807640.78      3.2714249      30.282638      25.841219      205.74982    
-807600.61      2.7073807      33.696552      25.931719      204.68198    
-807598.25      3.9799211      38.362525      25.92746       203.63815    
-807604.91      3.7485488      38.551763      25.853873      202.62483    
-807618.33      4.5001465      32.95648       25.897793      201.62758    
-807637.78      4.2642675      33.093876      25.929145      200.64701    
-807663.08      4.2694599      34.105839      25.923831      199.68619    
-807672.98      3.7333934      35.86811       25.834803      198.75285    
-807644.86      4.7818997      38.130139      25.876366      197.83234    
-807633.48      3.2719746      33.518682      25.922503      196.92366    
-807612.66      4.1466872      35.78912       25.922014      196.03088    
-807603.46      3.8682416      45.19916       25.852576      195.15993    
-807579.37      4.4051095      40.694043      25.882887      194.30033    
-807615.71      3.2226186      36.671278      25.924535      193.45058    
-807643.34      4.0162488      38.157649      25.903331      192.61603    
-807671.15      2.8848315      37.153194      25.843388      191.79952    
-807645.5       5.2949409      42.996366      25.869466      190.99262    
-807651.85      3.5199089      35.78533       25.890338      190.19542    
-807639.5       3.8331678      35.600687      25.890876      189.40927    
-807622.29      4.0689401      38.605242      25.857665      188.63661    
-807573.85      4.5429125      39.855153      25.870424      187.87303    
-807590.83      3.7184683      40.487397      25.906865      187.11626    
-807624.35      3.317992       33.048138      25.871929      186.37182    
-807656.1       2.8026961      32.404359      25.85392       185.63787    
-807647.28      4.4128544      37.57091       25.876483      184.91084    
-807658.82      3.5560042      35.428369      25.778485      184.19981    
-807661.78      2.7783547      33.133968      25.851395      183.49109    
-807642.44      3.4855545      32.172958      25.863587      182.7892     
-807602.36      2.9511233      35.328095      25.893555      182.09261    
-807586.19      3.5467189      38.618821      25.921428      181.40129    
-807604.5       3.8308706      40.203863      25.857408      180.72167    
-807625.86      3.724277       33.884255      25.884576      180.04686    
-807637.31      3.5477182      34.787786      25.908098      179.37697    
-807651.59      5.1582167      36.742055      25.904291      178.71371    
-807670.46      3.0171871      35.951466      25.848783      178.0604     
-807649.33      4.5203502      36.784602      25.896652      177.40972    
-807629.93      3.002427       34.101449      25.907401      176.76409    
-807605.16      3.7102451      36.173416      25.920716      176.12317    
-807608.64      3.7948927      42.85952       25.893004      175.48947    
-807593.57      3.8629672      38.09506       25.874746      174.86213    
-807618.1       3.0834689      35.576514      25.907903      174.23773    
-807638.41      4.0073809      36.777677      25.925232      173.61718    
-807669.07      2.8245376      35.474919      25.896938      173.00315    
-807653.36      4.30172        38.162355      25.880377      172.39472    
-807645.88      3.2573076      34.827661      25.890799      171.79011    
-807633.19      3.5790998      33.979002      25.869038      171.19111    
-807624.91      3.6459347      36.776901      25.876995      170.59581    
-807591.33      3.4020198      37.709932      25.866986      170.00514    
-807593.39      3.7719241      38.707802      25.901154      169.41645    
-807624.76      3.2633344      32.769107      25.912775      168.83097    
-807657.22      3.1696013      33.030237      25.928386      168.2484     
-807655.14      3.1374595      34.655113      25.88529       167.67186    
-807651.13      4.1158785      35.802284      25.92165       167.09688    
-807655.6       3.4551542      32.514087      25.860357      166.52865    
-807642.65      3.7287155      31.708306      25.866486      165.96339    
-807609.91      2.6001829      35.259306      25.884138      165.40043    
-807585.42      3.1634313      38.200568      25.933843      164.83806    
-807608.95      2.9284255      37.230002      25.896296      164.28074    
-807631.94      3.4029729      33.758816      25.895205      163.72647    
-807647.58      3.5837472      33.351844      25.877846      163.17599    
-807644.21      4.3663163      38.265997      25.886291      162.62792    
-807664.93      2.6837519      34.893943      25.845461      162.08462    
-807650.39      3.6692286      35.318974      25.787072      161.5468     
-807630.83      2.7089065      34.22866       25.881182      161.00699    
-807594.76      3.6641002      37.985364      25.890822      160.46928    
-807605.63      3.5471571      40.877271      25.887166      159.93425    
-807606.13      3.6239452      36.858219      25.835449      159.40404    
-807627.42      2.9876877      33.040947      25.821886      158.87679    
-807635.97      4.4361206      37.021223      25.899884      158.34827    
-807664.59      2.647601       34.241436      25.825654      157.82535    
-807657.89      2.9052359      34.586973      25.818142      157.30491    
-807644.26      3.180046       33.250589      25.921519      156.78204    
-807620.86      3.0681856      33.872164      25.926076      156.26112    
-807616.51      3.4195489      36.587222      25.922021      155.74246    
-807600.01      4.05133        38.752842      25.854814      155.2287     
-807601.14      3.5340537      37.183093      25.885238      154.7156     
-807622.7       3.6104221      34.789251      25.899444      154.20383    
-807652.25      2.5708493      33.746433      25.887391      153.69444    
-807659.53      3.3644954      35.089584      25.833239      153.1891     
-807646.6       3.5223989      36.675342      25.82516       152.68585    
-807643.95      3.1359765      34.058444      25.842387      152.18361    
-807632.42      3.3112132      34.333469      25.875957      151.68172    
-807613.72      3.1089177      37.098916      25.819124      151.18373    
-807585.99      3.5689464      39.218158      25.858442      150.68581    
-807607.32      3.127131       36.617307      25.876149      150.1888     
-807633.37      3.6762203      34.478183      25.866355      149.69373    
-807652.52      2.7098772      33.510436      25.82905       149.20159    
-807643.6       4.0025324      38.339702      25.856397      148.7099     
-807654.97      4.1661932      35.108401      25.783993      148.22235    
-807646.05      3.6893398      35.86036       25.831426      147.73443    
-807631.71      3.8324798      34.587277      25.82829       147.24801    
-807595.4       3.5533423      37.601547      25.898015      146.76044    
-807599.38      3.5546929      39.120263      25.91443       146.27365    
-807613.03      3.6851172      36.147199      25.867678      145.78986    
-807636.18      2.6171767      33.201383      25.888336      145.30665    
-807638.93      4.0722513      35.903319      25.916428      144.82375    
-807654.54      3.3799678      34.975405      25.914055      144.34221    
-807657.1       2.793442       35.243614      25.870599      143.8634     
-807643.1       3.5359024      34.270408      25.89572       143.38493    
-807619.71      3.9441769      35.006503      25.91876       142.9069     
-807608.11      4.1928555      36.711088      25.924415      142.42986    
-807605.69      3.9961739      38.386267      25.880414      141.95542    
-807614.34      2.8852803      35.266773      25.869954      141.48243    
-807627.04      3.8789625      34.457437      25.894208      141.00975    
-807647.49      2.9154192      33.956367      25.873553      140.53881    
-807660.73      3.6207198      34.266432      25.829529      140.0703     
-807649.48      3.2967657      35.818234      25.802304      139.60365    
-807637.93      3.9779559      33.74825       25.864201      139.13605    
-807626.03      3.2399233      34.200528      25.8836        138.66885    
-807615.14      3.279791       36.565925      25.853688      138.20353    
-807598.36      3.8514464      37.491482      25.859829      137.73898    
-807609.07      3.1656949      36.519882      25.807252      137.27693    
-807633.2       4.1829562      34.462464      25.852162      136.81443    
-807654.75      3.160272       34.718273      25.773076      136.35516    
-807648.6       4.6716714      37.138602      25.822272      135.89529    
-807646.95      3.7764183      35.415153      25.890321      135.43431    
-807640.1       4.5143076      34.452039      25.845652      134.97547    
-807629.81      3.3474879      34.256801      25.862257      134.517      
-807600.89      3.529361       37.54921       25.851592      134.05965    
-807597.44      3.6012879      38.100186      25.86094       133.60284    
-807618.07      3.5891258      35.226754      25.870991      133.14656    
-807642.28      3.5243851      34.472553      25.843833      132.6918     
-807642.98      3.6920392      35.964252      25.888018      132.23661    
-807650.13      3.9227156      35.650784      25.856821      131.78303    
-807650.1       3.0496249      35.659361      25.880306      131.32957    
-807642.43      3.4509108      34.056701      25.86186       130.87733    
-807616.98      3.2865138      35.377102      25.86336       130.42578    
-807599.36      3.2108077      37.986449      25.882154      129.97445    
-807606.82      3.8683961      37.960216      25.823911      129.52532    
-807622.13      3.3175613      35.882635      25.856406      129.07603    
-807631.69      3.8127441      34.908758      25.861711      128.62728    
-807643.28      3.3826874      36.190336      25.891702      128.17844    
-807655.6       3.5570562      35.322839      25.863094      127.73098    
-807648.58      4.0492224      35.787302      25.849096      127.28451    
-807632.49      4.0907206      34.93701       25.871529      126.83811    
-807615.36      3.5253044      35.65273       25.896052      126.39176    
-807610.22      3.447731       37.864001      25.869201      125.94667    
-807605.87      3.5896358      37.762605      25.823264      125.50328    
-807617.03      2.6512566      35.751696      25.85761       125.05966    
-807634.08      4.436957       35.123359      25.855906      124.61666    
-807650.32      3.5804912      35.552413      25.849175      124.1744     
-807650.96      3.9072959      35.486372      25.842079      123.73286    
-807641.43      4.0296022      36.101047      25.86379       123.29137    
-807631.29      4.1346473      35.273283      25.836744      122.85105    
-807622.44      4.7608226      36.901202      25.894732      122.40996    
-807606.73      4.3669413      38.2381        25.862524      121.97013    
-807605.07      4.3000444      37.940193      25.875942      121.53054    
-807618.41      3.901176       35.649216      25.916658      121.09057    
-807642.55      4.0919572      34.720974      25.889488      120.65173    
-807647.47      2.7671261      34.901033      25.851102      120.21423    
-807645.55      3.9648604      36.03899       25.879043      119.77662    
-807642.82      3.8352286      34.846329      25.852423      119.34007    
-807636.11      3.4002951      34.115958      25.859525      118.90384    
-807619.07      3.9835865      35.649302      25.844546      118.46841    
-807603.04      3.3298468      37.504697      25.881649      118.03267    
-807608.17      3.5706         37.670367      25.894226      117.59714    
-807627.16      3.5119611      35.841787      25.877757      117.16241    
-807639.98      3.3395019      35.337299      25.894146      116.7278     
-807642.29      4.0496223      36.958135      25.889478      116.29374    
-807649.46      4.4822477      35.455998      25.851443      115.86088    
-807646.79      3.4785625      34.293136      25.824335      115.42897    
-807632         4.4486979      34.798235      25.880115      114.9964     
-807609.95      3.2392048      36.256539      25.872524      114.56439    
-807606.81      3.3758112      37.234762      25.857993      114.13307    
-807613.85      3.4987439      36.293529      25.853324      113.70225    
-807626.79      2.7984221      35.180985      25.860604      113.27169    
-807634.27      3.8171433      35.616573      25.846305      112.8418     
-807650.83      3.0547835      34.044449      25.850706      112.4122     
-807649.62      3.3066203      35.915845      25.797488      111.98398    
-807643.87      2.7244478      34.206032      25.782892      111.55638    
-807624.28      4.0432528      35.343599      25.841071      111.12807    
-807616.05      3.2917717      35.736061      25.88265       110.69938    
-807608.79      3.7446686      37.368373      25.870828      110.27128    
-807612.32      3.5432386      36.849297      25.864243      109.84365    
-807622.73      3.4377396      35.375005      25.876321      109.41617    
-807641.53      3.3868592      35.20418       25.874526      108.98907    
-807650.19      5.0171636      36.132326      25.828961      108.56311    
-807647.3       3.3485365      35.676412      25.790694      108.13814    
-807637.39      3.9710452      35.271531      25.842508      107.71261    
-807627.81      2.9353516      35.139149      25.88989       107.28661    
-807617.37      3.3571318      35.453519      25.849478      106.86162    
-807604.82      3.2990087      37.042677      25.851774      106.43691    
-807610.6       3.3852502      35.947538      25.806848      106.01326    
-807630.73      3.3978116      34.747616      25.883324      105.58867    
-807644.08      3.6222413      34.837562      25.864696      105.16469    
-807644.49      3.5479295      36.677547      25.849968      104.74126    
-807644.38      2.6863517      36.053729      25.834152      104.31839    
-807638.96      4.5372241      35.951688      25.839854      103.89572    
-807630.27      3.0731974      34.972675      25.841048      103.47333    
-807609.52      4.0225313      36.603919      25.844952      103.05116    
-807605.68      3.7458734      37.452434      25.817467      102.6297     
-807615.62      3.8058297      36.21176       25.827209      102.20837    
-807634.72      2.9787895      34.811319      25.829133      101.78729    
-807639.94      3.7190412      35.050107      25.859105      101.36603    
-807644.28      2.8631642      35.539371      25.84338       100.94528    
-807647.15      3.6843482      34.638708      25.825895      100.52505    
-807640.47      4.2143482      33.988736      25.846394      100.10479    
-807621.52      3.0820207      34.863391      25.850318      99.684737    
-807609.81      3.2951047      36.579069      25.854104      99.264887    
-807610.65      3.1558425      37.037051      25.838884      98.845517    
-807618.54      3.1069651      35.954096      25.81083       98.426799    
-807630.38      3.4438807      34.023525      25.858826      98.007646    
-807639.28      3.5734917      35.481236      25.866804      97.588632    
-807649.4       3.368142       35.515505      25.84041       97.170236    
-807645.29      4.9156377      36.077318      25.859446      96.751818    
-807634.74      3.3817588      34.203032      25.836992      96.333951    
-807620.21      3.6338424      35.807664      25.853124      95.9161      
-807614.5       3.5184708      36.914728      25.829866      95.498799    
-807609.85      3.3508763      37.876244      25.820475      95.081852    
-807615.84      4.9160584      36.609907      25.860325      94.6646      
-807629.29      3.5700863      35.064415      25.829162      94.247988    
-807645.81      3.3121421      34.654359      25.812864      93.83181     
-807647.05      2.7550076      35.042682      25.811887      93.41586     
-807641.29      4.5646345      35.536412      25.838522      92.999778    
-807632.31      3.0974472      35.563506      25.858545      92.583657    
-807625.4       3.0070542      35.878891      25.83564       92.168042    
-807611         3.464764       37.042211      25.829353      91.752717    
-807607.77      3.5252351      36.943949      25.814712      91.33778     
-807617.92      3.1290955      36.116876      25.885215      90.922174    
-807638.29      2.7604247      34.555295      25.843358      90.507293    
-807644.23      3.1484079      34.93644       25.847454      90.092564    
-807644.75      3.6487765      35.80596       25.848779      89.678022    
-807643         3.4793423      34.614146      25.844323      89.263731    
-807636.51      4.089697       35.54101       25.837085      88.849722    
-807620.09      3.6237922      35.731775      25.795044      88.436401    
-807607.02      4.3419019      37.465914      25.835584      88.022789    
-807611.02      4.3645239      36.715229      25.865146      87.609023    
-807625.45      3.2762409      35.196407      25.843381      87.195699    
-807637.56      3.4370532      33.981187      25.82427       86.782778    
-807642.44      3.3806831      34.601431      25.825859      86.37002     
-807647.95      2.7415081      34.406702      25.860577      85.957051    
-807644.69      3.4727729      34.491351      25.831739      85.544586    
-807633.38      2.7111985      34.7355        25.827131      85.132347    
-807614.83      3.667964       35.788611      25.849932      84.720033    
-807612.28      3.0214798      36.56626       25.837379      84.30803     
-807614.91      3.6902254      36.953506      25.822389      83.89636     
-807626.14      3.2739081      34.884113      25.837146      83.4847      
-807633.87      3.6912518      34.782797      25.887499      83.072676    
-807647.25      3.0475009      33.967268      25.865935      82.661053    
-807648.65      3.5817634      34.431458      25.83433       82.249928    
-807642.51      3.8359732      34.761412      25.818808      81.839126    
-807626.7       3.0476145      34.659556      25.834759      81.428319    
-807620.14      4.5744872      35.73565       25.829796      81.017721    
-807612.77      2.9645769      35.831418      25.832135      80.607257    
-807614.79      4.4829603      36.37692       25.836596      80.196904    
-807624.02      3.253518       34.065329      25.856084      79.786512    
-807638.86      3.7765326      35.078522      25.845233      79.376384    
-807647.8       4.0848704      34.559807      25.821784      78.966637    
-807646.26      3.0537298      34.815845      25.810086      78.557152    
-807636.34      5.7892583      35.082412      25.851197      78.147417    
-807630.59      2.9689141      33.987047      25.824815      77.738082    
-807618.19      3.1209886      35.171993      25.810682      77.329024    
-807608.17      3.4850731      37.118667      25.845653      76.91978     
-807611.31      3.3939843      36.27722       25.885585      76.510312    
-807629.28      3.855277       35.068929      25.856178      76.101263    
-807640.88      3.1714626      35.460258      25.856855      75.69235     
-807645.13      3.8517551      35.828257      25.85467       75.2836      
-807639.83      3.7548083      36.72514       25.816062      74.875335    
-807639.26      3.8040606      35.375734      25.811515      74.467244    
-807628.35      3.3770414      35.983016      25.818315      74.059225    
-807609.34      3.1476099      36.971585      25.838494      73.651159    
-807606.31      3.6322061      37.097161      25.846563      73.243158    
-807618.15      3.1360809      36.093395      25.863244      72.835146    
-807631.87      3.0265793      35.335589      25.817877      72.427654    
-807636.27      3.9062065      35.982566      25.868052      72.019864    
-807644.2       3.1615164      35.017655      25.826511      71.612555    
-807643.56      3.6344398      35.542575      25.845331      71.205213    
-807638.4       3.7108488      34.700467      25.781853      70.798521    
-807620.7       2.9689972      35.250604      25.863721      70.391277    
-807612.52      2.8947195      35.711279      25.837062      69.984376    
-807611.01      3.4675554      37.002905      25.78645       69.578001    
-807621.99      3.3617722      34.765773      25.801538      69.17162     
-807625.14      3.7402076      36.099779      25.859979      68.764895    
-807639.12      3.8519782      35.628176      25.820876      68.358596    
-807646.19      3.7380037      35.747148      25.805537      67.95253     
-807644.97      3.9554307      34.598085      25.765926      67.546881    
-807631.64      3.9961014      35.527057      25.78795       67.14117     
-807623.07      3.563434       35.644376      25.832396      66.735232    
-807614.5       3.6083902      37.486039      25.844305      66.329318    
-807613.82      3.1735442      36.979525      25.85607       65.92343     
-807617.33      3.5111457      35.71837       25.850389      65.517698    
-807628.71      3.8530967      35.758112      25.846535      65.112106    
-807644.42      3.2755079      34.081664      25.837869      64.706687    
-807646.1       3.140412       34.83422       25.818873      64.301511    
-807641.62      4.1411338      34.77341       25.813725      63.896477    
-807632.75      3.2128144      35.104232      25.848266      63.491305    
-807625.93      3.1378436      35.056036      25.825714      63.086396    
-807614.22      3.1308281      36.030494      25.838475      62.681503    
-807611.44      3.5604077      36.670517      25.859456      62.276571    
-807619.2       2.9672747      34.925263      25.867019      61.871694    
-807636.08      3.6482501      34.371143      25.858242      61.466981    
-807641.83      3.023577       34.623337      25.863384      61.062338    
-807644.15      3.3194832      34.392113      25.855879      60.657848    
-807639.95      3.0646009      35.248199      25.857186      60.25345     
-807638.21      3.2423909      34.301174      25.839697      59.849266    
-807620.99      3.3699479      34.986445      25.810496      59.445365    
-807612.14      3.0915082      36.232585      25.871679      59.041173    
-807611.8       2.965685       35.74117       25.872712      58.637075    
-807626.22      3.10915        34.592074      25.844757      58.233248    
-807632.45      3.6330689      33.570813      25.834899      57.829576    
-807641.1       2.9840317      34.128655      25.862464      57.425831    
-807643.99      3.5444954      34.999445      25.83201       57.022365    
-807644.23      3.2774429      35.019366      25.815606      56.619087    
-807631.41      3.6266503      34.681012      25.806579      56.215951    
-807619.21      3.3107311      35.449776      25.869651      55.812535    
-807613.1       3.5720589      36.393029      25.867323      55.409226    
-807617.9       3.6544709      36.670835      25.845751      55.006132    
-807621.87      2.9885233      34.944974      25.841091      54.603153    
-807632.02      2.8995022      34.227673      25.852392      54.200199    
-807642.33      2.9500932      34.174113      25.825063      53.797485    
-807645.58      3.2232841      34.625766      25.828356      53.394837    
-807640.63      3.4494503      34.337117      25.83105       52.99226     
-807628.02      3.4305363      35.174899      25.825067      52.589798    
-807620.36      3.3913096      35.644316      25.836326      52.187359    
-807616.18      3.2000476      36.108642      25.82667       51.785054    
-807614.88      2.9296771      36.738152      25.829731      51.382815    
-807619.08      3.5865242      37.223378      25.848201      50.980561    
-807636.33      4.4051459      35.401379      25.80977       50.578586    
-807641.33      3.5596352      35.836414      25.839604      50.176538    
-807641.32      3.1783042      36.028986      25.861245      49.774463    
-807634.89      3.8486671      35.357743      25.872306      49.372414    
-807633.27      2.8159125      33.812764      25.865828      48.97048     
-807619.61      2.8657192      35.317627      25.894578      48.568488    
-807615.6       2.9848998      36.158431      25.888333      48.16661     
-807612.1       2.9565098      36.861042      25.896208      47.764776    
-807629.29      2.7560343      35.423042      25.872502      47.363135    
-807635.53      3.4692792      35.164066      25.871595      46.961578    
-807639.31      4.2806547      35.100692      25.838918      46.560249    
-807637.32      4.6937261      36.285812      25.840546      46.158986    
-807638.94      2.9723651      35.096576      25.838298      45.757808    
-807628.35      3.3256829      34.933275      25.843605      45.35668     
-807618.15      3.3352444      35.836347      25.853834      44.95558     
-807612.76      3.2028342      35.363642      25.860231      44.554527    
-807620.5       3.9145723      35.448354      25.837874      44.153642    
-807628.54      4.1337277      35.374526      25.839967      43.752821    
-807633.14      2.9046866      35.04337       25.829158      43.352115    
-807640.97      4.1854248      35.13367       25.857317      42.951361    
-807641.38      3.5669759      35.452084      25.856346      42.550683    
-807637.09      3.0359472      34.539692      25.830099      42.150182    
-807623.99      3.3046219      35.933433      25.854693      41.74965     
-807617.56      2.9105866      35.984087      25.860241      41.349166    
-807614.34      3.3606672      36.516013      25.836578      40.948844    
-807621.8       2.9233188      35.733237      25.82069       40.548649    
-807624.89      3.4576388      35.566482      25.80151       40.148591    
-807634.56      3.1009204      35.440614      25.799581      39.748604    
-807640.79      3.6085571      35.780173      25.820736      39.348599    
-807642.82      3.8753108      35.507177      25.79366       38.948757    
-807631.22      3.9953321      36.595609      25.872488      38.548691    
-807623.6       3.713373       36.846291      25.858237      38.148743    
-807618.63      2.8785857      36.502077      25.849918      37.748889    
-807618.49      3.1090351      36.432105      25.889451      37.348963    
-807618.37      3.212576       35.286572      25.895487      36.949083    
-807627         2.9350865      35.127614      25.884439      36.549307    
-807637.88      2.790051       34.306662      25.864646      36.149664    
-807643.16      2.7328237      34.629458      25.865903      35.750079    
-807637.24      3.9071835      34.283701      25.854684      35.350594    
-807633.66      3.308867       34.037372      25.918873      34.950966    
-807626.12      3.6747759      35.192331      25.859139      34.551592    
-807619.37      3.0803498      35.552916      25.886849      34.152194    
-807616.47      3.4579692      35.641337      25.865622      33.752924    
-807620.81      3.0302646      35.700159      25.848933      33.353765    
-807632.32      2.9614531      34.24029       25.861572      32.954627    
-807637.29      3.8849228      34.920419      25.837221      32.555621    
-807640.16      3.148525       34.426877      25.83193       32.156687    
-807636.83      3.1730111      34.97097       25.850235      31.757757    
-807633.6       3.4139563      34.328916      25.818999      31.358972    
-807625.69      3.3434683      34.053738      25.855594      30.960141    
-807619.35      3.1667873      34.287305      25.871694      30.561322    
-807615.96      3.7407777      34.926806      25.866277      30.162576    
-807626         2.7649977      34.318598      25.859172      29.763906    
-807631.69      3.8623996      34.172996      25.901977      29.365182    
-807637.89      2.7955544      33.554464      25.884375      28.966561    
-807642.36      3.2078184      33.025163      25.872205      28.568028    
-807640.38      2.6482816      32.821244      25.882836      28.169525    
-807631.79      3.1338325      33.608367      25.873954      27.7711      
-807624.95      2.8535717      33.558748      25.853981      27.372779    
-807618.27      3.0063394      34.243132      25.857044      26.974503    
-807620.14      2.9041965      34.498873      25.862443      26.576268    
-807623.19      2.6257301      34.250487      25.844998      26.178127    
-807631.57      2.6195005      33.937903      25.850462      25.780024    
-807637.41      3.5068064      34.160723      25.85674       25.38196     
-807641.5       3.0689444      34.01522       25.865344      24.983929    
-807638.74      3.2569912      34.132134      25.897081      24.585882    
-807632         4.1455817      33.724829      25.912055      24.187859    
-807623.33      3.4435729      34.343921      25.880347      23.789956    
-807619.27      3.4366954      35.307312      25.877723      23.39211     
-807619.32      2.6996158      34.711059      25.83976       22.99439     
-807624.1       3.3209688      34.292084      25.847326      22.596704    
-807631.08      3.3281233      34.594342      25.860687      22.199041    
-807638.42      3.5586601      34.78284       25.893311      21.801368    
-807639.93      2.8464637      34.386402      25.855298      21.403814    
-807635.28      3.965374       34.52894       25.825307      21.006363    
-807629.64      3.0557335      34.21101       25.825982      20.608955    
-807622.15      3.7090199      35.493457      25.854443      20.211545    
-807617.79      3.2516427      36.470693      25.874197      19.814149    
-807616.38      3.4062791      36.235493      25.829994      19.416874    
-807624.64      3.101176       34.999533      25.89178       19.019545    
-807633.03      3.4225904      34.969951      25.886659      18.622273    
-807638.95      2.6002524      34.073763      25.853019      18.2251      
-807634.9       3.8893871      35.320686      25.844307      17.827986    
-807634.42      3.8951725      34.407853      25.804568      17.430974    
-807628.87      2.9836587      34.424918      25.83389       17.033962    
-807621.31      2.951279       34.893014      25.8707        16.636943    
-807615.02      3.8145742      35.887775      25.881021      16.239956    
-807619.03      3.002334       36.418759      25.861308      15.84304     
-807627.38      3.4519161      35.937235      25.872332      15.446155    
-807632.72      3.6765809      35.938575      25.882522      15.049303    
-807634.95      3.6152147      36.697806      25.87092       14.652509    
-807636.94      3.6220484      35.532809      25.862686      14.255769    
-807633.41      3.062459       36.374723      25.837055      13.859102    
-807625.78      3.3604351      36.192323      25.845534      13.462467    
-807618.88      3.1412309      35.950936      25.894201      13.065821    
-807618.48      3.7832755      35.4874        25.887202      12.669228    
-807623.1       3.0693714      35.012995      25.860589      12.272705    
-807625.92      3.231569       35.880271      25.859033      11.876225    
-807634.02      3.2040548      34.656292      25.850457      11.479795    
-807637.82      3.7985825      35.215668      25.844372      11.083411    
-807638.86      3.3668465      34.635624      25.813486      10.687093    
-807631.65      3.7331591      35.656097      25.805153      10.290819    
-807626.93      3.0098706      33.771823      25.835932      9.8945582    
-807619.34      3.236232       35.702318      25.817512      9.4983499    
-807621.38      3.413957       35.112383      25.853981      9.1021525    
-807622.05      2.9447838      35.501415      25.787711      8.7060402    
-807627.71      2.9265173      34.502245      25.848497      8.3099227    
-807634.93      2.9477477      34.779393      25.809614      7.913868     
-807640.19      3.0941816      34.806072      25.806191      7.5178511    
-807638.45      2.9927799      34.431916      25.813816      7.1218652    
-807629.6       3.4161046      35.11813       25.817917      6.7259128    
-807626.49      3.1250707      34.80126       25.867101      6.3299717    
-807621.19      4.5675169      36.173633      25.829258      5.9340867    
-807621.36      3.4892255      34.749419      25.85153       5.5382279    
-807620.91      3.5113278      35.543599      25.869424      5.1423991    
-807631.31      2.7329403      34.6482        25.853113      4.7466144    
-807638.28      2.9843394      34.628302      25.848483      4.3508679    
-807639.61      2.7567079      33.840569      25.854714      3.9551557    
-807633.9       3.6827645      34.492083      25.819216      3.5594897    
-807632.01      3.5732671      34.425088      25.859682      3.1638478    
-807625.96      4.3967966      35.247897      25.896875      2.7682343    
-807618.2       3.2057664      35.774613      25.868947      2.3726642    
-807616.74      4.1064078      35.782475      25.871121      1.9771301    
-807626.15      2.8500854      34.274161      25.822438      1.5816383    
-807633.91      3.4590464      33.928973      25.863616      1.1861758    
-807636.02      2.902852       34.208461      25.836929      0.79075032   
-807635.85      3.7966765      35.140242      25.921541      0.39535593   
-807636.74      3.2663174      34.415813      25.905159      0            
Loop time of 197.669 on 32 procs for 5000 steps with 1080 atoms

Performance: 4.371 ns/day, 5.491 hours/ns, 25.295 timesteps/s, 27.318 katom-step/s
67.4% CPU use with 32 MPI tasks x 1 OpenMP threads

MPI task timing breakdown:
Section |  min time  |  avg time  |  max time  |%varavg| %total
---------------------------------------------------------------
Pair    | 101.72     | 144.6      | 193.45     | 313.5 | 73.15
Neigh   | 0          | 0          | 0          |   0.0 |  0.00
Comm    | 1.9615     | 50.808     | 93.694     | 528.8 | 25.70
Output  | 0.025884   | 0.026641   | 0.028371   |   0.2 |  0.01
Modify  | 1.9033     | 1.9164     | 1.9291     |   0.4 |  0.97
Other   |            | 0.3143     |            |       |  0.16

Nlocal:          33.75 ave          48 max          21 min
Histogram: 8 8 0 0 0 0 0 8 0 8
Nghost:        1106.25 ave        1119 max        1092 min
Histogram: 8 0 8 0 0 0 0 0 8 8
Neighs:              0 ave           0 max           0 min
Histogram: 32 0 0 0 0 0 0 0 0 0
FullNghs:       5494.5 ave        7896 max        3378 min
Histogram: 8 8 0 0 0 0 0 8 0 8

Total # of neighbors = 175824
Ave neighs/atom = 162.8
Neighbor list builds = 0
Dangerous builds = 0

reset_timestep 0


variable interval equal 1000
thermo 10

variable nintervals equal $(v_PERIOD/v_interval)
variable nintervals equal 100
variable efield equal 1e-2*36.36*cos((step/${PERIOD})*2*3.14)
variable efield equal 1e-2*36.36*cos((step/100000)*2*3.14)
fix born all addbornforce 0.0 0.0 v_efield

variable Px equal f_born[1]+c_polarization[1]
variable Py equal f_born[2]+c_polarization[2]
variable Pz equal (f_born[3]+c_polarization[3])/vol
variable pe equal pe

fix aveP all ave/time 1 $(v_interval/2) ${interval} v_efield v_Pz v_pe f_born file Pz.${MODEL}.${STRUCTURE}.${TEMP}.$L.${ITER}
fix aveP all ave/time 1 500 ${interval} v_efield v_Pz v_pe f_born file Pz.${MODEL}.${STRUCTURE}.${TEMP}.$L.${ITER}
fix aveP all ave/time 1 500 1000 v_efield v_Pz v_pe f_born file Pz.${MODEL}.${STRUCTURE}.${TEMP}.$L.${ITER}
fix aveP all ave/time 1 500 1000 v_efield v_Pz v_pe f_born file Pz.BaTiO3-E0.${STRUCTURE}.${TEMP}.$L.${ITER}
fix aveP all ave/time 1 500 1000 v_efield v_Pz v_pe f_born file Pz.BaTiO3-E0.BaTiO3-sc333.${TEMP}.$L.${ITER}
fix aveP all ave/time 1 500 1000 v_efield v_Pz v_pe f_born file Pz.BaTiO3-E0.BaTiO3-sc333.320.$L.${ITER}
fix aveP all ave/time 1 500 1000 v_efield v_Pz v_pe f_born file Pz.BaTiO3-E0.BaTiO3-sc333.320.2.${ITER}
fix aveP all ave/time 1 500 1000 v_efield v_Pz v_pe f_born file Pz.BaTiO3-E0.BaTiO3-sc333.320.2.3

thermo_style custom step time temp press pe f_born v_efield v_Pz spcpu cpuremain

# dump 4a all custom 1000 dump.hyst.${MODEL}.${STRUCTURE}.${TEMP}.$L.${ITER}.bin id type xu yu zu fx fy fz
# dump_modify 4a sort id

fix nvt all nvt temp ${TEMP} ${TEMP} $(100*dt)
fix nvt all nvt temp 320 ${TEMP} $(100*dt)
fix nvt all nvt temp 320 320 $(100*dt)
fix nvt all nvt temp 320 320 0.2000000000000000111

run $(v_PERIOD)
run 100000
WARNING: non-constant efield is experimental, strongly distrust scalar/vector output (src/fix_addbornforce.cpp:193)
Per MPI rank memory allocation (min/avg/max) = 3.516 | 3.516 | 3.516 Mbytes
   Step          Time           Temp          Press          PotEng         f_born        v_efield         v_Pz          S/CPU         CPULeft    
         0   0              316.78009      128150.73     -807636.74     -295.18972      0.3636         0.055516857    0              0            
        10   0.02           319.88333      133828.97     -807631.93     -300.51902      0.36359993     0.056519159    25.311105      3950.463     
        20   0.04           326.34706      139390.84     -807622.45     -310.93299      0.36359971     0.058477767    25.305562      3950.4893    
        30   0.06           325.56509      142607.9      -807619.24     -314.06043      0.36359935     0.059066009    25.257833      3952.7214    
        40   0.08           326.68638      140919.25     -807622.52     -310.90976      0.36359885     0.058473538    25.29049       3952.3628    
        50   0.1            320.989        136975.65     -807627.09     -305.55333      0.36359821     0.057466244    25.24954       3953.2717    
        60   0.12           331.43515      131708.54     -807633.05     -301.06411      0.36359742     0.056622065    25.75524       3940.7927    
        70   0.14           299.46295      127646.83     -807633.65     -296.01682      0.36359649     0.055672949    25.961712      3927.3599    
        80   0.16           312.75814      126893.59     -807639.47     -292.0282       0.36359541     0.054922957    25.900295      3918.3299    
        90   0.18           309.40711      130497.93     -807635.68     -295.37796      0.36359419     0.055553148    25.880282      3911.5523    
       100   0.2            322.10703      135573.18     -807627.32     -305.60073      0.36359283     0.057476008    25.889996      3905.9081    
       110   0.22           327.97481      139802.94     -807622.08     -311.65068      0.36359132     0.058614097    25.945421      3900.4705    
       120   0.24           320.29379      141550.39     -807621.15     -311.49357      0.36358968     0.058584816    25.957538      3895.7251    
       130   0.26           312.53892      140590.66     -807621.56     -309.96009      0.36358788     0.058296691    25.92102       3892.068     
       140   0.28           326.92252      136330.1      -807625.78     -307.79838      0.36358595     0.057890429    25.906884      3889.0277    
       150   0.3            322.68779      130768.63     -807632.94     -299.92871      0.36358387     0.056410631    25.895302      3886.4565    
       160   0.32           310.14434      127270.03     -807638.36     -292.67536      0.36358165     0.055046757    25.878041      3884.3191    
       170   0.34           311.37056      127387.6      -807638        -293.16399      0.36357928     0.055139017    25.898889      3882.2051    
       180   0.36           323.00087      130139.61     -807633.27     -299.5504       0.36357677     0.056340577    25.915981      3880.1419    
       190   0.38           330.88206      135999.78     -807627.62     -306.22562      0.36357412     0.057596498    25.915821      3878.2564    
       200   0.4            324.84725      139532.14     -807623.7      -309.26293      0.36357132     0.058168218    25.918411      3876.5017    
       210   0.42           315.72668      142101.62     -807620.05     -311.58079      0.36356838     0.05860465     25.955745      3874.6136    
       220   0.44           318.55101      139861.87     -807620.62     -311.34873      0.3635653      0.0585615      25.977572      3872.7153    
       230   0.46           327.97849      135825.42     -807627.4      -305.72024      0.36356207     0.057503348    25.97769       3870.9481    
       240   0.48           323.46814      129178.12     -807635.74     -296.59658      0.3635587      0.055787785    25.907409      3869.7298    
       250   0.5            315.4174       127646.79     -807637.53     -293.49341      0.36355519     0.055204633    25.903356      3868.6023    
       260   0.52           315.60927      126820.06     -807635.78     -295.23344      0.36355153     0.055532482    25.8612        3867.7732    
       270   0.54           329.19044      131282.89     -807632.38     -300.38573      0.36354773     0.056502201    25.836425      3867.1139    
       280   0.56           322.67827      136210.66     -807627.63     -304.13157      0.36354379     0.057207411    25.849747      3866.403     
       290   0.58           319.38794      140997.21     -807620.41     -310.72114      0.3635397      0.058447572    25.873336      3865.5932    
       300   0.6            314.558        142553.14     -807617.49     -312.90761      0.36353547     0.058859539    25.87393       3864.8086    
       310   0.62           324.00016      140680.98     -807621.05     -310.53878      0.3635311      0.058414652    25.861251      3864.1107    
       320   0.64           338.18786      133274.3      -807630.37     -302.9976       0.36352658     0.056996808    25.892543      3863.2867    
       330   0.66           326.33194      130769.31     -807634.4      -297.12682      0.36352192     0.055893173    25.907296      3862.4228    
       340   0.68           319.10242      127910.44     -807636.03     -294.46912      0.36351712     0.055393959    25.907671      3861.5852    
       350   0.7            327.19249      128619.61     -807635.58     -295.87001      0.36351217     0.055658245    25.896631      3860.8204    
       360   0.72           332.24643      130290.74     -807633.91     -298.14615      0.36350708     0.056087211    25.932409      3859.9292    
       370   0.74           332.01758      136958.91     -807626.53     -305.48503      0.36350185     0.057468629    25.978915      3858.8794    
       380   0.76           322.22562      140414.53     -807619.01     -311.64008      0.36349647     0.058627399    26.049494      3857.5912    
       390   0.78           320.55484      142451.09     -807617.78     -312.53298      0.36349095     0.05879627     25.990652      3856.5715    
       400   0.8            331.40504      138495.56     -807624.34     -307.48195      0.36348529     0.05784693     25.949173      3855.7365    
       410   0.82           330.27071      135018.5      -807628.3      -303.22331      0.36347948     0.057046657    25.950739      3854.9177    
       420   0.84           321.16513      129341.64     -807632.84     -297.54566      0.36347353     0.055979414    25.907779      3854.2712    
       430   0.86           317.69453      129135.8      -807635.6      -294.22259      0.36346744     0.055355149    25.862896      3853.7919    
       440   0.88           319.50244      127698.05     -807636.33     -293.86277      0.3634612      0.0552884      25.875824      3853.2731    
       450   0.9            327.82046      132574.52     -807630.62     -300.79896      0.36345482     0.056594394    25.912177      3852.6403    
       460   0.92           319.06702      137392.19     -807623.47     -306.91168      0.3634483      0.05774552     25.927455      3851.9689    
       470   0.94           330.41149      140745.02     -807620.76     -311.24553      0.36344163     0.05856201     25.908946      3851.368     
       480   0.96           321.60825      140559.64     -807620.37     -310.60667      0.36343482     0.058442901    25.907418      3850.7808    
       490   0.98           327.27051      138059.23     -807623.64     -308.30926      0.36342786     0.058011737    25.912313      3850.1872    
       500   1              331.12371      133527.34     -807629.4      -303.25608      0.36342077     0.057062039    25.914297      3849.5958    
       510   1.02           314.54587      129972.01     -807633.9      -9493.6916      0.36341353     0.055825365    25.800336      3849.345     
       520   1.04           320.73349      127742.91     -807637.53     -9411.3255      0.36340614     0.055342155    25.817791      3849.0388    
       530   1.06           313.91395      129054.32     -807634.57     -9485.1001      0.36339862     0.055777133    25.848884      3848.6421    
       540   1.08           318.26397      133069.48     -807630.06     -9659.143       0.36339095     0.056801791    25.887183      3848.1404    
       550   1.1            322.19215      137203.2      -807625.11     -9841.3892      0.36338313     0.057874757    25.869353      3847.691     
       560   1.12           326.91024      140298.42     -807623.7      -9916.5595      0.36337518     0.058318092    25.851549      3847.2912    
       570   1.14           306.80892      140641.38     -807620.81     -9929.2807      0.36336707     0.058394206    25.834561      3846.9362    
       580   1.16           329.0811       137786.42     -807626.56     -9848.5688      0.36335883     0.057920852    25.837913      3846.5714    
       590   1.18           309.25937      132718.3      -807630.64     -9638.3822      0.36335044     0.056686023    25.827952      3846.231     
       600   1.2            317.64459      129063.11     -807636.83     -9479.6016      0.36334191     0.055753499    25.836411      3845.8681    
       610   1.22           301.88851      127574.59     -807636.98     -9410.4845      0.36333324     0.055348313    25.844493      3845.4847    
       620   1.24           311.78118      130106.52     -807634.67     -9531.5003      0.36332442     0.056061435    25.81672       3845.1679    
       630   1.26           307.18667      133056.37     -807629.66     -9675.1527      0.36331546     0.056907759    25.849542      3844.7713    
       640   1.28           315.73157      138818.69     -807625.13     -9859.7277      0.36330636     0.057994854    25.870503      3844.3263    
       650   1.3            301.62793      140198.42     -807620.61     -9944.5191      0.36329711     0.058495085    25.924708      3843.7595    
       660   1.32           313.20556      140154.91     -807621.62     -9961.8351      0.36328772     0.058598455    25.897371      3843.2596    
       670   1.34           314.83116      135646.85     -807627.46     -9784.4264      0.36327819     0.057556395    25.874486      3842.8137    
       680   1.36           320.10844      132280.83     -807633.07     -9623.3345      0.36326851     0.056610288    25.86163       3842.3975    
       690   1.38           308.29882      128038.52     -807636.79     -9451.6959      0.36325869     0.055602109    25.84238       3842.0237    
       700   1.4            305.59001      128701.65     -807635.77     -9469.0717      0.36324873     0.055705854    25.85773       3841.617     
       710   1.42           309.02417      129734.11     -807634.06     -9536.9797      0.36323863     0.056106913    25.860042      3841.2059    
       720   1.44           313.58304      134635.29     -807629.38     -9704.1313      0.36322838     0.057091892    25.829024      3840.8596    
       730   1.46           320.01223      137422.83     -807625.84     -9844.9934      0.36321798     0.057922277    25.821301      3840.5279    
       740   1.48           319.73024      140675.04     -807621.83     -9966.6246      0.36320745     0.058639586    25.791213      3840.2553    
       750   1.5            318.38298      139274.18     -807623.18     -9915.1307      0.36319677     0.058338332    25.783415      3839.9952    
       760   1.52           323.12119      135144.25     -807628.8      -9749.1698      0.36318595     0.057363566    25.768844      3839.7603    
       770   1.54           320.33984      131132.87     -807633.86     -9570.5831      0.36317498     0.056314472    25.735052      3839.5871    
       780   1.56           311.94783      128236.1      -807635.6      -9473.9051      0.36316387     0.055747312    25.739563      3839.3997    
       790   1.58           310.35701      128716.6      -807635.24     -9473.6009      0.36315262     0.055747249    25.720827      3839.2428    
       800   1.6            309.44105      131439.04     -807632.91     -9539.6187      0.36314122     0.056137492    25.780244      3838.969     
       810   1.62           321.3603       135273.76     -807628.01     -9745.2471      0.36312968     0.057349369    25.800549      3838.6549    
       820   1.64           328.48258      138785.44     -807623.58     -9915.1769      0.363118       0.058351258    25.822857      3838.2986    
       830   1.66           315.6617       140896.86     -807620.09     -9964.5519      0.36310618     0.058643742    25.848604      3837.8955    
       840   1.68           317.48703      138520.8      -807623.82     -9849.1826      0.36309421     0.057966677    25.855839      3837.4799    
       850   1.7            319.52668      135510.53     -807628.4      -9706.0931      0.3630821      0.05712644     25.884117      3837.0158    
       860   1.72           317.84446      130074.72     -807632.3      -9572.0747      0.36306984     0.056339559    25.906958      3836.5141    
       870   1.74           312.85692      129331.37     -807634.98     -9459.3982      0.36305745     0.055678266    25.879032      3836.0626    
       880   1.76           316.4053       128444.76     -807636.76     -9415.371       0.3630449      0.055421035    25.84915       3835.663     
       890   1.78           329.71913      132261.28     -807633.2      -9585.4591      0.36303222     0.056424184    25.869339      3835.2299    
       900   1.8            319.48643      135454.14     -807625.78     -9779.0574      0.36301939     0.057565822    25.862723      3834.8088    
       910   1.82           325.79588      140328.06     -807622.06     -9922.3699      0.36300642     0.058411538    25.887707      3834.3478    
       920   1.84           325.19497      139185.83     -807623.41     -9876.7053      0.36299331     0.058144818    25.844525      3833.9579    
       930   1.86           324.04871      138752.82     -807623.37     -9871.0591      0.36298005     0.058113701    25.832558      3833.5872    
       940   1.88           323.76442      133663.28     -807628.99     -9692.0092      0.36296665     0.05706169     25.837392      3833.2086    
       950   1.9            321.73971      130620.11     -807633.24     -9542.4417      0.36295311     0.056183208    25.828657      3832.8434    
       960   1.92           316.88392      127487.11     -807637.69     -9379.0705      0.36293942     0.055223407    25.849954      3832.4448    
       970   1.94           319.6191       130162.67     -807635.45     -9462.477       0.36292559     0.055716622    25.83998       3832.0617    
       980   1.96           328.54144      132056.8      -807631.22     -9638.2531      0.36291162     0.056753806    25.827227      3831.6978    
       990   1.98           321.35509      136728.53     -807625.95     -9774.3682      0.3628975      0.057557544    25.834609      3831.3224    
      1000   2              331.84661      138910.2      -807624.62     -9863.8788      0.36288325     0.05808692     25.745466      3831.0795    
      1010   2.02           326.14667      140236.74     -807622.37     -309.69926      0.36286884     0.058363054    25.865878      3830.6565    
      1020   2.04           325.44915      138285.27     -807623.58     -308.41788      0.3628543      0.058123906    25.896211      3830.1902    
      1030   2.06           322.03084      133625.43     -807629.31     -302.21634      0.36283961     0.05695748     25.905169      3829.7126    
      1040   2.08           318.47893      130170.65     -807634.43     -296.51647      0.36282478     0.055885533    25.887422      3829.262     
      1050   2.1            310.06338      127944.44     -807634.36     -295.44296      0.3628098      0.055685504    25.905492      3828.7872    
      1060   2.12           325.8426       129408.27     -807635.31     -296.73109      0.36279469     0.055930622    25.894726      3828.3291    
      1070   2.14           318.90152      132410.24     -807630.94     -300.15049      0.36277943     0.056577522    25.908192      3827.8538    
      1080   2.16           323.04647      136851.4      -807626.12     -305.5538       0.36276402     0.057598477    25.882953      3827.4146    
      1090   2.18           327.767        139722.02     -807622.86     -309.51399      0.36274848     0.058347494    25.901617      3826.9511    
      1100   2.2            312.00134      140087.27     -807619.47     -310.7761       0.36273279     0.058587953    25.860706      3826.5439    
      1110   2.22           330.62829      136729.84     -807627.81     -305.02487      0.36271695     0.057506233    25.896749      3826.0891    
      1120   2.24           314.5267       133804.34     -807629.09     -301.52077      0.36270098     0.056848109    25.904733      3825.6252    
      1130   2.26           309.82993      129489.23     -807633.12     -296.88332      0.36268486     0.055976262    25.875423      3825.2007    
      1140   2.28           317.55688      128533.17     -807636.05     -294.99597      0.3626686      0.055622902    25.882654      3824.7676    
      1150   2.3            325.95163      129032.61     -807635.95     -296.30678      0.36265219     0.055872589    25.897096      3824.3168    
      1160   2.32           320.28813      132932.36     -807630.57     -300.99337      0.36263564     0.056758898    25.912356      3823.8477    
      1170   2.34           328.08554      137233.14     -807626.16     -306.49553      0.36261895     0.057799112    25.921555      3823.3685    
      1180   2.36           313.35164      138811.99     -807621.33     -309.38167      0.36260212     0.058346089    25.951478      3822.8536    
      1190   2.38           332.39084      138971.89     -807624.22     -309.12614      0.36258514     0.058300629    25.97694       3822.3096    
      1200   2.4            324.09353      135807.86     -807627.53     -304.74207      0.36256802     0.057476515    25.960983      3821.7876    
      1210   2.42           314.83199      134081.54     -807628.83     -302.18831      0.36255076     0.056997572    25.885469      3821.3597    
      1220   2.44           313.52135      129856.7      -807633.94     -296.96962      0.36253335     0.056015933    25.900677      3820.9141    
      1230   2.46           315.06453      129114.05     -807636.13     -295.04578      0.3625158      0.055655743    25.888978      3820.4835    
      1240   2.48           318.95286      129546.38     -807635.76     -296.0651       0.36249811     0.055850747    25.888496      3820.0541    
      1250   2.5            309.64412      134493.05     -807627.94     -302.69373      0.36248028     0.057104003    25.87577       3819.6405    
      1260   2.52           323.71044      136533.09     -807626.33     -306.42091      0.3624623      0.057810013    25.893665      3819.2063    
      1270   2.54           319.88511      140150        -807623.68     -308.66687      0.36244418     0.058236654    25.892284      3818.7746    
      1280   2.56           312.53161      138884.82     -807623.89     -307.62051      0.36242592     0.058042159    25.914614      3818.3178    
      1290   2.58           322.72045      136225.89     -807627.35     -305.64686      0.36240751     0.057672698    25.96486       3817.805     
      1300   2.6            309.70674      132731.7      -807630.53     -300.83897      0.36238896     0.0567684      25.89684       3817.371     
      1310   2.62           307.47923      129995.13     -807635.43     -295.77559      0.36237027     0.055815817    25.882169      3816.9542    
      1320   2.64           306.74611      128234.34     -807636.83     -294.36856      0.36235143     0.055553184    25.830649      3816.5955    
      1330   2.66           307.21387      130013.19     -807634.05     -297.38677      0.36233245     0.056125721    25.856159      3816.208     
      1340   2.68           304.98626      133841.89     -807628.65     -302.65482      0.36231333     0.057122973    25.921008      3815.7493    
      1350   2.7            324.62797      136878.12     -807628.05     -306.04781      0.36229407     0.057766436    25.943689      3815.267     
      1360   2.72           301.94172      139840.95     -807622.49     -308.52404      0.36227466     0.058236942    25.922454      3814.809     
      1370   2.74           318.08068      138517.65     -807625.02     -308.34234      0.36225511     0.058205786    25.940065      3814.3333    
      1380   2.76           319.33379      135502.96     -807628.67     -304.86162      0.36223542     0.057551858    25.942105      3813.8566    
      1390   2.78           312.70257      131413.41     -807633.5      -299.08927      0.36221558     0.056465245    25.900611      3813.4252    
      1400   2.8            311.26231      128792.72     -807636.83     -295.52184      0.3621956      0.055794825    25.888749      3813.0067    
      1410   2.82           302.53713      128387.76     -807635.6      -295.59872      0.36217548     0.055812442    25.880953      3812.5969    
      1420   2.84           308.50062      131599.21     -807632.42     -299.49714      0.36215522     0.056551672    25.888351      3812.1798    
      1430   2.86           313.1314       133470.38     -807630.94     -301.59052      0.36213481     0.056950157    25.909165      3811.7417    
      1440   2.88           320.23363      138497.95     -807626.29     -307.06228      0.36211426     0.057986694    25.931716      3811.2813    
      1450   2.9            309.14212      138872.61     -807622.22     -309.50166      0.36209357     0.058450695    25.928204      3810.8256    
      1460   2.92           320.33896      138023.92     -807624.91     -308.11844      0.36207273     0.058192817    25.922857      3810.3762    
      1470   2.94           313.86108      133495.75     -807630.61     -301.25191      0.36205176     0.056899266    25.962572      3809.8881    
      1480   2.96           321.11504      130792.79     -807634.52     -298.09742      0.36203064     0.056306743    25.94374       3809.4199    
      1490   2.98           302.93752      128696.57     -807633.82     -295.99044      0.36200937     0.055912047    25.980831      3808.9166    
      1500   3              308.03206      129446.04     -807634.73     -295.42193      0.36198796     0.055807957    25.96284       3808.4323    
      1510   3.02           320.61959      130413.57     -807634.47     -9509.3368      0.36196642     0.056140916    25.858648      3808.0505    
      1520   3.04           321.52884      135566.72     -807628.18     -9703.8515      0.36194472     0.057292719    25.895468      3807.6331    
      1530   3.06           320.23441      139597.48     -807621.96     -9888.9331      0.36192289     0.058388986    25.866085      3807.2443    
      1540   3.08           315.07577      139561.8      -807621.4      -9872.719       0.36190091     0.058296789    25.88157       3806.8407    
      1550   3.1            327.03811      138305.29     -807626.02     -9766.881       0.36187879     0.057675359    25.910421      3806.41      
      1560   3.12           318.4205       134538.19     -807627.7      -9669.9856      0.36185653     0.057106685    25.86558       3806.0222    
      1570   3.14           331.62348      131389.88     -807632.36     -9570.5921      0.36183412     0.056523211    25.872778      3805.6276    
      1580   3.16           314.92676      128784.63     -807635.79     -9380.6334      0.36181157     0.055404782    25.884654      3805.222     
      1590   3.18           327.96868      129201.45     -807636.29     -9416.8214      0.36178888     0.055622007    25.909183      3804.7941    
      1600   3.2            318.80708      130913.34     -807630.79     -9553.066       0.36176605     0.05643032     25.910417      3804.3655    
      1610   3.22           337.98114      137336.04     -807626.43     -9772.0277      0.36174307     0.057727401    25.882712      3803.9628    
      1620   3.24           319.71799      138323.79     -807622.95     -9800.7515      0.36171995     0.057900785    25.888852      3803.5546    
      1630   3.26           320.96743      141078.01     -807621.99     -9832.9368      0.36169669     0.058094665    25.8473        3803.1842    
      1640   3.28           327.38072      136295.46     -807625        -9765.9944      0.36167329     0.057702891    25.843041      3802.8175    
      1650   3.3            330.06027      135579.26     -807626.84     -9717.2165      0.36164974     0.057418423    25.8037        3802.4856    
      1660   3.32           317.77858      129428.94     -807633.89     -9436.67        0.36162605     0.055764344    25.816355      3802.1419    
      1670   3.34           319.02795      129324.83     -807635        -9402.6682      0.36160222     0.055567078    25.830136      3801.7854    
      1680   3.36           315.58353      129396.44     -807632.92     -9458.3305      0.36157824     0.055899733    25.838363      3801.4213    
      1690   3.38           335.98835      134299.16     -807629.53     -9657.4973      0.36155413     0.057080637    25.847515      3801.0491    
      1700   3.4            327.24398      135779.4      -807626.9      -9703.491       0.36152987     0.057356331    25.877562      3800.6506    
      1710   3.42           326.00727      139642.56     -807623.27     -9813.9892      0.36150546     0.058013391    25.840378      3800.2843    
      1720   3.44           321.31133      138591        -807621.58     -9849.5207      0.36148092     0.058227381    25.841413      3799.9169    
      1730   3.46           336.45021      136132.35     -807625.26     -9801.9348      0.36145623     0.057950026    25.837729      3799.5523    
      1740   3.48           320.81622      132786.39     -807630.6      -9562.5427      0.3614314      0.0565386      25.859951      3799.1687    
      1750   3.5            321.53452      130107.68     -807635.32     -9416.0677      0.36140643     0.055676412    25.880204      3798.7681    
      1760   3.52           312.70772      128763.86     -807633.51     -9438.419       0.36138131     0.055812452    25.851878      3798.3913    
      1770   3.54           319.92873      129352.72     -807632.87     -9495.2692      0.36135605     0.056152551    25.846656      3798.0187    
      1780   3.56           328.6444       133187.29     -807631.21     -9589.1728      0.36133065     0.056711858    25.902809      3797.5997    
      1790   3.58           323.51089      135666.44     -807627.32     -9696.1063      0.36130511     0.057348334    25.868529      3797.2091    
      1800   3.6            314.34164      140660.34     -807620.92     -9864.8066      0.36127942     0.058350272    25.831814      3796.8485    
      1810   3.62           319.80034      137828.61     -807623.42     -9817.0771      0.3612536      0.058072104    25.859213      3796.4654    
      1820   3.64           324.67789      137235.55     -807626.2      -9749.1848      0.36122763     0.057674639    25.900644      3796.0488    
      1830   3.66           328.28219      130193.63     -807634.04     -9523.8726      0.36120151     0.056345801    25.890472      3795.6408    
      1840   3.68           315.62417      131085.71     -807633.06     -9501.3895      0.36117526     0.056216871    25.894044      3795.2301    
      1850   3.7            309.35973      126872.71     -807635.7      -9399.6314      0.36114886     0.055618864    25.891104      3794.8221    
      1860   3.72           308.31665      131299.6      -807632.91     -9488.6359      0.36112232     0.056149642    25.89967       3794.4074    
      1870   3.74           312.56547      131568.83     -807631.44     -9563.8619      0.36109564     0.056598979    25.890111      3794.0007    
      1880   3.76           311.67682      138202.05     -807624.03     -9800.6044      0.36106881     0.058004331    25.879072      3793.6027    
      1890   3.78           314.40997      137072.58     -807624.25     -9815.6768      0.36104184     0.058097875    25.864174      3793.2164    
      1900   3.8            319.38696      139305.94     -807624.43     -9834.4426      0.36101474     0.058213319    25.842999      3792.8464    
      1910   3.82           319.87913      133482.78     -807630.3      -9656.5445      0.36098748     0.057164596    25.847151      3792.4731    
      1920   3.84           312.55924      133769.88     -807631.29     -9594.7007      0.36096009     0.056802805    25.849442      3792.0979    
      1930   3.86           306.19197      127908.72     -807635.31     -9445.97        0.36093255     0.055926553    25.839506      3791.7301    
      1940   3.88           305.71756      128527.11     -807636.31     -9412.4039      0.36090487     0.055732092    25.844473      3791.3584    
      1950   3.9            315.08935      129515.23     -807636.03     -9469.6697      0.36087705     0.056075494    25.844366      3790.9866    
      1960   3.92           309.18182      133953.67     -807630.14     -9638.2123      0.36084909     0.057077957    25.832983      3790.6231    
      1970   3.94           308.4158       137579        -807625.73     -9778.9034      0.36082098     0.057915647    25.802552      3790.2822    
      1980   3.96           316.55575      136205.53     -807627.29     -9768.9958      0.36079273     0.057861499    25.816769      3789.9302    
      1990   3.98           312.90386      138114.25     -807625.8      -9801.2479      0.36076434     0.058057096    25.848854      3789.5542    
      2000   4              309.78562      133210.14     -807629.74     -9666.9369      0.36073581     0.057266042    25.8611        3789.1691    
      2010   4.02           310.5          132487.77     -807632.95     -298.86458      0.36070713     0.056658782    25.91831       3788.7423    
      2020   4.04           307.24481      126591.1      -807638.31     -293.12237      0.36067831     0.055574613    25.896105      3788.3321    
      2030   4.06           310.62334      130252.8      -807636.8      -294.94353      0.36064935     0.055924387    25.901155      3787.9184    
      2040   4.08           316.55706      128923.22     -807636.17     -296.48631      0.36062025     0.056221451    25.961423      3787.4619    
      2050   4.1            311.82776      135121.1      -807629.66     -302.13725      0.36059101     0.057297661    25.937485      3787.0232    
      2060   4.12           310.80319      134954.24     -807628.45     -303.08563      0.36056162     0.057482197    25.9458        3786.579     
      2070   4.14           307.30547      139119.26     -807624.36     -306.35266      0.36053209     0.05810657     25.94179       3786.1383    
      2080   4.16           312.72922      136367        -807626.29     -305.00974      0.36050242     0.057856617    25.952628      3785.6905    
      2090   4.18           318.37478      135308.85     -807628.65     -302.94009      0.36047261     0.057468782    25.941686      3785.2509    
      2100   4.2            312.55841      130921.35     -807634.55     -295.75099      0.36044265     0.056109648    25.928279      3784.8212    
      2110   4.22           309.80509      130805.4      -807634.32     -295.18332      0.36041256     0.056006627    25.941841      3784.3825    
      2120   4.24           315.10468      129087.55     -807634.52     -295.32958      0.36038232     0.05603908     25.968811      3783.9258    
      2130   4.26           311.24667      132023.41     -807631.04     -297.83738      0.36035193     0.056519702    25.953164      3783.4804    
      2140   4.28           323.24036      133706.17     -807630.05     -300.15852      0.36032141     0.056965004    25.955865      3783.0338    
      2150   4.3            328.44347      135618.65     -807627        -303.5988       0.36029075     0.057622814    25.945409      3782.5948    
      2160   4.32           325.32827      138937.6      -807623.3      -306.54628      0.36025994     0.058187219    25.948183      3782.1545    
      2170   4.34           321.95852      135474.26     -807625.97     -303.24962      0.36022899     0.057566406    25.906043      3781.7429    
      2180   4.36           330.02093      135388.33     -807629.59     -300.41648      0.36019789     0.057033511    25.916457      3781.3246    
      2190   4.38           308.0124       130301.67     -807631.13     -295.72182      0.36016666     0.056147107    25.906985      3780.9129    
      2200   4.4            314.93864      131439.62     -807630.76     -296.79321      0.36013528     0.056355435    25.912949      3780.4974    
      2210   4.42           320.72658      128229.96     -807633.88     -294.37199      0.36010377     0.055900582    25.880827      3780.1035    
      2220   4.44           333.71722      133568.54     -807632.15     -297.64073      0.36007211     0.05652628     25.848271      3779.731     
      2230   4.46           329.02359      132703.48     -807629.21     -299.82916      0.3600403      0.056946923    25.888983      3779.3317    
      2240   4.48           336.2423       138999.76     -807624.07     -305.75134      0.36000836     0.058076883    25.850842      3778.9575    
      2250   4.5            320.56285      137100.64     -807624.17     -303.44566      0.35997627     0.057644062    25.799097      3778.6168    
      2260   4.52           330.50901      137964.89     -807625.19     -303.61857      0.35994404     0.057682072    25.829442      3778.256     
      2270   4.54           320.86453      132703.87     -807628.68     -298.79137      0.35991167     0.056770097    25.838778      3777.8889    
      2280   4.56           317.09335      133336.09     -807629        -297.73588      0.35987916     0.056574664    25.883138      3777.4933    
      2290   4.58           330.09267      128026.47     -807635.2      -293.31782      0.35984651     0.055740219    25.926805      3777.07      
      2300   4.6            332.06156      131114.74     -807633.48     -295.16017      0.35981371     0.056095439    25.971844      3776.6185    
      2310   4.62           326.61754      131374.89     -807630.99     -296.98517      0.35978077     0.056447449    25.99199       3776.1551    
      2320   4.64           325.1492       136934.42     -807625.34     -302.3428       0.35974769     0.057471049    25.966009      3775.7085    
      2330   4.66           317.79141      136498.59     -807624.26     -302.5056       0.35971447     0.057507306    25.949166      3775.2729    
      2340   4.68           316.34081      139067.46     -807621.98     -304.5292       0.35968111     0.05789737     25.970238      3774.8247    
      2350   4.7            326.91577      135331.53     -807626.96     -301.08024      0.3596476      0.057246982    25.969635      3774.3775    
      2360   4.72           325.45717      135373.39     -807627.41     -300.39865      0.35961396     0.057122731    25.949858      3773.9428    
      2370   4.74           338.27462      129448.89     -807634.42     -295.24861      0.35958017     0.056148692    25.964634      3773.4996    
      2380   4.76           320.18994      131060.75     -807632.98     -294.24841      0.35954624     0.055963761    25.917686      3773.0855    
      2390   4.78           321.80872      129933.16     -807632.8      -294.86037      0.35951216     0.056085467    25.891806      3772.6873    
      2400   4.8            313.19066      133683.77     -807627.62     -298.9381       0.35947795     0.056866505    25.925955      3772.2686    
      2410   4.82           321.63805      134619.27     -807627.68     -300.25476      0.35944359     0.05712243     25.895964      3771.8683    
      2420   4.84           323.71307      136855.58     -807625.79     -302.51548      0.35940909     0.057558049    25.891923      3771.4704    
      2430   4.86           319.18661      137555.96     -807624.14     -303.6987       0.35937446     0.057788742    25.865379      3771.0886    
      2440   4.88           323.56909      136376.28     -807627.04     -301.62859      0.35933967     0.05740039     25.850865      3770.7155    
      2450   4.9            318.09401      133749.54     -807629.56     -298.46569      0.35930475     0.056804007    25.889161      3770.3194    
      2460   4.92           317.34388      131340.75     -807633.89     -294.15429      0.35926969     0.055988924    25.869137      3769.9353    
      2470   4.94           311.28012      130213        -807632.87     -294.50344      0.35923448     0.056060875    25.881238      3769.544     
      2480   4.96           319.50283      130379.71     -807632.62     -296.10966      0.35919913     0.056372178    25.889929      3769.1476    
      2490   4.98           304.58836      134559.21     -807628.82     -297.97643      0.35916364     0.056733171    25.924566      3768.7312    
      2500   5              323.92524      134457.36     -807629.89     -299.79324      0.35912801     0.057084746    25.889479      3768.3353    
[...]
     98740   197.48         325.17183      134248.29     -807629.74     -9688.8884      0.36236891     0.057137411    29.328681      44.975214    
     98750   197.5          324.49491      135404.05     -807628.52     -9713.0174      0.36238762     0.057276749    29.332767      44.618065    
     98760   197.52         322.80781      134983.36     -807628.52     -9695.1892      0.36240618     0.05716869     29.345849      44.260917    
     98770   197.54         319.92701      135152.9      -807627.88     -9691.7883      0.36242459     0.057145732    29.375645      43.903768    
     98780   197.56         317.42404      133952.61     -807628.33     -9659.3453      0.36244287     0.056951567    29.440123      43.546614    
     98790   197.58         318.32835      133893.03     -807628.9      -9638.1625      0.362461       0.05682383     29.442677      43.189462    
     98800   197.6          325.67054      133537.58     -807629.05     -9660.5905      0.36247899     0.056953232    29.478387      42.83231     
     98810   197.62         322.40907      134503.84     -807627.68     -9689.8453      0.36249683     0.05712289     29.411555      42.47517     
     98820   197.64         317.21716      135566.99     -807626.82     -9690.36        0.36251453     0.057123134    29.391628      42.118036    
     98830   197.66         331.09931      134171.59     -807628.73     -9689.6726      0.36253209     0.057116316    29.355385      41.760911    
     98840   197.68         314.89608      136489.99     -807625.94     -9707.5768      0.36254951     0.057219104    29.372813      41.403787    
     98850   197.7          325.99916      135812.72     -807627.91     -9695.1254      0.36256678     0.05714299     29.433175      41.046658    
     98860   197.72         325.7659       134260.97     -807628.46     -9676.1142      0.36258391     0.057028243    29.433944      40.689532    
     98870   197.74         312.62361      134052.83     -807628.23     -9626.5588      0.3626009      0.05673352     29.439596      40.332409    
     98880   197.76         337.60331      133800.14     -807630.9      -9653.8739      0.36261774     0.056891857    29.413966      39.975293    
     98890   197.78         320.56714      133155.81     -807628.08     -9671.1003      0.36263445     0.05699075     29.441727      39.618177    
     98900   197.8          324.2919       133861.03     -807628.36     -9681.5827      0.362651       0.057049917    29.364476      39.261075    
     98910   197.82         313.22781      134874.42     -807627.45     -9663.4568      0.36266742     0.05694053     29.31789       38.903981    
     98920   197.84         326.90823      135165.03     -807627.85     -9712.7707      0.36268369     0.057228538    29.264577      38.546898    
     98930   197.86         313.53919      135928.28     -807625.79     -9724.0256      0.36269982     0.057292305    29.212775      38.189824    
     98940   197.88         333.45987      133995.73     -807630.02     -9678.7166      0.36271581     0.057022839    29.332244      37.832739    
     98950   197.9          325.425        133753.54     -807629.59     -9660.3862      0.36273165     0.056912358    29.364934      37.475652    
     98960   197.92         327.88051      133112.42     -807630.99     -9632.1423      0.36274735     0.056743508    29.343979      37.118572    
     98970   197.94         327.3955       133838.91     -807629.68     -9675.0459      0.36276291     0.056993811    29.384405      36.76149     
     98980   197.96         316.50663      133773.63     -807629.05     -9652.7639      0.36277832     0.056860137    29.363603      36.404414    
     98990   197.98         317.70126      135182.98     -807628.55     -9676.7777      0.36279359     0.056999192    29.355975      36.047342    
     99000   198            322.6445       134102.29     -807628.86     -9693.4838      0.36280872     0.057095215    29.387782      35.69027     
     99010   198.02         324.25323      136063.81     -807627.62     -304.51325      0.3628237      0.057392886    29.505285      35.333187    
     99020   198.04         309.76971      135642.38     -807626.35     -303.96445      0.36283855     0.057287108    29.524602      34.976106    
     99030   198.06         320.71482      134769.1      -807629.59     -302.34102      0.36285324     0.056978838    29.55713       34.619025    
     99040   198.08         323.40737      132496.01     -807631.14     -301.3621       0.3628678      0.056792073    29.546389      34.261949    
     99050   198.1          319.78939      133510.77     -807630.02     -302.11005      0.36288221     0.056930764    29.547548      33.904877    
     99060   198.12         309.03394      133817.66     -807628.49     -302.28201      0.36289648     0.056960928    29.509633      33.547812    
     99070   198.14         318.61602      133091.55     -807629.93     -302.29554      0.36291061     0.056961262    29.414129      33.190762    
     99080   198.16         318.86186      134048.86     -807629.45     -302.92322      0.36292459     0.057077334    29.411253      32.833715    
     99090   198.18         322.71163      134927.11     -807628.65     -304.49572      0.36293843     0.057371441    29.40517       32.476673    
     99100   198.2          309.92765      135798.82     -807626.88     -304.53074      0.36295213     0.057375873    29.426576      32.119631    
     99110   198.22         316.50195      134533.75     -807630.16     -302.29059      0.36296568     0.056951686    29.467351      31.762589    
     99120   198.24         317.48922      133844.4      -807630.3      -302.39767      0.36297909     0.056969755    29.455439      31.405552    
     99130   198.26         317.02553      132723.2      -807629.9      -302.90119      0.36299236     0.057062529    29.460185      31.048517    
     99140   198.28         308.98207      133702.34     -807628.85     -302.85208      0.36300548     0.057051216    29.46167       30.691486    
     99150   198.3          313.47551      133670.09     -807630.69     -301.72586      0.36301846     0.056837024    29.439251      30.334461    
     99160   198.32         315.88233      133937.97     -807630.11     -302.68003      0.3630313      0.057014748    29.406378      29.977443    
     99170   198.34         311.27905      134690.82     -807627.34     -304.85435      0.36304399     0.05742231     29.391318      29.620429    
     99180   198.36         318.96924      134554.76     -807628.84     -304.46162      0.36305655     0.057346352    29.465435      29.263412    
     99190   198.38         322.145        134174.91     -807630.96     -302.78973      0.36306895     0.057029497    29.467309      28.906398    
     99200   198.4          313.91042      133893.36     -807629.46     -303.15966      0.36308122     0.057097244    29.450896      28.549389    
     99210   198.42         309.84177      134401.85     -807628.07     -303.97355      0.36309334     0.057248621    29.453852      28.192384    
     99220   198.44         315.01718      133924.64     -807630.94     -301.79562      0.36310532     0.056836567    29.457482      27.835381    
     99230   198.46         313.79523      133584.95     -807630.9      -301.60146      0.36311715     0.05679815     29.464895      27.478382    
     99240   198.48         315.52897      133177.47     -807629.86     -302.8142       0.36312885     0.0570247      29.456876      27.121387    
     99250   198.5          313.53796      134180.77     -807628.55     -303.69622      0.3631404      0.057188979    29.48096       26.764393    
     99260   198.52         321.32035      134528.57     -807629.72     -303.45865      0.3631518      0.057142448    29.49748       26.407401    
     99270   198.54         319.37072      134823.2      -807629.36     -303.32608      0.36316306     0.057115713    29.48229       26.050415    
     99280   198.56         317.26891      134447.91     -807628.06     -304.12468      0.36317418     0.057264334    29.463095      25.693433    
     99290   198.58         307.57727      134833.78     -807625.77     -304.77402      0.36318516     0.057384866    29.462076      25.336455    
     99300   198.6          329.68682      133812.91     -807631.27     -302.03764      0.36319599     0.056867945    29.469747      24.97948     
     99310   198.62         319.10391      133769.04     -807629.44     -302.05887      0.36320668     0.056870269    29.494448      24.622507    
     99320   198.64         320.20899      134223.02     -807628.58     -302.71433      0.36321723     0.056992022    29.49869       24.265537    
     99330   198.66         338.51851      134624.98     -807629.91     -303.66413      0.36322763     0.057169203    29.467545      23.908572    
     99340   198.68         319.26175      135587.57     -807627.65     -302.99896      0.36323789     0.057042363    29.43254       23.551615    
     99350   198.7          329.54948      135642.46     -807628.95     -302.91287      0.36324801     0.057024568    29.430925      23.19466     
     99360   198.72         318.72581      135706.57     -807625.42     -304.72058      0.36325798     0.057363302    29.449181      22.837708    
     99370   198.74         315.38257      135540.32     -807625.46     -304.12462      0.36326781     0.057249563    29.393387      22.480764    
     99380   198.76         324.82125      135521.38     -807628.42     -302.25356      0.3632775      0.056895832    29.407097      22.123821    
     99390   198.78         323.74572      133617.96     -807629.08     -301.33934      0.36328704     0.056722249    29.382186      21.766884    
     99400   198.8          336.59666      134236.55     -807628.94     -303.14151      0.36329644     0.057060002    29.376296      21.409951    
     99410   198.82         341.21211      133343.41     -807629.78     -302.90326      0.3633057      0.057013705    29.411162      21.053019    
     99420   198.84         327.99951      135080.34     -807627.88     -302.88554      0.36331481     0.057008938    29.450484      20.696087    
     99430   198.86         330.59131      133698.34     -807628.54     -302.61032      0.36332378     0.056955731    29.428711      20.33916     
     99440   198.88         316.17389      136822.08     -807624.25     -304.94092      0.36333261     0.057392989    29.457694      19.982235    
     99450   198.9          327.15104      134358.74     -807626.65     -304.14291      0.36334129     0.057241428    29.496751      19.625311    
     99460   198.92         327.06157      135790.33     -807626.69     -304.07646      0.36334983     0.057227577    29.474297      19.268392    
     99470   198.94         322.59481      133507.96     -807628.71     -301.53977      0.36335823     0.056748857    29.480985      18.911476    
     99480   198.96         339.83324      134886.17     -807629.43     -303.27253      0.36336648     0.057073661    29.472076      18.554564    
     99490   198.98         330.70595      132881.07     -807629.65     -301.99042      0.3633746      0.056831108    29.480365      18.197655    
     99500   199            333.28294      135024.15     -807629.55     -302.55138      0.36338256     0.056935426    29.477452      17.84075     
     99510   199.02         319.00463      134393.94     -807627.79     -9680.8478      0.36339039     0.056929517    29.390986      17.483854    
     99520   199.04         321.01775      136027.11     -807626.32     -9739.9491      0.36339807     0.057275859    29.355367      17.126962    
     99530   199.06         321.42188      134429.65     -807627.25     -9720.6685      0.3634056      0.057161294    29.398499      16.770072    
     99540   199.08         324.87689      135625.75     -807627.52     -9731.5468      0.363413       0.057224098    29.352232      16.413187    
     99550   199.1          319.01872      134492.57     -807627.71     -9705.9047      0.36342025     0.057072177    29.283209      16.05631     
     99560   199.12         329.88241      133658.41     -807629.42     -9704.9461      0.36342736     0.057065424    29.322435      15.699433    
     99570   199.14         314.52057      133511.81     -807628.95     -9658.7198      0.36343432     0.056792524    29.365301      15.342558    
     99580   199.16         318.8992       134000.88     -807629.05     -9681.1675      0.36344114     0.056923446    29.38344       14.985684    
     99590   199.18         328.10597      134286.65     -807629.77     -9705.2032      0.36344782     0.057063723    29.412316      14.628813    
     99600   199.2          318.85146      135115.98     -807627.92     -9729.1946      0.36345435     0.057203757    29.398547      14.271946    
     99610   199.22         315.61119      135866.21     -807627.88     -9720.3347      0.36346074     0.05715066     29.37617       13.915083    
     99620   199.24         321.03237      133970.4      -807628.27     -9738.1886      0.36346699     0.057254647    29.399603      13.558223    
     99630   199.26         333.44622      134491.19     -807629.27     -9764.5408      0.3634731      0.057408618    29.42582       13.201364    
     99640   199.28         319.94645      133258.74     -807629.64     -9697.5547      0.36347906     0.057013852    29.415513      12.84451     
     99650   199.3          311.25909      134758.31     -807628.23     -9705.1026      0.36348487     0.057057315    29.419786      12.487659    
     99660   199.32         314.94565      132675.61     -807630.2      -9663.9579      0.36349055     0.056814534    29.402042      12.130812    
     99670   199.34         316.69433      134823.91     -807628.55     -9726.1106      0.36349608     0.05717906     29.365626      11.773969    
     99680   199.36         310.22941      133588.13     -807629.21     -9678.9197      0.36350147     0.056900785    29.41434       11.417128    
     99690   199.38         310.77245      135567.29     -807627.41     -9737.7571      0.36350671     0.057245855    29.430985      11.06029     
     99700   199.4          315.42019      134238.11     -807628.61     -9722.054       0.36351181     0.057152738    29.394437      10.703457    
     99710   199.42         319.68234      135994.88     -807627.83     -9763.3625      0.36351677     0.057394795    29.357113      10.346628    
     99720   199.44         314.3564       134007.9      -807628.63     -9716.1012      0.36352158     0.057116209    29.370301      9.9898018    
     99730   199.46         322.38301      134767.8      -807629.35     -9726.4522      0.36352625     0.057176323    29.389109      9.6329784    
     99740   199.48         323.62908      133767.81     -807630.92     -9683.3307      0.36353078     0.056922127    29.389689      9.2761584    
     99750   199.5          313.96017      134933.02     -807628.92     -9702.7715      0.36353516     0.057035719    29.352082      8.9193427    
     99760   199.52         315.49201      133266.22     -807630.1      -9672.7922      0.3635394      0.056858829    29.362531      8.56253      
     99770   199.54         309.07972      134019.86     -807628.62     -9690.3243      0.3635435      0.056961244    29.405563      8.2057194    
     99780   199.56         310.99086      135545.64     -807627.8      -9722.5012      0.36354745     0.057149764    29.453385      7.848911     
     99790   199.58         317.57395      134108.71     -807628.98     -9713.7792      0.36355126     0.057097897    29.412153      7.492107     
     99800   199.6          314.06291      136083.41     -807627.49     -9742.8998      0.36355493     0.057268491    28.721411      7.1353228    
     99810   199.62         324.33644      134083.27     -807629.7      -9716.7822      0.36355845     0.057114418    29.382494      6.7785254    
     99820   199.64         323.59178      135500.21     -807629.03     -9732.739       0.36356183     0.057207679    29.348057      6.421732     
     99830   199.66         316.9859       133876.37     -807629.8      -9679.1885      0.36356507     0.056892411    29.386226      6.0649411    
     99840   199.68         311.91143      135076.12     -807627.38     -9730.4209      0.36356816     0.057193058    29.383995      5.7081535    
     99850   199.7          328.7476       133095.14     -807631.54     -9673.4108      0.36357111     0.056857506    29.38051       5.3513693    
     99860   199.72         302.88674      137242.63     -807625.78     -9738.1655      0.36357392     0.057237673    29.409054      4.9945879    
     99870   199.74         311.70118      134737.59     -807628.25     -9698.0864      0.36357658     0.057001684    29.449236      4.6378092    
     99880   199.76         320.91527      135639.52     -807627.83     -9747.4556      0.3635791      0.05729146     29.39221       4.2810348    
     99890   199.78         329.23041      134071.58     -807629.81     -9721.3206      0.36358148     0.057137476    29.426431      3.9242633    
     99900   199.8          316.56261      136432.64     -807626.68     -9762.4629      0.36358371     0.05737894     29.43499       3.567495     
     99910   199.82         315.17021      133873.44     -807628.18     -9706.9716      0.3635858      0.057052461    29.398052      3.2107306    
     99920   199.84         316.83724      134522.8      -807628.56     -9698.1664      0.36358775     0.057000403    29.39145       2.8539695    
     99930   199.86         314.77485      133389.88     -807629.18     -9668.7614      0.36358955     0.056827295    29.420342      2.4972115    
     99940   199.88         318.21952      135026.74     -807628.02     -9718.0213      0.36359121     0.057116556    29.420027      2.1404569    
     99950   199.9          324.90688      133135.6      -807629.54     -9695.6768      0.36359273     0.056984991    29.394908      1.7837058    
     99960   199.92         317.89724      135356.66     -807627.74     -9718.0884      0.3635941      0.057116496    29.415549      1.4269579    
     99970   199.94         321.66466      134428.8      -807627.74     -9734.3098      0.36359533     0.057211642    29.394739      1.0702135    
     99980   199.96         327.3937       135241.18     -807627.52     -9761.7893      0.36359641     0.057372976    29.384791      0.71347237   
     99990   199.98         316.1833       135293.11     -807626.41     -9744.2313      0.36359736     0.057269634    29.384942      0.35673454   
    100000   200            318.23368      135131.16     -807627.77     -9705.9857      0.36359816     0.057044728    29.377014      0            
Loop time of 3567.33 on 32 procs for 100000 steps with 1080 atoms

Performance: 4.844 ns/day, 4.955 hours/ns, 28.032 timesteps/s, 30.275 katom-step/s
62.9% CPU use with 32 MPI tasks x 1 OpenMP threads

MPI task timing breakdown:
Section |  min time  |  avg time  |  max time  |%varavg| %total
---------------------------------------------------------------
Pair    | 2572.3     | 2804.5     | 3045.6     | 248.9 | 78.62
Neigh   | 0.0020668  | 0.0022087  | 0.0024393  |   0.2 |  0.00
Comm    | 448.62     | 689.65     | 921.8      | 501.8 | 19.33
Output  | 2.3376     | 2.3438     | 2.3547     |   0.2 |  0.07
Modify  | 64.525     | 64.779     | 65.041     |   1.7 |  1.82
Other   |            | 6.042      |            |       |  0.17

Nlocal:          33.75 ave          41 max          24 min
Histogram: 1 2 1 4 4 7 1 6 4 2
Nghost:        1044.38 ave        1060 max        1025 min
Histogram: 1 0 2 2 10 4 4 4 4 1
Neighs:              0 ave           0 max           0 min
Histogram: 32 0 0 0 0 0 0 0 0 0
FullNghs:      5319.25 ave        6539 max        3750 min
Histogram: 1 2 1 4 4 6 2 6 4 2

Total # of neighbors = 170216
Ave neighs/atom = 157.60741
Neighbor list builds = 5
Dangerous builds = 0

Total wall time: 1:03:10
