
units		metal
atom_style	atomic

read_data ${STRUCTURE}.data
read_data BaTiO3-sc333.data
Reading data file ...
  orthogonal box = (0 0 0) to (11.898253 11.898253 12.912076)
  2 by 4 by 4 MPI processor grid
  reading atoms ...
  135 atoms
  read_data CPU = 0.004 seconds
replicate $L $L $L
replicate 2 $L $L
replicate 2 2 $L
replicate 2 2 2
Replication is creating a 2x2x2 = 8 times larger system...
  orthogonal box = (0 0 0) to (23.796507 23.796507 25.824152)
  2 by 4 by 4 MPI processor grid
  1080 atoms
  replicate CPU = 0.003 seconds

pair_style allegro
pair_coeff	* * ${MODEL}.pth Ba Ti O
pair_coeff	* * BaTiO3-E0.pth Ba Ti O
mass 1 137.3
mass 2 47.9
mass 3 15.9994

timestep 0.002
compute polarization all allegro polarization 3
compute allegro will evaluate the quantity polarization of length 3 (src/compute_allegro.cpp:53)
compute polarizability all allegro polarizability 9
compute allegro will evaluate the quantity polarizability of length 9 (src/compute_allegro.cpp:53)

thermo_style custom pe fmax fnorm spcpu cpuremain

variable efield equal 1e-2*36.36
fix born all addbornforce 0.0 0.0 ${efield}
fix born all addbornforce 0.0 0.0 0.3636

thermo 10
min_style fire
#minimize 0.0 1e-6 100 100
velocity all create ${TEMP} ${SEED} dist gaussian rot yes mom yes
velocity all create 310 ${SEED} dist gaussian rot yes mom yes
velocity all create 310 22682 dist gaussian rot yes mom yes
fix nvt all nvt temp ${TEMP} ${TEMP} $(100*dt)
fix nvt all nvt temp 310 ${TEMP} $(100*dt)
fix nvt all nvt temp 310 310 $(100*dt)
fix nvt all nvt temp 310 310 0.2000000000000000111
run 5000
Neighbor list info ...
  update: every = 1 steps, delay = 0 steps, check = yes
  max neighbors/atom: 2000, page size: 100000
  master list distance cutoff = 8
  ghost atom cutoff = 8
  binsize = 8, bins = 3 3 4
  1 neighbor lists, perpetual/occasional/extra = 1 0 0
  (1) pair allegro/kk, perpetual
      attributes: full, newton on, kokkos_device
      pair build: full/bin/kk/device
      stencil: full/bin/3d
      bin: kk/device
Per MPI rank memory allocation (min/avg/max) = 3.516 | 3.516 | 3.516 Mbytes
    PotEng          Fmax          Fnorm          S/CPU         CPULeft    
-807708.29      1.5957498      37.044516      0              0            
-807647.2       3.0621834      45.002699      2.3776159      2098.7419    
-807635.95      2.5041577      35.509559      25.86839       1143.5245    
-807605.9       3.2879038      37.795598      25.853565      824.89768    
-807604.08      4.2464692      50.493677      25.808148      665.4753     
-807568.64      3.6027622      40.951647      25.790646      569.69289    
-807602.76      3.3182489      38.984851      25.857436      505.62626    
-807645.38      3.5837908      34.464034      25.859154      459.75208    
-807685.6       2.7023808      34.124886      25.805074      425.2996     
-807669.09      3.0051806      34.314428      25.77817       398.43917    
-807652.42      3.5237286      35.486684      25.864166      376.81005    
-807659.03      2.7886086      27.26673       25.8367        359.06146    
-807629.2       4.4205434      31.526771      25.817921      344.21792    
-807586.21      4.0469163      39.818903      25.805581      331.60535    
-807568.21      3.4556713      38.88049       25.862452      320.70963    
-807632.27      3.5419558      33.107293      25.85378       311.21932    
-807656.9       3.3917539      30.423027      25.843742      302.87149    
-807665.68      3.0456459      33.868611      25.841284      295.46126    
-807647.88      4.4384592      44.020456      25.858855      288.82439    
-807680.08      2.7884349      35.752334      25.83761       282.85346    
-807643.99      3.1901269      37.977467      25.75455       277.47087    
-807617.47      3.0957387      38.337862      25.849182      272.53152    
-807562.32      3.7786922      45.309914      25.872219      267.99854    
-807604.83      3.9356154      48.791133      25.720426      263.87344    
-807613.37      4.6531586      40.268361      25.80692       260.03384    
-807643.03      3.1142864      35.595883      25.881773      256.44913    
-807643.15      5.4387231      46.023527      25.87522       253.11222    
-807681.92      3.2746088      37.698952      25.83127       250.00538    
-807663.58      3.5932347      35.535164      25.761561      247.11047    
-807639.74      2.7967245      32.1821        25.873462      244.36117    
-807606.13      3.4483848      34.484611      25.871821      241.76977    
-807605.05      3.9997218      42.372749      25.844801      239.32673    
-807597.84      3.0964847      36.39333       25.757311      237.03143    
-807609.19      2.6311667      33.695143      25.876909      234.82631    
-807641.75      3.4133996      30.770169      25.907582      232.7219     
-807674.22      2.393042       32.153205      25.874846      230.72217    
-807677.36      2.5878375      32.3949        25.823546      228.82196    
-807645.32      3.9520828      37.824382      25.932751      226.98314    
-807646.98      2.9035223      31.412254      25.911923      225.22456    
-807622.19      4.0853653      34.618885      25.917369      223.53542    
-807602.67      3.7574367      42.640526      25.827198      221.92693    
-807569.74      4.2222122      41.602295      25.897755      220.36622    
-807623.58      3.2378704      35.101498      25.914878      218.85865    
-807650.67      4.2718521      34.828618      25.864872      217.41118    
-807673.09      2.9736256      34.603777      25.871737      216.01087    
-807642.11      4.6671346      45.583887      25.924511      214.64766    
-807666.25      3.051875       34.639402      25.881642      213.33325    
-807645.97      3.8473746      35.863926      25.907052      212.05469    
-807624.15      3.1798351      37.924526      25.929271      210.8102     
-807566.45      4.2182244      43.169023      25.90371       209.60426    
-807602.35      3.8193598      43.387091      25.92093       208.42881    
-807624.55      3.9493472      35.663277      25.870788      207.29091    
-807654.61      2.8362394      32.767036      25.889036      206.17957    
-807642.1       4.2345359      41.971595      25.915023      205.09232    
-807672.89      2.3791329      34.03294       25.879981      204.03536    
-807664.94      2.6835577      33.592456      25.792365      203.01341    
-807643.8       2.9109573      30.283679      25.863167      202.00568    
-807599.59      3.5519696      35.221291      25.896622      201.01588    
-807600.68      3.6071695      38.100494      25.884936      200.04821    
-807606.94      3.7866502      38.725657      25.786772      199.11125    
-807619.18      3.7371895      34.271023      25.886125      198.18167    
-807636.75      3.3371512      33.005624      25.925032      197.26574    
-807663.58      5.1782376      34.929461      25.907211      196.36878    
-807674.22      3.5097913      36.125999      25.847866      195.49419    
-807647.16      4.3592173      38.157141      25.895797      194.62996    
-807633.46      3.025842       34.047154      25.920522      193.77799    
-807615.26      3.8836658      35.950815      25.89104       192.94302    
-807605.32      4.2170471      44.42718       25.851133      192.1253     
-807583.16      4.3189278      39.597927      25.875183      191.31797    
-807616.32      3.0754694      35.760464      25.895137      190.52098    
-807646.76      4.7082213      35.454394      25.91833       189.73361    
-807673.04      2.9352024      36.020415      25.846565      188.96402    
-807648.85      4.4194065      41.3694        25.841181      188.20553    
-807652.36      3.02736        35.883004      25.921812      187.45019    
-807641.89      3.9129723      35.616345      25.914226      186.70548    
-807625.58      3.7218809      38.195191      25.871807      185.97393    
-807576.13      3.339096       40.425606      25.840314      185.25409    
-807592.79      3.2649617      39.545022      15.252605      186.01863    
-807628.19      3.3334916      33.440248      5.279835       193.44667    
-807658.12      2.7163123      32.188388      18.646995      193.40327    
-807650.25      4.5871005      37.141346      25.815133      192.56577    
-807658.83      3.993          35.514893      25.821851      191.73887    
-807664.92      2.9822983      33.276693      25.85624       190.92006    
-807643         3.0734711      33.333638      25.858173      190.11152    
-807604.16      3.4816591      36.858433      25.877133      189.31162    
-807585.82      3.1161106      39.248621      25.905519      188.51937    
-807610.24      3.9318682      39.819786      25.862872      187.73965    
-807627.62      3.9946884      33.104423      25.88393       186.96746    
-807640.54      4.1099289      33.340963      19.591685      186.78496    
-807652.92      3.7423443      36.234756      18.813394      186.69261    
-807674.04      2.5503283      34.566901      15.479725      187.11197    
-807651.39      3.4079571      34.97143       20.984568      186.74626    
-807630.01      3.3103208      33.861515      25.896776      185.97726    
-807605.72      3.4723451      35.371255      25.919719      185.215      
-807607.13      3.5663974      42.722091      25.812596      184.46767    
-807596.54      3.7260387      38.422584      25.842418      183.72601    
-807617.4       2.8987368      35.622143      25.826671      182.99273    
-807640.88      4.328206       36.777178      25.9207        182.26075    
-807669.54      3.0358645      35.755688      25.83595       181.54103    
-807657.77      4.7470337      37.072038      25.823551      180.82878    
-807644.79      3.5021383      34.41448       25.900552      180.11842    
-807635.3       3.7326293      32.955518      25.869947      179.4163     
-807624.82      3.4263975      36.127821      25.858827      178.721      
-807592.92      2.8576168      37.040844      25.884178      178.03024    
-807592.8       3.3248631      37.433363      25.892028      177.34489    
-807627.8       3.2264531      31.954886      25.868096      176.66658    
-807655.87      2.7056982      33.19149       25.857123      175.99438    
-807658.54      2.5816093      33.235095      25.812964      175.32995    
-807650.19      3.7978787      36.127657      25.874351      174.66732    
-807656.96      3.1179287      32.172547      25.840753      174.01155    
-807641.04      3.0244451      32.405358      25.842362      173.36059    
-807613.38      3.0733451      35.144236      25.843108      172.71434    
-807582.37      3.3523386      38.597617      25.830059      172.0734     
-807609.95      3.6771734      37.862151      25.815128      171.43772    
-807634.69      3.1715462      33.79561       25.827804      170.80575    
-807647.03      3.2369843      33.96457       25.863522      170.17625    
-807644.83      4.2102647      39.378701      25.93169       169.54757    
-807666.83      3.1067035      35.065817      25.888774      168.92514    
-807651.08      3.2336068      35.583835      25.826695      168.30971    
-807631.24      2.6712903      33.200002      25.85915       167.69657    
-807597.11      3.2920708      37.158308      25.923075      167.08418    
-807606.93      3.8148061      39.768281      25.880707      166.47752    
-807608.7       3.3777757      36.476983      25.847498      165.876      
-807628.5       2.9847693      33.094753      25.915872      165.27485    
-807638.77      5.3714937      35.601864      25.934635      164.67632    
-807665.39      3.0164431      33.36261       25.907254      164.08242    
-807658.28      2.5579298      34.714147      25.815389      163.4959     
-807644.99      3.4541113      32.495219      25.818661      162.91237    
-807623.89      3.2823804      32.986368      25.896697      162.32851    
-807617.56      3.3557663      35.322087      25.862027      161.74921    
-807602.87      2.9619504      37.828609      25.827081      161.17436    
-807603.15      3.2661962      36.197417      25.852188      160.60132    
-807625.97      4.0908651      33.424663      25.922732      160.02816    
-807654.25      3.5039014      33.736006      25.922803      159.45782    
-807661.56      3.3389091      34.796128      25.81262       158.89473    
-807644.78      3.7903595      37.519909      25.813406      158.33422    
-807645.76      3.1850675      33.331997      25.808786      157.77643    
-807633.48      3.3093347      33.144524      25.835418      157.22007    
-807614.61      3.6439165      36.901659      25.837059      156.6661     
-807585.9       4.2973764      38.506997      25.88488       156.11268    
-807612.16      3.8274394      35.391712      25.884136      155.56167    
-807635.61      4.551876       34.21747       25.838981      155.01471    
-807656.01      3.5458765      32.480906      25.807279      154.47121    
-807644.54      5.4743306      38.275684      25.860401      153.9279     
-807656.45      3.3946282      33.974746      25.845921      153.38731    
-807648.88      3.8647789      33.441335      25.831276      152.84937    
-807630.29      3.4576133      33.655637      25.86781       152.31217    
-807593.73      3.6884036      37.42572       25.835371      151.77818    
-807600.87      3.2926074      37.646461      25.889512      151.24426    
-807617.78      3.7816335      35.645069      25.871259      150.71296    
-807638.28      3.00885        33.253027      25.853652      150.1842     
-807641.23      3.4916877      35.854903      25.879554      149.65643    
-807657.85      2.626682       34.486025      25.892541      149.13007    
-807658.73      3.8102917      34.889582      25.773928      148.60958    
-807641.73      2.8553755      33.66966       25.827802      148.08899    
-807616.24      3.0614664      34.239456      25.895529      147.56787    
-807606.18      4.0327071      36.474934      25.884448      147.04885    
-807606.6       4.5729162      38.66157       25.856654      146.53242    
-807613.62      4.0444937      34.769044      25.837767      146.01824    
-807629.05      3.4990253      33.8487        25.88085       145.50428    
-807650.59      4.0975859      34.433456      25.858975      144.99262    
-807662.46      2.4835964      35.155495      25.826838      144.48351    
-807648.84      3.3263944      35.585174      25.831185      143.97578    
-807635.23      3.3957427      34.131442      25.789447      143.47082    
-807623.73      3.1076505      33.843105      25.894161      142.96408    
-807612.82      3.6397241      38.332867      25.851496      142.46009    
-807595.79      3.4167505      37.338416      25.863544      141.95715    
-807611.32      2.8127818      35.645706      25.900382      141.45451    
-807636.21      4.0146471      33.641902      25.886816      140.95366    
-807657.88      3.280996       34.109901      25.870885      140.45462    
-807649.75      3.5158149      36.206203      25.810455      139.95867    
-807648.94      3.0808683      34.11022       25.816216      139.46382    
-807641.78      3.1500945      33.215785      25.8338        138.96972    
-807628.19      3.3583376      34.159898      25.892611      138.47519    
-807597.47      3.2458443      37.74754       25.857381      137.98289    
-807599.11      2.67536        36.566579      25.875013      137.49131    
-807620.7       3.4766999      34.394708      25.838648      137.00193    
-807643.81      2.7086442      33.268913      25.857383      136.51319    
-807647.94      3.4723022      33.997561      25.854035      136.02569    
-807650.75      3.9543386      34.772467      25.868174      135.53893    
-807656.04      2.4572436      33.07856       25.805756      135.05495    
-807640.24      3.2028381      33.297997      25.843844      134.57103    
-807617.98      2.8573429      34.307069      25.813088      134.08898    
-807598.68      2.9998607      36.747257      25.902177      133.60566    
-807609.96      3.1739437      37.824824      25.874134      133.12411    
-807624.02      2.8069248      33.88676       25.903873      132.64284    
-807637.29      3.3229984      33.198579      25.928125      132.16197    
-807646.75      4.2563241      35.225998      25.923749      131.68224    
-807659.89      2.3348287      34.258631      25.874653      131.20472    
-807649.87      3.2167026      33.969126      25.841647      130.72898    
-807633.87      3.1756864      33.537692      25.884874      130.25311    
-807614.54      3.0804113      34.148837      25.933403      129.77702    
-807611.71      3.6451308      37.192533      25.8802        129.30314    
-807608.01      3.0840899      36.33034       25.856515      128.83072    
-807621.54      2.8678141      34.32301       25.902327      128.35812    
-807637.56      4.3850832      34.396123      25.904435      127.88635    
-807656.18      2.9243484      34.035908      25.865062      127.41636    
-807654.77      3.7114864      34.709659      25.792935      126.94889    
-807643.12      3.7288835      34.774753      25.826717      126.48145    
-807632.46      4.7494204      33.936782      25.869609      126.01384    
-807622.9       3.5245942      35.809342      25.867889      125.54708    
-807607.99      5.0344907      37.527006      25.869427      125.08109    
-807604.31      3.5571095      37.007623      25.899876      124.61521    
-807625.16      4.1861282      34.026311      25.928796      124.14949    
-807646.62      3.4883165      33.588905      25.924007      123.68466    
-807651.43      3.3207074      35.270757      25.882413      123.22149    
-807646.14      3.2207783      35.756897      25.93074       122.75804    
-807645.97      3.4572392      34.369541      25.916523      122.29564    
-807636.48      3.4414702      33.60167       25.899267      121.83433    
-807616.48      3.9819711      35.926431      25.881416      121.37412    
-807597.38      3.9732378      37.442443      25.839418      120.91548    
-807611.71      2.7205154      36.292549      25.91763       120.45591    
-807629.43      3.4465783      34.435234      25.882989      119.99775    
-807645.48      3.3562728      33.297646      25.896639      119.53998    
-807643.76      4.4089425      37.075442      25.841815      119.08398    
-807653.76      2.5690266      34.821081      25.784872      118.62975    
-807644.74      3.897286       35.418335      25.768097      118.17647    
-807630.99      2.7487678      34.455995      25.831208      117.72256    
-807603.89      3.4793509      36.907815      25.892916      117.26806    
-807604.11      3.3317411      39.031308      25.885936      116.81432    
-807612.21      3.9185969      37.137331      25.826074      116.36233    
-807628.33      2.9883673      34.746069      25.907707      115.90939    
-807639.76      3.9809741      34.93529       25.93213       115.4566     
-807655.41      3.77277        34.31401       25.890421      115.00518    
-807653.68      3.5050954      34.881643      25.828669      114.55548    
-807643.14      3.3447981      33.555328      25.845168      114.10604    
-807622.11      3.2898006      34.857524      25.858957      113.65689    
-807613.03      4.1389759      35.844103      25.918728      113.20723    
-807606.8       3.1609312      36.496318      25.883288      112.75876    
-807610.89      4.3720679      36.339536      25.910164      112.31035    
-807627.72      3.3977776      34.1227        25.924782      111.86223    
-807647.59      4.7233183      34.32919       25.875238      111.41551    
-807655.1       2.9690896      34.762759      25.837142      110.96997    
-807646.72      3.5746605      35.072336      25.823018      110.52518    
-807639.74      3.5655788      34.035778      25.852836      110.08037    
-807627.9       3.1642352      33.854626      25.916012      109.63498    
-807613.26      3.5894456      36.363015      25.904192      109.1903     
-807603.21      3.3121027      36.478873      25.920323      108.74585    
-807613.53      3.5430942      35.410803      25.938604      108.30159    
-807635.07      4.5048593      33.222753      25.910895      107.85828    
-807649.91      3.339067       33.702762      25.871614      107.41608    
-807647.7       3.1668296      34.780494      25.845038      106.97476    
-807649.75      3.3332933      34.511042      25.794264      106.53471    
-807639.88      3.3199748      34.693686      25.866553      106.09394    
-807628.65      3.3254369      34.369653      25.888698      105.65327    
-807605.33      3.7818945      36.992714      25.917654      105.21259    
-807607.87      4.1922243      37.28029       25.927157      104.77222    
-807618.47      3.1700028      35.520114      25.929172      104.33226    
-807637.36      4.2439277      34.935485      25.924416      103.8928     
-807643.02      3.151664       35.030164      25.915224      103.45392    
-807650.82      3.2152855      34.66288       25.927913      103.01527    
-807651.38      3.3283277      33.852803      25.892897      102.57756    
-807641.28      3.3899668      33.273306      25.863287      102.14069    
-807621.24      3.0925437      33.685117      25.925556      101.70332    
-807610.3       3.2113268      35.316647      25.934112      101.26622    
-807610.76      3.0897323      36.135807      25.922937      100.8297     
-807619.55      2.9012877      34.648003      25.91657       100.39365    
-807632.19      3.5481862      34.231318      25.88056       99.958511    
-807646.78      3.2399197      33.506265      25.869871      99.523895    
-807654.11      3.4875135      33.82897       25.815122      99.090413    
-807645.95      3.7036556      35.524114      25.825417      98.657144    
-807637.63      3.2371863      32.884314      25.92144       98.222914    
-807619.23      3.6697163      34.885878      25.900504      97.789337    
-807612.75      3.6737129      37.116671      25.906798      97.356036    
-807604.97      3.2255476      37.112707      25.888375      96.92334     
-807618.63      3.650708       35.439182      25.908373      96.490729    
-807634.18      3.4639024      34.892912      25.922524      96.058284    
-807648.94      3.7997498      35.718655      25.887612      95.626643    
-807647.74      3.168994       36.300801      25.856375      95.195743    
-807643.52      3.2665725      35.703231      25.862194      94.765098    
-807633.51      3.1725625      34.700194      25.900471      94.334291    
-807623.76      3.5356721      35.50986       25.888235      93.903969    
-807605.07      3.4445607      37.118388      25.914506      93.473642    
-807606.12      3.0370829      37.001161      25.838028      93.04459     
-807621.58      2.8464026      34.951205      25.85046       92.615693    
-807639.3       3.3554933      34.362824      25.872521      92.18683     
-807644.1       3.5791363      34.893196      25.847571      91.758577    
-807647.19      3.2729378      35.245102      25.81065       91.331069    
-807645.32      3.8155161      34.600112      25.80891       90.90387     
-807634.28      2.7394939      34.20112       25.836606      90.476627    
-807617.17      3.5110066      35.589494      25.87117       90.049264    
-807605.62      3.4662453      36.114363      25.930129      89.621507    
-807612.08      3.5090423      35.749503      25.926308      89.194092    
-807623.29      4.8406955      35.222834      25.916317      88.767087    
-807636.8       3.5836025      34.392867      25.905668      88.340492    
-807645.25      4.2767185      34.954265      25.9149        87.914078    
-807650.89      3.4018746      34.565004      25.822525      87.48898     
-807643.15      4.338989       35.318355      25.892504      87.06337     
-807631.07      3.8464493      34.041938      25.881959      86.638148    
-807614.67      3.2887482      35.978451      25.904703      86.212948    
-807611.96      3.666904       36.699102      25.890407      85.788172    
-807610.72      4.3817682      36.311834      25.927796      85.363261    
-807626.18      5.5540108      34.501183      25.918203      84.93872     
-807637.45      4.2210001      34.507541      25.904009      84.514593    
-807650.46      3.3944651      34.256205      25.870525      84.091076    
-807648.19      3.8795899      34.878525      25.795807      83.668587    
-807642         3.5719904      34.089973      25.851113      83.245762    
-807627.72      3.502704       33.866539      25.915097      82.822526    
-807618.89      3.4780942      35.060225      25.92358       82.399455    
-807610.36      3.0979356      35.292254      25.927974      81.97659     
-807614.78      3.4001926      35.193075      25.923881      81.554014    
-807626.79      4.41075        34.178975      25.916744      81.131752    
-807644.55      2.7293502      32.896665      25.895609      80.709938    
-807648.25      3.222267       33.944796      25.909817      80.288222    
-807646.81      2.4869186      33.858746      25.838056      79.867432    
-807640.06      2.9808665      33.139431      25.809347      79.447139    
-807629.44      2.9293489      34.031286      25.865268      79.026529    
-807616.95      3.9951325      35.178751      25.870268      78.606094    
-807607.43      3.3511551      36.390298      25.890678      78.185689    
-807615.35      4.0839301      35.002371      25.929477      77.765148    
-807632.55      3.1845434      33.187264      25.924754      77.344875    
-807641.91      3.9394877      33.601138      25.918268      76.924883    
-807647.72      3.9281864      33.854008      25.858947      76.505643    
-807646.89      3.0646144      34.301833      25.875827      76.08646     
-807641.19      2.9951717      32.839106      25.902739      75.667247    
-807627.69      3.2847007      33.95105       25.893165      75.248329    
-807613.09      2.8270974      34.610181      25.938717      74.829224    
-807608.86      3.0827414      36.115603      25.915562      74.410529    
-807617.02      2.9731308      34.972729      25.873765      73.992397    
-807632.75      2.9705127      32.782773      25.895544      73.574279    
-807641.02      3.5123406      34.191499      25.890547      73.156403    
-807648.75      2.5797182      33.611472      25.83394       72.739195    
-807647.22      2.8278912      33.960167      25.836247      72.322156    
-807639.94      2.9916205      32.333474      25.81468       71.90548     
-807623.57      3.6888204      33.563557      25.899853      71.488292    
-807614.47      2.8995367      35.082728      25.921361      71.071123    
-807608.41      3.4420983      36.330986      25.926463      70.654107    
-807619.19      3.0062432      33.606729      25.927449      70.237273    
-807629.25      3.7341332      34.280628      25.914413      69.820732    
-807645.16      3.1918099      33.433055      25.858462      69.404811    
-807647.37      4.5258512      35.05915       25.81293       68.989418    
-807644.89      4.6663499      34.107974      25.802283      68.574277    
-807634.24      5.3234239      34.441329      25.830566      68.159086    
-807623.33      3.1443116      34.854341      25.857332      67.743863    
-807611.37      3.583382       36.47729       25.859737      67.328793    
-807606.23      3.0952657      37.342994      25.843849      66.914009    
-807618.77      3.1205169      34.506131      25.837301      66.499439    
-807633.98      3.016286       34.489542      25.898265      66.084591    
-807644.62      3.1866958      33.85287       25.871157      65.670108    
-807645.51      3.2834984      35.244927      25.858541      65.255878    
-807645.63      2.8807417      33.748745      25.83641       64.841967    
-807633.96      3.2731324      34.471845      25.861157      64.42804     
-807621.11      3.268339       35.066095      25.861858      64.014268    
-807610.26      3.1514883      36.188746      25.873256      63.600576    
-807608.56      3.5887168      36.514543      25.858112      63.187145    
-807622.28      3.0819469      34.35677       25.910713      62.773516    
-807635.43      3.6837833      34.933537      25.89427       62.360155    
-807643.56      2.9525411      34.336657      25.882296      61.94703     
-807647.02      4.1838494      35.188893      25.921276      61.533806    
-807642.89      3.714086       34.682927      25.888436      61.12095     
-807633.36      3.745711       34.907748      25.905804      60.708135    
-807620.83      3.5507781      35.209443      25.925177      60.295351    
-807611.12      4.4510675      36.47707       25.923764      59.882729    
-807612.71      3.9151295      36.523909      25.923581      59.470261    
-807625.5       4.4248831      34.86127       25.930689      59.057899    
-807635.16      3.2378327      34.080633      25.91354       58.645793    
-807644.47      4.4216934      34.61097       25.882357      58.234022    
-807646.9       5.1496765      35.331144      25.900865      57.822283    
-807641.73      2.8146921      34.527146      25.894471      57.410724    
-807633.04      3.5970574      33.578326      25.924261      56.999133    
-807619.48      3.2348918      35.561978      25.887898      56.587896    
-807611.95      3.0293798      35.908522      25.883082      56.176825    
-807616.2       2.9621171      35.849737      25.895989      55.765818    
-807625.17      3.3984516      33.808366      25.857822      55.355162    
-807636.42      3.6760959      33.929382      25.857864      54.944637    
-807643.72      4.8387797      35.158252      25.871451      54.534168    
-807647.1       3.4649181      34.806942      25.87103       54.123832    
-807638.87      4.1767681      35.585897      25.905308      53.71344     
-807630.41      3.1211389      34.48136       25.895993      53.303231    
-807618.92      3.6132763      34.756742      25.884631      52.893212    
-807613.41      3.30484        36.092402      25.819037      52.483666    
-807613.99      2.715219       35.410758      25.824626      52.074211    
-807628.16      3.3013726      33.75105       25.820569      51.664895    
-807638.48      2.7854099      33.659592      25.833096      51.255635    
-807646.24      3.0492167      34.165285      25.861671      50.846348    
-807645.01      3.630546       34.874427      25.851949      50.437231    
-807639.64      2.6204836      33.498533      25.831973      50.028331    
-807630.55      3.1177167      34.161951      25.854451      49.619437    
-807618.75      3.0739412      34.621004      25.867044      49.210599    
-807610.4       3.8226519      36.255748      25.848393      48.801967    
-807617.38      2.6720634      34.583105      25.891549      48.393247    
-807628.99      3.5546569      34.350834      25.854601      47.984817    
-807640.1       4.1709074      34.296043      25.866969      47.576443    
-807645.11      3.5086479      34.321501      25.925308      47.167917    
-807645.51      2.9747696      33.836661      25.925792      46.759507    
-807637.98      3.3425551      34.340221      25.91325       46.351271    
-807628.65      3.2847416      33.621712      25.858527      45.943393    
-807615.52      2.6910158      34.455668      25.884374      45.53551     
-807611.29      3.4096824      36.185255      25.840472      45.127929    
-807620.7       3.2571121      34.54559       25.871376      44.720321    
-807631.26      2.8183312      33.586928      25.844847      44.312933    
-807639.21      2.9949534      33.307029      25.876103      43.90552     
-807644.76      3.4960399      34.274321      25.859023      43.498284    
-807645.5       2.5052071      33.60022       25.877754      43.091076    
-807636.33      3.9432241      34.705206      25.881052      42.68396     
-807625.54      2.9492461      34.672929      25.895398      42.276893    
-807614.64      3.2741223      36.172503      25.896363      41.869927    
-807613.88      3.7503725      36.732885      25.846111      41.463261    
-807618         3.1518101      35.19689       25.844119      41.056702    
-807629.31      3.7997269      34.951344      25.878933      40.650109    
-807639         3.2121068      34.923092      25.884772      40.243595    
-807645.76      3.0538431      34.241778      25.899164      39.837129    
-807641.43      3.3671048      34.627647      25.918264      39.430696    
-807635.93      3.6571711      34.040068      25.890917      39.024462    
-807624.7       2.717667       33.853383      25.850474      38.618471    
-807617         2.6673682      34.886043      25.850745      38.212574    
-807611.93      3.0737043      35.947303      25.808017      37.806918    
-807619.37      2.924645       34.90801       25.848929      37.401212    
-807630.07      2.9638164      33.843857      25.839026      36.995632    
-807642.46      2.413865       33.512655      25.802725      36.590264    
-807643.63      3.7454724      34.464023      25.864834      36.184778    
-807641.08      2.6954823      34.424037      25.899535      35.779272    
-807633.68      3.2276941      34.297595      25.875968      35.373935    
-807626.79      3.4855266      33.746269      25.86968       34.96871     
-807614.02      3.0987049      36.337617      25.834513      34.563684    
-807613.41      3.0254364      35.765976      25.874214      34.158622    
-807623.65      3.9399845      35.181541      25.856916      33.753703    
-807633.2       2.808083       34.939292      25.84431       33.348908    
-807641.47      2.9440357      33.744123      25.876435      32.944104    
-807643.89      3.0061238      34.101041      25.869853      32.539407    
-807642.66      3.1551668      34.052106      25.839614      32.134882    
-807634.95      2.8373564      33.138917      25.850203      31.730411    
-807624.58      3.1300437      34.145511      25.812777      31.326127    
-807614.54      2.871167       34.921224      25.823876      30.921893    
-807617.29      2.7908225      35.096172      25.860802      30.51764     
-807624.06      3.0080384      34.168097      25.821799      30.113572    
-807634.94      3.286692       32.926511      25.779218      29.709694    
-807641.47      3.9110591      33.556046      25.859135      29.305687    
-807646.09      3.3585319      34.056214      25.91537       28.901619    
-807641.8       3.2603848      33.918003      25.943746      28.497565    
-807636.1       2.9587404      33.130901      25.905045      28.093693    
-807619.91      3.4027877      34.868862      25.920249      27.689866    
-807616.29      2.6725808      35.344627      25.857738      27.28627     
-807616.38      2.9505619      35.57535       25.851753      26.882766    
-807625.66      3.2090564      34.066095      25.825017      26.4794      
-807634.12      3.4478637      33.878669      25.86489       26.076018    
-807642.95      3.216464       34.183584      25.925163      25.672582    
-807645.45      2.7724483      33.355698      25.945166      25.269183    
-807640.11      2.935541       33.365313      25.89811       24.865966    
-807630.84      2.5728414      33.271425      25.908992      24.462805    
-807621.56      3.0417786      34.972062      25.922506      24.059693    
-807617.32      2.9366548      34.891695      25.924768      23.656657    
-807617.95      2.7826512      34.568409      25.913742      23.253719    
-807625.91      2.9292614      33.653282      25.869623      22.850944    
-807635.74      3.2523624      33.946289      25.861549      22.448257    
-807643.7       4.2237818      34.31073       25.849951      22.045663    
-807640.94      3.642665       34.422472      25.873546      21.643097    
-807638.29      3.024436       33.907302      25.902097      21.240553    
-807629.44      3.4806573      34.383702      25.846111      20.838179    
-807622.04      2.9332494      35.123405      25.876178      20.435823    
-807613.56      4.530234       36.253161      25.897         20.033503    
-807618.45      3.4292847      35.021549      25.903845      19.631244    
-807627.68      3.6723491      34.419614      25.850507      19.229141    
-807637.5       2.8064379      34.605913      25.796886      18.827189    
-807639.5       2.9552945      34.75594       25.835403      18.425241    
-807642.17      2.660848       34.779952      25.866245      18.023313    
-807636.8       2.9262997      34.280773      25.922243      17.621372    
-807629.71      2.9570774      33.898121      25.923632      17.2195      
-807615.32      4.3493482      36.054313      25.938393      16.817677    
-807614.57      3.0934333      35.821055      25.922238      16.415948    
-807617.93      3.1614194      36.217611      25.882296      16.014339    
-807629.47      3.4428711      35.094271      25.887154      15.612791    
-807636.36      3.4344441      35.075863      25.8837        15.211313    
-807640.28      3.5554383      35.370983      25.901844      14.809878    
-807640.82      3.3149583      34.887013      25.881529      14.408533    
-807635.79      2.6784938      34.569275      25.900457      14.007232    
-807623.02      3.3134307      34.91825       25.862236      13.606037    
-807615.11      3.1063302      35.427274      25.858271      13.204909    
-807615.85      3.6066192      35.961257      25.85482       12.803846    
-807619.64      3.0566117      35.617772      25.815206      12.402883    
-807627.61      3.421641       34.950662      25.848267      12.001946    
-807634.4       2.8974995      35.513199      25.840075      11.601076    
-807641.93      3.3838807      35.162898      25.863974      11.200244    
-807637.73      3.2423556      35.494417      25.878877      10.79946     
-807632.2       2.9706152      34.831669      25.905987      10.398713    
-807622.43      3.0154721      35.79804       25.885342      9.9980455    
-807618.42      3.2306823      35.933667      25.840117      9.5974719    
-807615.34      3.3923587      36.008713      25.819317      9.1969703    
-807619.24      3.3026354      36.223803      25.835991      8.7965124    
-807629.03      3.4368889      35.154753      25.8325        8.3961127    
-807638.11      3.9772114      35.207443      25.793046      7.9957931    
-807640.94      4.5600509      35.053601      25.864964      7.5954833    
-807637.26      3.5971948      34.760354      25.924364      7.1951973    
-807633.14      3.5433437      34.22223       25.887537      6.7949908    
-807625.93      4.063404       33.951318      25.922088      6.3948249    
-807617.08      3.1371916      34.970088      25.916833      5.9947207    
-807616.5       3.0205962      35.246824      25.869675      5.5946954    
-807624.52      3.0316042      34.358619      25.891114      5.1947169    
-807634.81      4.0573411      33.528487      25.924397      4.7947826    
-807638.09      3.7381835      34.457757      25.931177      4.394904     
-807639.69      3.5115092      34.036704      25.901661      3.9950926    
-807640.4       2.8980671      33.738213      25.881903      3.5953425    
-807632.89      3.6575167      33.791724      25.88239       3.1956467    
-807622.89      3.1024672      34.38591       25.908575      2.7959994    
-807616.71      3.1725619      35.09903       25.927679      2.396404     
-807620.68      3.182994       35.151295      25.874008      1.9968729    
-807625.94      2.9837941      34.286988      25.92758       1.597388     
-807633.52      3.4550114      34.061017      25.916256      1.1979596    
-807637.82      2.9207013      34.725363      25.903461      0.79858641   
-807643.17      2.7253823      33.810497      25.933929      0.39926575   
-807638.89      2.8774743      33.894621      25.948922      0            
Loop time of 199.621 on 32 procs for 5000 steps with 1080 atoms

Performance: 4.328 ns/day, 5.545 hours/ns, 25.048 timesteps/s, 27.051 katom-step/s
75.6% CPU use with 32 MPI tasks x 1 OpenMP threads

MPI task timing breakdown:
Section |  min time  |  avg time  |  max time  |%varavg| %total
---------------------------------------------------------------
Pair    | 100.52     | 144.9      | 192.82     | 316.3 | 72.59
Neigh   | 0          | 0          | 0          |   0.0 |  0.00
Comm    | 4.1101     | 52.027     | 96.402     | 527.9 | 26.06
Output  | 0.05142    | 0.052754   | 0.054251   |   0.3 |  0.03
Modify  | 2.2766     | 2.3037     | 2.3332     |   1.1 |  1.15
Other   |            | 0.3362     |            |       |  0.17

Nlocal:          33.75 ave          48 max          21 min
Histogram: 8 8 0 0 0 0 0 8 0 8
Nghost:        1106.25 ave        1119 max        1092 min
Histogram: 8 0 8 0 0 0 0 0 8 8
Neighs:              0 ave           0 max           0 min
Histogram: 32 0 0 0 0 0 0 0 0 0
FullNghs:       5494.5 ave        7896 max        3378 min
Histogram: 8 8 0 0 0 0 0 8 0 8

Total # of neighbors = 175824
Ave neighs/atom = 162.8
Neighbor list builds = 0
Dangerous builds = 0

reset_timestep 0


variable interval equal 1000
thermo 10

variable nintervals equal $(v_PERIOD/v_interval)
variable nintervals equal 100
variable efield equal 1e-2*36.36*cos((step/${PERIOD})*2*3.14)
variable efield equal 1e-2*36.36*cos((step/100000)*2*3.14)
fix born all addbornforce 0.0 0.0 v_efield

variable Px equal f_born[1]+c_polarization[1]
variable Py equal f_born[2]+c_polarization[2]
variable Pz equal (f_born[3]+c_polarization[3])/vol
variable pe equal pe

fix aveP all ave/time 1 $(v_interval/2) ${interval} v_efield v_Pz v_pe f_born file Pz.${MODEL}.${STRUCTURE}.${TEMP}.$L.${ITER}
fix aveP all ave/time 1 500 ${interval} v_efield v_Pz v_pe f_born file Pz.${MODEL}.${STRUCTURE}.${TEMP}.$L.${ITER}
fix aveP all ave/time 1 500 1000 v_efield v_Pz v_pe f_born file Pz.${MODEL}.${STRUCTURE}.${TEMP}.$L.${ITER}
fix aveP all ave/time 1 500 1000 v_efield v_Pz v_pe f_born file Pz.BaTiO3-E0.${STRUCTURE}.${TEMP}.$L.${ITER}
fix aveP all ave/time 1 500 1000 v_efield v_Pz v_pe f_born file Pz.BaTiO3-E0.BaTiO3-sc333.${TEMP}.$L.${ITER}
fix aveP all ave/time 1 500 1000 v_efield v_Pz v_pe f_born file Pz.BaTiO3-E0.BaTiO3-sc333.310.$L.${ITER}
fix aveP all ave/time 1 500 1000 v_efield v_Pz v_pe f_born file Pz.BaTiO3-E0.BaTiO3-sc333.310.2.${ITER}
fix aveP all ave/time 1 500 1000 v_efield v_Pz v_pe f_born file Pz.BaTiO3-E0.BaTiO3-sc333.310.2.7

thermo_style custom step time temp press pe f_born v_efield v_Pz spcpu cpuremain

# dump 4a all custom 1000 dump.hyst.${MODEL}.${STRUCTURE}.${TEMP}.$L.${ITER}.bin id type xu yu zu fx fy fz
# dump_modify 4a sort id

fix nvt all nvt temp ${TEMP} ${TEMP} $(100*dt)
fix nvt all nvt temp 310 ${TEMP} $(100*dt)
fix nvt all nvt temp 310 310 $(100*dt)
fix nvt all nvt temp 310 310 0.2000000000000000111

run $(v_PERIOD)
run 100000
WARNING: non-constant efield is experimental, strongly distrust scalar/vector output (src/fix_addbornforce.cpp:193)
Per MPI rank memory allocation (min/avg/max) = 3.516 | 3.516 | 3.516 Mbytes
   Step          Time           Temp          Press          PotEng         f_born        v_efield         v_Pz          S/CPU         CPULeft    
         0   0              311.22747      127974.49     -807638.89     -295.38501      0.3636         0.055553585    0              0            
        10   0.02           319.17305      131295.33     -807631.86     -303.79863      0.36359993     0.057135961    28.64902       3490.1858    
        20   0.04           318.28627      140433.1      -807623.06     -312.38309      0.36359971     0.058750491    28.682168      3487.8159    
        30   0.06           302.79723      141253.4      -807620.81     -312.54783      0.36359935     0.058781533    28.654822      3487.9002    
        40   0.08           312.6092       143161.79     -807620.51     -314.17618      0.36359885     0.059087861    28.613901      3489.0154    
        50   0.1            307.07457      137065.09     -807625.36     -308.69128      0.36359821     0.058056405    28.638178      3488.9523    
        60   0.12           302.80146      132276.16     -807632.38     -300.9661       0.36359742     0.056603633    28.627677      3489.0073    
        70   0.14           299.82629      125235.82     -807641.47     -291.42757      0.36359649     0.054809833    28.660431      3488.3767    
        80   0.16           302.5002       125525        -807641.94     -291.27379      0.36359541     0.054781073    28.66365       3487.7678    
        90   0.18           313.49651      127810.3      -807637.8      -297.03855      0.36359419     0.055865462    28.68461       3486.934     
       100   0.2            312.61215      134221.97     -807630.33     -304.34053      0.36359283     0.057238994    28.683168      3486.2139    
       110   0.22           312.48146      138971.41     -807625.53     -309.11105      0.36359132     0.058136454    28.705267      3485.3181    
       120   0.24           314.49251      142558.56     -807621.14     -313.69693      0.36358968     0.058999217    28.667909      3484.8913    
       130   0.26           305.87628      141636.68     -807619.12     -314.46326      0.36358788     0.059143637    28.69517       3484.222     
       140   0.28           308.48419      136671.98     -807626.64     -307.24004      0.36358595     0.057785416    28.705531      3483.5088    
       150   0.3            309.29117      130282.63     -807636.12     -297.66005      0.36358387     0.05598394     28.703586      3482.8598    
       160   0.32           297.30565      125862.88     -807639.23     -292.79181      0.36358165     0.055068658    28.657884      3482.5955    
       170   0.34           305.96316      126162.1      -807639.1      -293.92204      0.36357928     0.055281592    28.668947      3482.2417    
       180   0.36           313.59695      127929.48     -807637.29     -296.65791      0.36357677     0.055796547    28.65121       3482.0083    
       190   0.38           320.6707       133987.83     -807631        -303.64926      0.36357412     0.057111924    28.64785       3481.7842    
       200   0.4            315.57772      139888.18     -807623.01     -310.8124       0.36357132     0.058459653    28.643638      3481.5734    
       210   0.42           306.98953      144377.97     -807616.07     -316.26139      0.36356838     0.059485017    28.600092      3481.6019    
       220   0.44           324.50503      141155.55     -807622.83     -311.67689      0.3635653      0.058623223    28.634805      3481.4039    
       230   0.46           318.7447       136375.04     -807627.56     -305.75302      0.36356207     0.057509515    28.636683      3481.1827    
       240   0.48           319.09299      130615.27     -807634.33     -298.75779      0.3635587      0.056194294    28.64185       3480.9248    
       250   0.5            303.14192      126988.67     -807636.71     -293.90212      0.36355519     0.055281508    28.644836      3480.6448    
       260   0.52           311.8399       126103.55     -807639.45     -292.07449      0.36355153     0.054938293    28.658297      3480.2969    
       270   0.54           317.21757      130035.23     -807635.72     -296.38373      0.36354773     0.055749432    28.628507      3480.0827    
       280   0.56           332.39857      134739.49     -807628.93     -305.17265      0.36354379     0.057403239    28.653107      3479.7524    
       290   0.58           329.03138      141340.28     -807621.38     -312.13065      0.3635397      0.058712704    28.674649      3479.3305    
       300   0.6            314.37626      143014.54     -807617.61     -313.77019      0.36353547     0.059021793    28.685087      3478.8711    
       310   0.62           326.28967      140812.82     -807621.59     -311.32441      0.3635311      0.058562435    28.673644      3478.4638    
       320   0.64           315.29662      135404.82     -807625.8      -305.60999      0.36352658     0.057488223    28.67539       3478.0535    
       330   0.66           328.73035      129913.92     -807634.98     -298.25464      0.36352192     0.05610533     28.668741      3477.6714    
       340   0.68           302.4497       126248.44     -807637.37     -292.23309      0.36351712     0.054973329    28.660512      3477.3206    
       350   0.7            305.38112      126814.2      -807637.25     -292.77772      0.36351217     0.055076532    28.636603      3477.0528    
       360   0.72           320.26147      129865.62     -807633.92     -298.27034      0.36350708     0.056110575    28.639971      3476.7693    
       370   0.74           325.97843      137025.28     -807625.88     -307.26062      0.36350185     0.057802657    28.622257      3476.5402    
       380   0.76           318.48603      141100.94     -807620.32     -311.88279      0.36349647     0.058673059    28.659668      3476.1853    
       390   0.78           319.53681      143338.5      -807618.53     -313.91511      0.36349095     0.059056286    28.680019      3475.7674    
       400   0.8            324.96088      140350.09     -807622.4      -311.0795       0.36348529     0.05852374     28.677773      3475.3598    
       410   0.82           330.6925       135193.82     -807629        -305.47073      0.36347948     0.057469473    28.652482      3475.0299    
       420   0.84           313.49301      128494.5      -807635.82     -296.52085      0.36347353     0.055786609    28.52836       3475.0591    
       430   0.86           293.93624      126264.71     -807638.17     -291.65375      0.36346744     0.054871847    28.618287      3474.8156    
       440   0.88           306.89235      126322.24     -807638.72     -293.25877      0.3634612      0.055174763    28.611396      3474.5863    
       450   0.9            308.26872      131008.41     -807632.12     -300.32892      0.36345482     0.056505958    28.657099      3474.2284    
       460   0.92           315.95339      135832.36     -807627.84     -305.99792      0.3634483      0.057573595    28.665728      3473.848     
       470   0.94           304.9884       140605.38     -807621.34     -311.10695      0.36344163     0.058535935    28.691467      3473.4029    
       480   0.96           314.32256      141851.83     -807620.16     -313.79435      0.36343482     0.059042686    28.69187       3472.9605    
       490   0.98           320.70811      139488.38     -807623.97     -311.07758      0.36342786     0.058532625    28.699012      3472.5045    
       500   1              320.67477      132962.73     -807632.12     -303.05679      0.36342077     0.057024541    28.688921      3472.0772    
       510   1.02           304.68776      128240.54     -807637.12     -9467.507       0.36341353     0.055671393    28.583386      3471.904     
       520   1.04           304.19377      125816.82     -807639.6      -9390.0534      0.36340614     0.055217067    28.544882      3471.8144    
       530   1.06           296.28229      127163.96     -807636.45     -9459.2339      0.36339862     0.055625027    28.532931      3471.7424    
       540   1.08           309.29613      132211.39     -807633.15     -9623.3372      0.36339095     0.056591231    28.548029      3471.626     
       550   1.1            312.53621      136573.57     -807626.93     -9838.4963      0.36338313     0.057857745    28.562705      3471.4685    
       560   1.12           302.0485       142135.43     -807620.02     -10014.224      0.36337518     0.058892447    28.591988      3471.2404    
       570   1.14           303.53427      141795.43     -807620.12     -10019.605      0.36336707     0.058925407    28.59526       3471.0012    
       580   1.16           308.8211       138336.35     -807624.74     -9892.1964      0.36335883     0.058177432    28.613861      3470.7191    
       590   1.18           322.78804      131114.91     -807635.15     -9622.4961      0.36335044     0.056592593    28.602886      3470.4574    
       600   1.2            296.04471      128294.51     -807635.51     -9487.8471      0.36334191     0.055801994    28.598018      3470.2025    
       610   1.22           299.42433      125380.13     -807640.1      -9358.1025      0.36333324     0.055040226    28.575759      3469.989     
       620   1.24           300.5494       127994.11     -807637.5      -9442.5345      0.36332442     0.055538165    28.560061      3469.8019    
       630   1.26           322.19565      130374.94     -807635.18     -9613.9342      0.36331546     0.056547681    28.551673      3469.6259    
       640   1.28           314.53956      138216.85     -807625.37     -9894.8096      0.36330636     0.058201206    28.553927      3469.4401    
       650   1.3            299.98024      141241.31     -807619.8      -10008.28       0.36329711     0.058870136    28.570359      3469.2184    
       660   1.32           304.49164      142199.87     -807620.73     -9995.4276      0.36328772     0.058796056    28.580316      3468.9745    
       670   1.34           317.92236      136636.04     -807627.84     -9828.4207      0.36327819     0.057815189    28.597887      3468.6955    
       680   1.36           306.03922      133013.43     -807630.98     -9670.211       0.36326851     0.056886044    28.581098      3468.4446    
       690   1.38           307.04081      127250.5      -807637.54     -9463.0298      0.36325869     0.055668783    28.584801      3468.1841    
       700   1.4            302.09568      126554.7      -807640.63     -9338.4323      0.36324873     0.054937312    28.564278      3467.9568    
       710   1.42           305.34978      128209.86     -807637.71     -9444.5405      0.36323863     0.055563085    28.560694      3467.7323    
       720   1.44           309.87724      132795.55     -807630.83     -9686.1757      0.36322838     0.056986255    28.600709      3467.4366    
       730   1.46           304.94858      138494.3      -807623.79     -9885.8437      0.36321798     0.058162617    28.642039      3467.0708    
       740   1.48           310.22165      140739.47     -807621.92     -9963.9827      0.36320745     0.058624042    28.635435      3466.7163    
       750   1.5            313.33399      141247.68     -807621.64     -9982.1878      0.36319677     0.058732881    28.624609      3466.3795    
       760   1.52           309.13284      137779.88     -807624.31     -9874.9529      0.36318595     0.058103666    28.552458      3466.1576    
       770   1.54           323.53067      131548.25     -807633.96     -9625.3518      0.36317498     0.056636738    28.584721      3465.8813    
       780   1.56           300.42463      127621.74     -807638.16     -9379.9375      0.36316387     0.055194378    28.55813       3465.6447    
       790   1.58           305.96871      125799.6      -807639.14     -9370.278       0.36315262     0.055139248    28.541593      3465.4307    
       800   1.6            312.58788      128583.13     -807635.41     -9516.8901      0.36314122     0.056003742    28.518075      3465.249     
       810   1.62           315.33467      133613.85     -807629.88     -9700.8991      0.36312968     0.057088387    28.603006      3464.9357    
       820   1.64           306.87792      138441.16     -807623.1      -9874.4381      0.363118       0.058111509    28.561577      3464.6829    
       830   1.66           314.8038       141610.65     -807620.13     -9998.5179      0.36310618     0.05884364     28.580413      3464.4001    
       840   1.68           315.08539      140918.83     -807620.16     -9992.9809      0.36309421     0.058812992    28.581309      3464.1145    
       850   1.7            321.21665      136667.41     -807626.42     -9811.9755      0.3630821      0.057749624    28.586268      3463.8202    
       860   1.72           313.49767      130399.75     -807633.79     -9532.4704      0.36306984     0.056106455    28.546657      3463.5806    
       870   1.74           316.63273      127290.97     -807638.31     -9393.4098      0.36305745     0.055289856    28.533994      3463.3562    
       880   1.76           308.88795      126676.38     -807636.55     -9408.9413      0.3630449      0.055383188    28.563337      3463.0884    
       890   1.78           325.25571      129491.59     -807635.75     -9502.0343      0.36303222     0.055933109    28.585846      3462.788     
       900   1.8            329.80136      134566.54     -807630.96     -9667.9489      0.36301939     0.056911766    28.590469      3462.4803    
       910   1.82           316.97556      139181.23     -807621.21     -9918.375       0.36300642     0.058388021    28.596453      3462.1637    
       920   1.84           320.22815      142920.19     -807617.56     -10044.182      0.36299331     0.059130765    28.568233      3461.8836    
       930   1.86           322.67163      140032.55     -807621.62     -9922.4238      0.36298005     0.058416099    28.573119      3461.5956    
       940   1.88           322.37726      136530.13     -807627.58     -9722.2874      0.36296665     0.057239953    28.581954      3461.2949    
       950   1.9            320.27726      129893.49     -807633.4      -9523.1078      0.36295311     0.056069375    28.566785      3461.0125    
       960   1.92           313.5242       129267.04     -807634.63     -9449.4849      0.36293942     0.055638003    28.577516      3460.7152    
       970   1.94           314.9461       127019.63     -807637.87     -9351.9739      0.36292559     0.055065962    28.579438      3460.4143    
       980   1.96           335.64902      131202.81     -807635        -9530.1501      0.36291162     0.056117253    28.603074      3460.0832    
       990   1.98           331.82559      134115.23     -807628.86     -9715.6617      0.3628975      0.057211844    28.62845       3459.7208    
      1000   2              320.55088      142051.42     -807619.28     -9972.0571      0.36288325     0.058723966    28.610436      3459.3804    
      1010   2.02           325.42446      139223.93     -807621.5      -310.24891      0.36286884     0.058466636    28.711345      3458.9195    
      1020   2.04           328.06601      140124.44     -807623.37     -308.74944      0.3628543      0.058186392    28.681461      3458.4959    
      1030   2.06           314.06104      133448.39     -807627.65     -302.94521      0.36283961     0.057094848    28.663656      3458.0946    
      1040   2.08           317.98513      132795.38     -807630.76     -300.4908       0.36282478     0.05663459     28.664545      3457.6934    
      1050   2.1            314.21095      125297.28     -807639.39     -291.7335       0.3628098      0.05498634     28.699472      3457.253     
      1060   2.12           319.43825      128918.73     -807638.08     -294.00559      0.36279469     0.055416896    28.652534      3456.8677    
      1070   2.14           308.32081      129920.63     -807632.93     -298.22985      0.36277943     0.056215487    28.61362       3456.527     
      1080   2.16           319.88507      138189.96     -807625.46     -307.61425      0.36276402     0.057986882    28.560437      3456.2458    
      1090   2.18           317.37432      137741.92     -807625.29     -307.91015      0.36274848     0.058045149    28.560153      3455.9635    
      1100   2.2            325.56471      141494.33     -807624.26     -310.33175      0.36273279     0.058504183    28.621823      3455.6123    
      1110   2.22           302.92544      138273.53     -807623.36     -308.43955      0.36271695     0.058150001    28.609767      3455.274     
      1120   2.24           316.10478      134754.36     -807629.33     -304.42914      0.36270098     0.057396448    28.67106       3454.8697    
      1130   2.26           315.36475      128028.45     -807638.51     -295.34152      0.36268486     0.05568556     28.677474      3454.4595    
      1140   2.28           302.06059      126805.41     -807639.32     -292.68973      0.3626686      0.055188049    28.674011      3454.0541    
      1150   2.3            300.56289      128058.75     -807636.75     -295.20133      0.36265219     0.055664142    28.677652      3453.6459    
      1160   2.32           312.20882      131412.52     -807633.96     -299.78059      0.36263564     0.056530202    28.682041      3453.2341    
      1170   2.34           313.36467      135346        -807628.78     -305.13658      0.36261895     0.05754284     28.709157      3452.7956    
      1180   2.36           308.64201      138719.8      -807624.52     -308.86182      0.36260212     0.058248052    28.732265      3452.3351    
      1190   2.38           307.91327      141295.8      -807620.74     -312.53279      0.36258514     0.058943117    28.728685      3451.8802    
      1200   2.4            309.12084      137513.63     -807625.26     -308.25323      0.36256802     0.058138745    28.732178      3451.4235    
      1210   2.42           307.63827      133857.89     -807631.69     -301.55904      0.36255076     0.056878882    28.708138      3450.9925    
      1220   2.44           299.5618       129049.9      -807636.86     -295.31481      0.36253335     0.055703795    28.684081      3450.5864    
      1230   2.46           291.42988      129438.92     -807635.88     -295.07433      0.3625158      0.055661128    28.662617      3450.2022    
      1240   2.48           302.18766      127052.69     -807638.13     -294.39785      0.36249811     0.055536232    28.635973      3449.8445    
      1250   2.5            322.94639      131606.77     -807636.28     -299.04219      0.36248028     0.05641513     28.647054      3449.4762    
      1260   2.52           305.24594      135399.18     -807628.4      -304.54489      0.3624623      0.05745608     28.658183      3449.0976    
      1270   2.54           313.54561      141170.85     -807622.54     -311.43967      0.36244418     0.058759801    28.648848      3448.7283    
      1280   2.56           313.25548      138866.78     -807623.76     -310.21932      0.36242592     0.058532505    28.661671      3448.3473    
      1290   2.58           305.66848      138105.62     -807626.03     -306.71676      0.36240751     0.057874578    28.648406      3447.9792    
      1300   2.6            313.8416       131826.79     -807633.1      -300.82622      0.36238896     0.056765994    28.646853      3447.6127    
      1310   2.62           304.8525       130516.03     -807634.71     -297.79993      0.36237027     0.056197832    28.645202      3447.2481    
      1320   2.64           294.92026      126235.56     -807638.33     -292.7401       0.36235143     0.055245863    28.619666      3446.907     
      1330   2.66           302.62199      129626.18     -807637.38     -294.58348      0.36233245     0.055596657    28.599086      3446.5844    
      1340   2.68           307.66934      130979.22     -807633.66     -299.01631      0.36231333     0.056436241    28.658665      3446.2079    
      1350   2.7            313.17702      137708.32     -807625.66     -307.60072      0.36229407     0.058059546    28.678336      3445.8143    
      1360   2.72           310.0053       138213.86     -807624.28     -308.4128       0.36227466     0.058215946    28.683156      3445.4171    
      1370   2.74           308.97171      140693.16     -807623.71     -308.63815      0.36225511     0.058261626    28.665986      3445.0357    
      1380   2.76           305.78294      136527.89     -807625.98     -305.77472      0.36223542     0.057724234    28.649134      3444.6693    
      1390   2.78           317.26804      134103.35     -807630.36     -302.74763      0.36221558     0.057155909    28.626967      3444.3225    
      1400   2.8            304.46298      127502.32     -807635.34     -295.81408      0.3621956      0.05585        28.615902      3443.9851    
      1410   2.82           316.3651       128613.2      -807638.77     -293.75572      0.36217548     0.055464461    28.592519      3443.6675    
      1420   2.84           299.40389      128955.68     -807634.79     -295.3028       0.36215522     0.055759688    28.606371      3443.3377    
      1430   2.86           319.37485      135032.04     -807629.53     -303.06121      0.36213481     0.057227872    28.648406      3442.9723    
      1440   2.88           307.11995      136191.86     -807625.85     -304.93649      0.36211426     0.057585254    28.675177      3442.5847    
      1450   2.9            320.22767      140653.77     -807623.57     -308.71022      0.36209357     0.05830123     28.65851       3442.2116    
      1460   2.92           308.98052      137048.06     -807622.6      -308.01821      0.36207273     0.058173888    28.646182      3441.8488    
      1470   2.94           320.08001      138206.98     -807623.95     -307.94432      0.36205176     0.058163303    28.670612      3441.4663    
      1480   2.96           315.48583      130748.93     -807632.55     -298.59141      0.36203064     0.056400053    28.641695      3441.1077    
      1490   2.98           318.31345      130543.89     -807635.19     -296.01574      0.36200937     0.055916826    28.617498      3440.7688    
      1500   3              303.87682      127280.45     -807635.33     -293.81769      0.36198796     0.055504901    28.629073      3440.4205    
      1510   3.02           320.0643       131182.16     -807633.79     -9517.7434      0.36196642     0.056190546    28.585303      3440.107     
      1520   3.04           321.65134      132332.89     -807631.06     -9609.611       0.36194472     0.056736311    28.608195      3439.7749    
      1530   3.06           323.29456      137599.84     -807626.31     -9764.6504      0.36192289     0.057655161    28.583192      3439.4622    
      1540   3.08           312.68966      139445.11     -807621.34     -9873.7711      0.36190091     0.058303002    28.571996      3439.1579    
      1550   3.1            326.44243      138968.69     -807623.48     -9863.7301      0.36187879     0.058247272    28.569373      3438.8549    
      1560   3.12           320.94071      136442.54     -807626.77     -9732.8514      0.36185653     0.057477943    28.58794       3438.5371    
      1570   3.14           321.87117      132015.47     -807631.87     -9571.7376      0.36183412     0.056529976    28.5616        3438.239     
      1580   3.16           314.89351      129859.44     -807634.34     -9462.2111      0.36181157     0.055886604    28.576843      3437.9287    
      1590   3.18           305.2513       128021.21     -807634.42     -9419.5174      0.36178888     0.055637932    28.57508       3437.6192    
      1600   3.2            319.06383      131027.17     -807634.46     -9480.0843      0.36176605     0.055999214    28.604771      3437.2869    
      1610   3.22           315.3912       132263        -807630.72     -9591.1194      0.36174307     0.056658701    28.578656      3436.9738    
      1620   3.24           318.94655      138914.64     -807624.34     -9814.0386      0.36171995     0.057979282    28.583318      3436.6569    
      1630   3.26           318.66493      137489.43     -807623.61     -9848.6252      0.36169669     0.058187354    28.597019      3436.3294    
      1640   3.28           315.42884      140881.27     -807622.24     -9881.4932      0.36167329     0.058385322    28.606385      3435.9948    
      1650   3.3            316.5997       132525.78     -807630.05     -9652.9004      0.36164974     0.057038383    28.625936      3435.6458    
      1660   3.32           321.23167      133730.78     -807631.51     -9634.0047      0.36162605     0.056930459    28.604033      3435.3126    
      1670   3.34           303.95579      126490.93     -807636.01     -9431.7307      0.36160222     0.055738829    28.581662      3434.9953    
      1680   3.36           306.55556      131143.22     -807635.19     -9473.8001      0.36157824     0.05599116     28.572217      3434.6844    
      1690   3.38           298.94126      127647.87     -807636.31     -9421.1661      0.36155413     0.055683801    28.574572      3434.3714    
      1700   3.4            305.15133      136788.92     -807628.23     -9711.213       0.36152987     0.057401975    28.574013      3434.0583    
      1710   3.42           303.0976       134919.82     -807626.58     -9767.8954      0.36150546     0.057740917    28.554866      3433.7583    
      1720   3.44           301.93384      140599.27     -807622.8      -9881.813       0.36148092     0.058418284    28.502616      3433.4944    
      1730   3.46           298.13598      135682.85     -807627.27     -9730.7127      0.36145623     0.057528954    28.51097       3433.2237    
      1740   3.48           312.37571      136283.42     -807629.02     -9738.5488      0.3614314      0.057579237    28.5195        3432.9461    
      1750   3.5            308.92152      130287.89     -807633.95     -9569.5225      0.36140643     0.056583778    28.537741      3432.655     
      1760   3.52           305.47124      129205.16     -807637.54     -9437.5042      0.36138131     0.055807043    28.603999      3432.318     
      1770   3.54           298.58454      127381.08     -807638.88     -9366.184       0.36135605     0.055389174    28.664166      3431.9402    
      1780   3.56           303.59018      131154.17     -807634.25     -9537.0758      0.36133065     0.056403749    28.662158      3431.564     
      1790   3.58           303.64643      134012.6      -807629.5      -9691.7194      0.36130511     0.057322387    28.654695      3431.1931    
      1800   3.6            303.40854      136448.03     -807627.2      -9760.4382      0.36127942     0.057732934    28.601211      3430.8581    
      1810   3.62           301.04973      138292.27     -807625.93     -9789.4112      0.3612536      0.057908449    28.61935       3430.5108    
      1820   3.64           298.94809      136832.36     -807625.58     -9790.7809      0.36122763     0.057920715    28.660069      3430.1368    
      1830   3.66           318.78005      134420.83     -807630.23     -9728.0303      0.36120151     0.057553653    28.625192      3429.7858    
      1840   3.68           302.81406      129760.54     -807635.03     -9499.3893      0.36117526     0.056205036    28.63564       3429.4281    
      1850   3.7            297.12525      129666.22     -807636.21     -9429.5734      0.36114886     0.055796035    28.661945      3429.0534    
      1860   3.72           302.43491      127967.8      -807637.21     -9421.3412      0.36112232     0.055751421    28.623836      3428.7035    
      1870   3.74           300.14894      132787.78     -807631.49     -9590.2519      0.36109564     0.056755155    28.591216      3428.3746    
      1880   3.76           304.71523      133936.16     -807631.14     -9618.8323      0.36106881     0.056928523    28.588756      3428.047     
      1890   3.78           308.25856      138544.42     -807627.29     -9750.1905      0.36104184     0.057710269    28.567696      3427.7325    
      1900   3.8            312.74752      137664.68     -807626        -9807.4594      0.36101474     0.058053597    28.575615      3427.4127    
      1910   3.82           312.92         138171.36     -807626.09     -9796.5093      0.36098748     0.057993157    28.576174      3427.0922    
      1920   3.84           319.52615      132638.94     -807632.93     -9600.4105      0.36096009     0.056836609    28.561661      3426.7805    
      1930   3.86           304.67128      131159.39     -807634.21     -9483.7494      0.36093255     0.056150232    28.545757      3426.4783    
      1940   3.88           315.20656      127435.97     -807636.8      -9443.4497      0.36090487     0.055915919    28.541814      3426.178     
      1950   3.9            306.26262      130618.15     -807633.53     -9500.62        0.36087705     0.056258768    28.574407      3425.8572    
      1960   3.92           299.14067      132018.18     -807631.98     -9512.6131      0.36084909     0.056334152    28.578929      3425.5332    
      1970   3.94           312.46173      135815.28     -807629.57     -9638.8061      0.36082098     0.05708592     28.570073      3425.2144    
      1980   3.96           313.24125      136581.29     -807625.54     -9765.7324      0.36079273     0.05784217     28.577503      3424.8908    
      1990   3.98           315.32516      139513.57     -807623.59     -9829.3444      0.36076434     0.058223524    28.636052      3424.5317    
      2000   4              314.73528      135093.42     -807628.31     -9670.4518      0.36073581     0.057286864    28.601079      3424.1936    
      2010   4.02           319.52262      133099.78     -807631.96     -298.95644      0.36070713     0.056676197    28.672851      3423.8127    
      2020   4.04           312.16309      130401.27     -807633.57     -296.24565      0.36067831     0.056166772    28.640474      3423.4513    
      2030   4.06           318.1874       130593.25     -807633.87     -296.611        0.36064935     0.056240557    28.680702      3423.0663    
      2040   4.08           303.56848      130229.56     -807633.26     -295.10038      0.36062025     0.055958642    28.699685      3422.6707    
      2050   4.1            318.19443      132971.2      -807632.48     -297.77076      0.36059101     0.056469596    28.657023      3422.3002    
      2060   4.12           324.66072      134798.03     -807627.61     -303.46349      0.36056162     0.057553862    28.658285      3421.9293    
      2070   4.14           317.59008      137896.09     -807624.01     -306.05258      0.36053209     0.058049653    28.657729      3421.5589    
      2080   4.16           311.90844      137444.13     -807625.14     -304.03094      0.36050242     0.057670951    28.663787      3421.1852    
      2090   4.18           320.65062      135518.77     -807629.52     -300.85385      0.36047261     0.057073016    28.654592      3420.817     
      2100   4.2            321.92499      133143.85     -807630.4      -300.1606       0.36044265     0.056946236    28.679823      3420.4347    
      2110   4.22           307.8387       131278.48     -807631.27     -297.34421      0.36041256     0.056416624    28.670606      3420.0579    
      2120   4.24           320.2784       130339.97     -807636.83     -293.52466      0.36038232     0.055696593    28.645671      3419.6953    
      2130   4.26           308.45961      130353.48     -807634.87     -293.85664      0.36035193     0.055764288    28.655979      3419.3272    
      2140   4.28           315.56678      133116.96     -807629.38     -300.46535      0.36032141     0.057023233    28.616994      3418.9809    
      2150   4.3            316.1307       134952.03     -807626.97     -303.08237      0.36029075     0.057524795    28.636728      3418.6237    
      2160   4.32           320.44842      137643.73     -807627.13     -303.51783      0.36025994     0.057612372    28.578924      3418.2985    
      2170   4.34           313.1108       136949        -807626.72     -303.06097      0.36022899     0.057530596    28.653416      3417.9321    
      2180   4.36           313.01675      135742.47     -807626.42     -303.51738      0.36019789     0.057622209    28.662789      3417.5608    
      2190   4.38           315.21548      132354.26     -807630.61     -299.80584      0.36016666     0.056922517    28.667919      3417.1868    
      2200   4.4            315.52635      130162.94     -807636.56     -294.11749      0.36013528     0.055847367    28.655848      3416.8196    
      2210   4.42           307.55053      129101.4      -807636.46     -293.35609      0.36010377     0.055707666    28.633452      3416.4646    
      2220   4.44           300.09924      131666.9      -807632.07     -297.14435      0.36007211     0.05643201     28.651088      3416.1003    
      2230   4.46           299.15413      133221.02     -807629.42     -300.05446      0.3600403      0.056989716    28.614071      3415.7558    
      2240   4.48           307.36101      135763.6      -807629.73     -301.21396      0.36000836     0.057215016    28.651994      3415.3912    
      2250   4.5            308.53703      136690.63     -807627.88     -303.66221      0.35997627     0.057685199    28.671892      3415.0161    
      2260   4.52           292.30125      138819.65     -807623.71     -305.97208      0.35994404     0.058129198    28.674125      3414.6401    
      2270   4.54           316.11515      135144.75     -807630.89     -302.3638       0.35991167     0.057448855    28.70263       3414.2494    
      2280   4.56           304.62778      131884.64     -807634.96     -296.82144      0.35987916     0.056400907    28.725918      3413.847     
      2290   4.58           299.85559      128701        -807637.69     -293.62428      0.35984651     0.055798458    28.705778      3413.4555    
      2300   4.6            296.2529       129815.09     -807634.6      -296.28073      0.35981371     0.056308403    28.711125      3413.0617    
      2310   4.62           293.35644      130672.94     -807633.78     -296.7501       0.35978077     0.056402772    28.671318      3412.6886    
      2320   4.64           298.30441      134411.07     -807633.01     -298.15558      0.35974769     0.056675119    28.646944      3412.3283    
      2330   4.66           300.18817      135383.73     -807629.34     -302.06182      0.35971447     0.057422943    28.658308      3411.9622    
      2340   4.68           302.01215      137528.46     -807626.15     -305.47346      0.35968111     0.058076893    28.664803      3411.593     
      2350   4.7            302.38678      136962.02     -807627.14     -304.40535      0.3596476      0.057879214    28.611269      3411.2511    
      2360   4.72           302.92096      134210.89     -807632.17     -299.33305      0.35961396     0.056920099    28.604108      3410.9128    
      2370   4.74           299.74483      131891.91     -807633.97     -296.94504      0.35958017     0.056471309    28.621175      3410.5658    
      2380   4.76           300.15717      129380.37     -807634.66     -296.23672      0.35954624     0.056341923    28.655704      3410.2015    
      2390   4.78           294.26752      130859.83     -807634.65     -295.259        0.35951216     0.05616129     28.638939      3409.8456    
      2400   4.8            296.85242      130588.34     -807635.42     -294.67595      0.35947795     0.056055723    28.660138      3409.4793    
      2410   4.82           307.36532      133081.62     -807631.93     -299.41598      0.35944359     0.056962854    28.669808      3409.1084    
      2420   4.84           308.57165      135841.4      -807627.78     -303.62717      0.35940909     0.057769563    28.710135      3408.7179    
      2430   4.86           300.59412      138061.6      -807625.79     -304.27587      0.35937446     0.057898569    28.700237      3408.3326    
      2440   4.88           307.736        135769.23     -807629.57     -301.24263      0.35933967     0.057326943    28.684023      3407.9555    
      2450   4.9            306.33808      133903.55     -807630.84     -299.56619      0.35930475     0.057013453    28.697113      3407.5722    
      2460   4.92           296.52341      132095.18     -807631.24     -297.579        0.35926969     0.05664078     28.698074      3407.1888    
      2470   4.94           308.09125      130482.76     -807635.51     -294.60306      0.35923448     0.05607984     28.637215      3406.8349    
      2480   4.96           299.57666      130361.18     -807635.48     -293.20402      0.35919913     0.055819014    28.635165      3406.4821    
      2490   4.98           305.35004      132435.42     -807633.13     -296.13112      0.35916364     0.056381835    28.660006      3406.1174    
      2500   5              307.91895      134674.56     -807628.83     -300.56465      0.35912801     0.057231634    28.64382       3405.7605    
[...]
     98740   197.48         312.95695      132846.27     -807630.69     -9655.1413      0.36236891     0.056938398    29.455531      43.83716     
     98750   197.5          312.16977      135376.39     -807629.29     -9697.0438      0.36238762     0.057182554    29.440432      43.489141    
     98760   197.52         318.9968       133161.55     -807631.06     -9678.7318      0.36240618     0.057071647    29.442551      43.141125    
     98770   197.54         311.28079      134928.54     -807628.66     -9723.5365      0.36242459     0.057332929    29.480232      42.793104    
     98780   197.56         304.73975      133201.43     -807630.59     -9639.4552      0.36244287     0.056834294    29.471804      42.445086    
     98790   197.58         310.2524       134213.53     -807631.14     -9649.7219      0.362461       0.056891981    29.484883      42.097068    
     98800   197.6          314.31165      133087.56     -807631.27     -9669.3699      0.36247899     0.057004991    29.491381      41.749052    
     98810   197.62         313.36994      133121.69     -807630.45     -9695.8661      0.36249683     0.057158383    29.479468      41.401038    
     98820   197.64         307.79588      134254.16     -807631        -9658.0093      0.36251453     0.056932432    29.479188      41.053027    
     98830   197.66         315.17879      133021.4      -807632.28     -9654.0714      0.36253209     0.056906463    29.476615      40.705017    
     98840   197.68         315.11188      134135.85     -807630.33     -9722.3919      0.36254951     0.057306429    29.482922      40.357009    
     98850   197.7          302.32944      134028.72     -807629.45     -9702.0964      0.36256678     0.057184077    29.469942      40.009004    
     98860   197.72         303.75147      135044.31     -807629.54     -9707.2269      0.36258391     0.057211613    29.484901      39.660998    
     98870   197.74         305.36853      132965.01     -807632.66     -9621.9017      0.3626009      0.056706074    29.481762      39.312995    
     98880   197.76         310.60409      135542.6      -807630.57     -9716.0488      0.36261774     0.057258264    29.468013      38.964996    
     98890   197.78         304.3855       131665.24     -807632.13     -9649.6894      0.36263445     0.056864578    29.458622      38.616999    
     98900   197.8          310.01325      134821.04     -807631.95     -9682.1043      0.362651       0.05705299     29.415815      38.26901     
     98910   197.82         296.53375      130820.24     -807632.14     -9627.776       0.36266742     0.056730286    29.455998      37.921017    
     98920   197.84         305.5934       135691.88     -807629.71     -9750.0347      0.36268369     0.0574481      29.46737       37.573025    
     98930   197.86         299.15553      132352.92     -807631.18     -9687.7822      0.36269982     0.057078765    29.491727      37.225031    
     98940   197.88         294.82141      136102.14     -807628.61     -9752.6618      0.36271581     0.057458492    29.47704       36.877041    
     98950   197.9          303.23411      131361.77     -807633.6      -9642.6092      0.36273165     0.056807628    29.483079      36.529052    
     98960   197.92         299.57759      135300.57     -807630.06     -9744.7319      0.36274735     0.05740678     29.491994      36.181063    
     98970   197.94         300.9791       131040.12     -807633.82     -9643.0501      0.36276291     0.05680533     29.470839      35.833079    
     98980   197.96         299.84442      134187.06     -807632.5      -9682.5747      0.36277832     0.057035738    29.484919      35.485095    
     98990   197.98         290.99534      130949.97     -807633.86     -9613.0604      0.36279359     0.056623877    29.455949      35.137116    
     99000   198            291.463        134796.65     -807630.17     -9736.829       0.36280872     0.057350521    29.470433      34.789137    
     99010   198.02         288.97476      131889.38     -807631.3      -303.13342      0.3628237      0.057132823    29.565614      34.441149    
     99020   198.04         293.27506      135217.89     -807630.17     -304.81761      0.36283855     0.0574479      29.558192      34.093164    
     99030   198.06         294.21581      133436.7      -807631.68     -303.65624      0.36285324     0.057226702    29.545384      33.745183    
     99040   198.08         295.09283      134244.74     -807631.58     -303.96752      0.3628678      0.057283068    29.548938      33.397202    
     99050   198.1          295.16223      133142.39     -807632.62     -302.93572      0.36288221     0.057086357    29.526819      33.049226    
     99060   198.12         298.31186      132274.53     -807633.89     -302.13648      0.36289648     0.056933506    29.509956      32.701254    
     99070   198.14         293.77838      132801.5      -807633.57     -301.74017      0.36291061     0.056856613    29.494996      32.353286    
     99080   198.16         289.92177      132255.88     -807632.94     -301.78937      0.36292459     0.056863693    29.579051      32.00531     
     99090   198.18         299.63022      134587.04     -807631.91     -303.94455      0.36293843     0.057267591    29.557936      31.657338    
     99100   198.2          295.63303      132793.94     -807632.26     -302.89203      0.36295213     0.057067129    29.571696      31.309367    
     99110   198.22         297.59001      135315.38     -807631.07     -303.98423      0.36296568     0.057270768    29.563251      30.961399    
     99120   198.24         300.6663       132738.42     -807633        -302.18408      0.36297909     0.056929516    29.561585      30.613432    
     99130   198.26         296.99347      134979.67     -807629.17     -304.99824      0.36299236     0.057457586    29.586538      30.265466    
     99140   198.28         301.02452      131433.48     -807632.86     -301.54112      0.36300548     0.056804257    29.557997      29.917504    
     99150   198.3          302.89446      134461.36     -807631.14     -302.97965      0.36301846     0.057073205    29.55516       29.569544    
     99160   198.32         297.99024      131552.12     -807632        -301.17066      0.3630313      0.056730433    29.55117       29.221587    
     99170   198.34         312.09902      135769.86     -807630.3      -304.43696      0.36304399     0.057343689    29.567916      28.87363     
     99180   198.36         306.94819      132163.39     -807631.53     -302.39356      0.36305655     0.056956826    29.543225      28.525677    
     99190   198.38         317.33953      135834.95     -807631.11     -303.9055       0.36306895     0.05723965     29.528195      28.177728    
     99200   198.4          307.06226      131992.77     -807631.55     -302.06517      0.36308122     0.056891108    29.524499      27.829781    
     99210   198.42         305.62896      135590.31     -807628.74     -304.42738      0.36309334     0.057334093    29.505036      27.481837    
     99220   198.44         312.91913      132249.83     -807632.12     -302.00775      0.36310532     0.056876517    29.517049      27.133895    
     99230   198.46         305.81968      134129.25     -807631.13     -301.82632      0.36311715     0.056840495    29.519374      26.785953    
     99240   198.48         308.74916      133006.5      -807631.48     -301.8582       0.36312885     0.056844669    29.543975      26.438012    
     99250   198.5          298.64914      135510.76     -807627.05     -304.68764      0.3631404      0.057375673    29.494303      26.090077    
     99260   198.52         313.36098      133173.56     -807631.29     -302.45864      0.3631518      0.056954142    29.547804      25.742139    
     99270   198.54         310.47449      134807.23     -807629.9      -303.26999      0.36316306     0.057105151    29.550969      25.394202    
     99280   198.56         318.42395      133721.91     -807631.36     -302.87361      0.36317418     0.057028767    29.535376      25.046269    
     99290   198.58         305.37371      135286.07     -807627.75     -304.52227      0.36318516     0.057337464    29.538039      24.698338    
     99300   198.6          305.88847      133789.89     -807629.88     -302.39184      0.36319599     0.056934635    29.53679       24.350408    
     99310   198.62         319.891        133223.68     -807632.61     -301.48269      0.36320668     0.056761789    29.54878       24.00248     
     99320   198.64         308.5911       134630.04     -807629.69     -302.76386      0.36321723     0.057001345    29.55901       23.654552    
     99330   198.66         313.30319      135200.46     -807628.75     -304.25425      0.36322763     0.057280301    29.541385      23.306628    
     99340   198.68         317.00813      134822.2      -807629.99     -303.40145      0.36323789     0.057118135    29.528938      22.958707    
     99350   198.7          311.01705      133704.11     -807630.26     -302.25112      0.36324801     0.056899991    29.50984       22.610789    
     99360   198.72         318.25654      135339.16     -807629.49     -303.96231      0.36325798     0.057220559    29.544042      22.26287     
     99370   198.74         314.29435      133299.92     -807629.14     -303.7797       0.36326781     0.057184635    29.547505      21.914953    
     99380   198.76         317.03357      135277.2      -807629.14     -304.02266      0.3632775      0.057228844    29.54981       21.567038    
     99390   198.78         313.2979       131732.31     -807632.14     -300.53814      0.36328704     0.056571436    29.540854      21.219125    
     99400   198.8          319.98825      135516.09     -807629.37     -304.11893      0.36329644     0.05724398     29.560572      20.871213    
     99410   198.82         312.25279      132720.69     -807630.29     -302.29602      0.3633057      0.056899407    29.553671      20.523303    
     99420   198.84         313.75839      135321.63     -807628.81     -303.80633      0.36331481     0.057182249    29.555032      20.175395    
     99430   198.86         301.99512      133080.6      -807630.22     -300.86285      0.36332378     0.056626831    29.560975      19.827488    
     99440   198.88         318.33966      136367.4      -807628.97     -304.3118       0.36333261     0.057274582    29.551006      19.479584    
     99450   198.9          313.1083       133279.33     -807629.32     -303.35052      0.36334129     0.057092296    29.567616      19.131681    
     99460   198.92         313.31623      135814.88     -807628.56     -304.06664      0.36334983     0.057225729    29.56609       18.78378     
     99470   198.94         321.82458      132333.87     -807632.37     -301.55948      0.36335823     0.056752567    29.550378      18.435882    
     99480   198.96         320.83246      135078.07     -807629.19     -304.63027      0.36336648     0.057329176    29.561066      18.087985    
     99490   198.98         310.25072      132228.65     -807628.73     -303.82838      0.3633746      0.05717699     29.533689      17.740092    
     99500   199            313.13433      135006.41     -807629.65     -303.30925      0.36338256     0.057078044    29.543067      17.3922      
     99510   199.02         301.86421      133000.23     -807629.66     -9661.8566      0.36339039     0.056817836    29.425947      17.044317    
     99520   199.04         316.5441       134895.74     -807629.56     -9734.1533      0.36339807     0.057241777    29.450405      16.696434    
     99530   199.06         311.31463      133657.94     -807629.09     -9732.1075      0.3634056      0.05722856     29.463605      16.348551    
     99540   199.08         319.16841      134576.91     -807630.81     -9714.0489      0.363413       0.057121206    29.460816      16.000671    
     99550   199.1          313.70001      133392.93     -807631.35     -9681.3371      0.36342025     0.056927716    29.451562      15.652793    
     99560   199.12         309.18862      135519.82     -807629.13     -9738.9895      0.36342736     0.057265601    29.42027       15.304918    
     99570   199.14         308.30097      133674.52     -807630.04     -9713.8629      0.36343432     0.057116761    29.415187      14.957045    
     99580   199.16         305.17426      134508.75     -807630.94     -9676.6303      0.36344114     0.056896768    29.430423      14.609173    
     99590   199.18         304.58759      132948.81     -807631.48     -9665.5208      0.36344782     0.056830402    29.4038        14.261303    
     99600   199.2          295.56866      133887.89     -807628.6      -9724.9381      0.36345435     0.05717873     29.372988      13.913437    
     99610   199.22         305.65379      133482.89     -807630.72     -9710.2785      0.36346074     0.057091534    29.407248      13.565571    
     99620   199.24         310.13868      133579.1      -807632.17     -9688.1305      0.36346699     0.056960336    29.433466      13.217705    
     99630   199.26         304.42451      134086.92     -807631.15     -9701.1456      0.3634731      0.057035899    29.442775      12.86984     
     99640   199.28         295.70546      134075.9      -807628.63     -9748.9915      0.36347906     0.05731626     29.426395      12.521977    
     99650   199.3          312.19465      134278.6      -807631.48     -9735.1231      0.36348487     0.057233808    29.456379      12.174115    
     99660   199.32         304.70666      132342.13     -807631.87     -9694.1011      0.36349055     0.056991746    29.454495      11.826255    
     99670   199.34         309.66147      133918.33     -807632.19     -9708.5683      0.36349608     0.05707593     29.443411      11.478397    
     99680   199.36         298.49965      132592.3      -807630.86     -9705.5533      0.36350147     0.05705736     29.471968      11.130539    
     99690   199.38         312.79172      135152.48     -807631.34     -9752.6793      0.36350671     0.057333579    29.467188      10.782684    
     99700   199.4          297.46737      131870.16     -807632.18     -9662.4501      0.36351181     0.056802347    29.479947      10.434829    
     99710   199.42         303.98979      135440.02     -807630.14     -9753.668       0.36351677     0.057337805    29.471859      10.086977    
     99720   199.44         291.81046      132550.54     -807630.58     -9689.6466      0.36352158     0.056960695    29.486443      9.7391256    
     99730   199.46         299.26831      136308.59     -807629.06     -9765.6653      0.36352625     0.057406834    29.48331       9.3912763    
     99740   199.48         298.2402       131286.77     -807632.58     -9650.4144      0.36353078     0.056728633    29.481641      9.0434287    
     99750   199.5          303.49737      136086.03     -807629.91     -9752.8429      0.36353516     0.057330053    29.479826      8.695583     
     99760   199.52         298.4968       131697.82     -807632.09     -9660.7758      0.3635394      0.056788194    29.456446      8.3477396    
     99770   199.54         309.71908      135795.6      -807630.26     -9760.1696      0.3635435      0.057371806    29.456222      7.9998979    
     99780   199.56         296.17662      131346.12     -807632.12     -9639.0783      0.36354745     0.056659396    29.431887      7.6520585    
     99790   199.58         307.80033      135217.49     -807630.17     -9740.9131      0.36355126     0.057257391    29.427677      7.3042208    
     99800   199.6          307.12199      131755.01     -807630.64     -9718.9655      0.36355493     0.057127805    29.475772      6.9563836    
     99810   199.62         303.17854      136944.49     -807627.89     -9774.4833      0.36355845     0.057453581    29.45744       6.6085485    
     99820   199.64         310.67922      132960.26     -807631.59     -9680.2073      0.36356183     0.056898906    29.456925      6.2607152    
     99830   199.66         308.25362      136346.3      -807628.81     -9742.0991      0.36356507     0.057262187    29.461907      5.9128833    
     99840   199.68         309.4915       133458.63     -807630.43     -9686.4105      0.36356816     0.056934376    29.437853      5.5650537    
     99850   199.7          311.50753      134946.84     -807628.93     -9728.2386      0.36357111     0.057179767    29.443913      5.2172255    
     99860   199.72         312.49718      133117.8      -807631.21     -9651.5054      0.36357392     0.056728314    29.427816      4.8693993    
     99870   199.74         310.95359      133665.95     -807630.06     -9671.0191      0.36357658     0.056842593    29.431034      4.5215746    
     99880   199.76         321.60701      133517.71     -807629.73     -9724.108       0.3635791      0.057154232    29.454216      4.1737512    
     99890   199.78         326.40827      133773.59     -807630.11     -9727.5142      0.36358148     0.057173879    29.438755      3.8259296    
     99900   199.8          317.30668      134164.92     -807629.3      -9709.1692      0.36358371     0.057065705    29.382108      3.4781104    
     99910   199.82         323.54693      134417.89     -807630.66     -9692.7726      0.3635858      0.056969007    29.375206      3.1302927    
     99920   199.84         321.07288      135496.2      -807627.76     -9773.9111      0.36358775     0.057445588    29.41587       2.7824761    
     99930   199.86         320.21202      133805.45     -807628.9      -9733.6676      0.36358955     0.057208776    29.449781      2.4346608    
     99940   199.88         323.41115      134670.58     -807631.36     -9668.504       0.36359121     0.056825523    29.437157      2.0868472    
     99950   199.9          308.98942      133241.44     -807630.21     -9642.3116      0.36359273     0.056671344    29.414679      1.7390354    
     99960   199.92         317.43424      135570.9      -807627.36     -9770.6623      0.3635941      0.057425491    29.461404      1.391225     
     99970   199.94         319.27583      133375.45     -807630.53     -9683.1328      0.36359533     0.056910858    29.479965      1.0434162    
     99980   199.96         320.80674      135846.16     -807630.37     -9693.4042      0.36359641     0.056971056    29.488235      0.69560905   
     99990   199.98         308.47999      134344.24     -807628.6      -9701.0383      0.36359736     0.057015776    29.483753      0.34780366   
    100000   200            309.63116      136998.84     -807625.44     -9810.311       0.36359816     0.057657876    29.476822      0            
Loop time of 3478.03 on 32 procs for 100000 steps with 1080 atoms

Performance: 4.968 ns/day, 4.831 hours/ns, 28.752 timesteps/s, 31.052 katom-step/s
72.0% CPU use with 32 MPI tasks x 1 OpenMP threads

MPI task timing breakdown:
Section |  min time  |  avg time  |  max time  |%varavg| %total
---------------------------------------------------------------
Pair    | 2467.3     | 2786.4     | 3003.3     | 253.6 | 80.12
Neigh   | 0.00081606 | 0.00086342 | 0.00099139 |   0.0 |  0.00
Comm    | 399.82     | 616.69     | 935.84     | 538.9 | 17.73
Output  | 2.4662     | 2.4825     | 2.4988     |   0.6 |  0.07
Modify  | 65.364     | 66.204     | 66.762     |   4.6 |  1.90
Other   |            | 6.219      |            |       |  0.18

Nlocal:          33.75 ave          42 max          27 min
Histogram: 3 2 4 3 8 2 4 1 3 2
Nghost:        1028.97 ave        1050 max        1012 min
Histogram: 1 5 3 8 3 3 2 5 1 1
Neighs:              0 ave           0 max           0 min
Histogram: 32 0 0 0 0 0 0 0 0 0
FullNghs:      5367.69 ave        6678 max        4256 min
Histogram: 3 4 2 5 6 3 3 2 1 3

Total # of neighbors = 171766
Ave neighs/atom = 159.04259
Neighbor list builds = 2
Dangerous builds = 0

Total wall time: 1:01:21
