
units		metal
atom_style	atomic

read_data ${STRUCTURE}.data
read_data BaTiO3-sc333.data
Reading data file ...
  orthogonal box = (0 0 0) to (11.898253 11.898253 12.912076)
  2 by 4 by 4 MPI processor grid
  reading atoms ...
  135 atoms
  read_data CPU = 0.005 seconds
replicate $L $L $L
replicate 2 $L $L
replicate 2 2 $L
replicate 2 2 2
Replication is creating a 2x2x2 = 8 times larger system...
  orthogonal box = (0 0 0) to (23.796507 23.796507 25.824152)
  2 by 4 by 4 MPI processor grid
  1080 atoms
  replicate CPU = 0.003 seconds

pair_style allegro
pair_coeff	* * ${MODEL}.pth Ba Ti O
pair_coeff	* * BaTiO3-E0.pth Ba Ti O
mass 1 137.3
mass 2 47.9
mass 3 15.9994

timestep 0.002
compute polarization all allegro polarization 3
compute allegro will evaluate the quantity polarization of length 3 (src/compute_allegro.cpp:53)
compute polarizability all allegro polarizability 9
compute allegro will evaluate the quantity polarizability of length 9 (src/compute_allegro.cpp:53)

thermo_style custom pe fmax fnorm spcpu cpuremain

variable efield equal 1e-2*36.36
fix born all addbornforce 0.0 0.0 ${efield}
fix born all addbornforce 0.0 0.0 0.3636

thermo 10
min_style fire
#minimize 0.0 1e-6 100 100
velocity all create ${TEMP} ${SEED} dist gaussian rot yes mom yes
velocity all create 330 ${SEED} dist gaussian rot yes mom yes
velocity all create 330 6815 dist gaussian rot yes mom yes
fix nvt all nvt temp ${TEMP} ${TEMP} $(100*dt)
fix nvt all nvt temp 330 ${TEMP} $(100*dt)
fix nvt all nvt temp 330 330 $(100*dt)
fix nvt all nvt temp 330 330 0.2000000000000000111
run 5000
Neighbor list info ...
  update: every = 1 steps, delay = 0 steps, check = yes
  max neighbors/atom: 2000, page size: 100000
  master list distance cutoff = 8
  ghost atom cutoff = 8
  binsize = 8, bins = 3 3 4
  1 neighbor lists, perpetual/occasional/extra = 1 0 0
  (1) pair allegro/kk, perpetual
      attributes: full, newton on, kokkos_device
      pair build: full/bin/kk/device
      stencil: full/bin/3d
      bin: kk/device
Per MPI rank memory allocation (min/avg/max) = 3.516 | 3.516 | 3.516 Mbytes
    PotEng          Fmax          Fnorm          S/CPU         CPULeft    
-807708.29      1.5955323      37.04373       0              0            
-807644.23      3.4625317      45.722465      2.2592364      2208.7118    
-807633.4       2.3945852      35.968197      25.8276        1198.5513    
-807603.86      3.4421567      38.220907      25.843342      861.53388    
-807601.2       4.172834       50.694915      25.749558      693.00647    
-807567.57      3.3271264      40.878828      25.703061      591.80423    
-807602.87      3.0772399      39.120403      25.770436      524.12265    
-807645.74      3.8453936      34.801851      25.736978      475.70328    
-807683.21      2.5095257      34.837001      25.747511      439.2819     
-807666.52      3.2540509      34.977342      25.731048      410.88139    
-807651.73      3.2138474      35.023459      25.828182      388.01163    
-807657.44      2.6827007      28.713963      25.813514      369.2394     
-807625.11      2.8201009      31.763941      25.827148      353.52299    
-807583.06      3.5684495      40.662063      25.824003      340.16668    
-807567.58      3.1021516      38.670602      25.830036      328.65997    
-807630.76      3.6457262      33.511013      25.816726      318.64231    
-807653.94      3.8632108      31.541629      25.782         309.84423    
-807664.35      2.9191124      34.695937      25.798361      302.02859    
-807645.96      3.9190324      44.709188      25.830339      295.02545    
-807678.41      2.9159546      36.788259      25.806196      288.72787    
-807639.93      3.8109551      39.770704      25.804015      283.02211    
-807615.09      3.1297526      39.596414      25.83341       277.81278    
-807559.2       4.2994727      46.393577      25.85774       273.03391    
-807601.77      4.4459531      49.443214      25.817689      268.64943    
-807613.52      4.8547139      39.673407      25.804828      264.60187    
-807640.03      3.2476953      36.367274      25.83977       260.83715    
-807641.58      5.3354592      46.150054      25.837643      257.33284    
-807679.14      2.9292955      38.841251      25.812644      254.066      
-807661.05      3.5189027      36.687871      25.738439      251.02365    
-807635.25      3.7913709      34.123416      25.843076      248.1388     
-807603.83      4.109415       36.282818      25.86015       245.41646    
-807602.13      3.904143       43.328883      25.823645      242.85308    
-807593.55      3.3506152      37.931608      25.745349      240.44293    
-807607.86      4.0496133      34.516913      25.837368      238.13573    
-807639         3.6709338      32.437237      25.870944      235.9346     
-807671.89      2.3626798      32.616907      25.842932      233.84273    
-807673.62      2.6047957      33.964444      25.780315      231.85768    
-807642.39      4.1432569      39.197235      25.834408      229.94881    
-807644.81      3.5556766      32.579065      25.824413      228.12185    
-807618.32      3.4784969      36.046305      25.827367      226.36821    
-807598.98      4.6180386      44.351525      25.740549      224.6979     
-807567.61      4.2921699      42.575987      25.857283      223.07048    
-807621.33      3.4197344      36.351092      25.836813      221.50549    
-807646.09      3.7515213      36.634201      25.822671      219.99754    
-807670.36      2.9741147      35.776032      25.78187       218.54688    
-807640.4       5.2066101      46.430532      25.842773      217.13421    
-807663.3       2.9337424      35.90081       25.794731      215.77325    
-807642.53      3.7249845      37.095479      25.791544      214.45417    
-807621.71      3.268334       38.592017      25.793458      213.17363    
-807563.64      3.6592163      43.353685      25.8637        211.91983    
-807597.86      4.1072139      43.940735      25.853169      210.70214    
-807621.25      3.2520196      36.379266      25.797092      209.52444    
-807650.78      3.6279934      34.151775      25.85042       208.37024    
-807642.61      4.5059818      40.723333      25.874216      207.24198    
-807667.93      3.4976171      35.614214      25.834315      206.14614    
-807663.79      3.4245765      34.581531      25.780366      205.08262    
-807640.45      3.5674798      32.420176      25.823184      204.03813    
-807599.38      3.5083563      36.376234      25.881751      203.00989    
-807594.65      3.6268707      38.803142      25.852292      202.00714    
-807601.54      3.6548822      40.387908      25.805628      201.0305     
-807617.87      3.547827       34.060452      25.822928      200.07159    
-807635.03      3.3422735      33.920603      25.906275      199.12246    
-807661.55      3.4184843      34.169807      25.857245      198.19666    
-807671.69      2.7072213      36.239196      25.769787      197.29708    
-807646.27      5.298335       38.048552      25.769597      196.41351    
-807631.29      3.4202636      34.165039      25.866588      195.53544    
-807612.18      4.2452152      35.562345      25.86235       194.67269    
-807601.44      4.1737457      44.883937      25.795693      193.8306     
-807579.69      4.7410354      41.253715      25.818127      192.99974    
-807612.15      3.0689343      37.456854      25.885625      192.17543    
-807643.23      4.0775058      36.896761      25.860257      191.36596    
-807670.83      2.7040908      36.492012      25.824339      190.57164    
-807647.5       4.502083       42.372959      25.801694      189.79066    
-807650.65      3.1520785      36.841439      25.871991      189.01429    
-807639.98      3.5479714      35.947783      25.852068      188.25018    
-807622.92      3.7359741      37.830358      25.817429      187.49906    
-807577.74      3.7604752      39.832942      25.824972      186.75689    
-807586.22      2.8915488      40.353584      25.846972      186.02213    
-807621.46      3.1127455      33.914319      25.827176      185.2979     
-807654.08      2.6353808      32.61473       25.845927      184.58069    
-807647.47      3.3350925      37.387249      25.835112      183.8726     
-807653.86      4.2787066      37.19314       25.786137      183.17624    
-807663.39      3.3076078      33.2525        25.801743      182.4862     
-807642.87      3.5779549      33.618424      25.822746      181.80187    
-807605.14      3.3507989      35.539912      25.843077      181.1231     
-807582.99      3.7578011      40.372406      25.846687      180.45094    
-807601.2       4.6847559      41.462327      25.744262      179.79282    
-807621.96      3.781855       34.820412      25.798882      179.137      
-807636.29      3.1267776      34.938298      25.849226      178.48374    
-807649.28      4.4436559      37.790692      25.882346      177.83418    
-807668.15      2.7477711      36.648662      25.792116      177.19662    
-807651.36      3.8078726      36.492646      25.806173      176.56361    
-807632.08      2.7807867      33.77799       25.850075      175.93301    
-807605.94      4.2826149      36.105659      25.866971      175.30655    
-807604.33      4.1967161      42.703233      25.804145      174.68926    
-807592.09      4.0472387      39.068031      25.806382      174.07667    
-807614.52      3.5309223      35.814185      25.846328      173.46624    
-807637.09      4.0015566      36.406094      25.876803      172.85853    
-807665.44      2.9571007      35.901122      25.787665      172.26081    
-807655.68      4.1879332      36.787326      25.773313      171.66821    
-807645.7       3.3824271      35.959883      25.8456        171.07536    
-807633.94      5.1683214      34.700509      25.907382      170.48295    
-807622.07      3.0958448      36.096205      25.810527      169.90023    
-807592.4       3.547941       39.11838       25.808378      169.32143    
-807589.44      3.3675963      39.312656      25.831584      168.74498    
-807620.45      3.96664        34.925645      25.86385       168.17033    
-807654.16      2.9985522      32.757066      25.818383      167.60175    
-807655.7       3.6576526      35.01305       25.820716      167.03643    
-807650.04      4.218811       36.643478      25.832647      166.47375    
-807655.16      2.5984012      33.562635      25.78891       165.91666    
-807640.1       2.977245       32.772476      25.815884      165.36121    
-807612.61      3.101622       35.307813      25.834492      164.8078     
-807582.45      2.8593049      38.226669      25.845092      164.25682    
-807603.52      3.5333401      39.056695      25.776969      163.71225    
-807626.67      3.3585085      35.127485      25.713877      163.17364    
-807646.53      3.1688997      34.149608      25.812421      162.63267    
-807642.28      5.0509795      40.039643      25.836404      162.09315    
-807662.4       3.1338223      35.979432      25.841645      161.55598    
-807652.22      3.6228448      36.074874      25.804466      161.02317    
-807633.07      2.8279417      34.519635      25.769597      160.49448    
-807599.95      3.4493179      36.87935       25.801578      159.9666     
-807599.68      3.4809245      40.158447      25.842503      159.43912    
-807605.06      3.4161036      37.237647      25.768957      158.91737    
-807623.51      3.5875049      34.017561      25.786648      158.39698    
-807633.96      3.8537728      35.70621       25.771406      157.87942    
-807660.26      2.7697307      34.190624      25.746211      157.36507    
-807658.74      3.2089678      35.417411      25.748169      156.85263    
-807645.13      3.9098316      34.690786      25.816079      156.33915    
-807624.06      3.4039066      35.069399      25.839416      155.82662    
-807615.27      3.2906101      36.565032      25.813975      155.31713    
-807599.94      3.6822333      39.754534      25.772107      154.81132    
-807595.52      3.0438929      38.146225      25.78747       154.30665    
-807619.74      3.4381991      34.609305      25.803894      153.80306    
-807648.04      3.3308137      34.460415      25.813082      153.30084    
-807659.11      3.460069       36.131891      25.784768      152.80149    
-807647.84      3.8219214      37.299223      25.808759      152.30282    
-807644.46      3.1847236      35.030133      25.82883       151.80498    
-807633.56      3.2504859      34.742074      25.778009      151.31078    
-807614         3.0934381      37.315059      25.735641      150.81979    
-807584.87      3.7462414      39.30296       25.728912      150.33054    
-807600.1       3.7303347      37.623243      25.754408      149.84174    
-807629.5       3.2830981      34.434729      25.825345      149.35165    
-807650.49      2.7883603      33.948929      25.780213      148.86472    
-807644.7       3.7704843      38.168327      25.838632      148.37698    
-807653.7       2.9410143      35.428371      25.806364      147.89184    
-807648.43      3.5863354      35.203448      25.804908      147.4081     
-807632.51      2.7564764      33.923653      25.791577      146.92616    
-807595.2       3.7918793      38.068179      25.791986      146.44549    
-807592.66      4.5025762      40.079932      25.729111      145.96833    
-807606.25      4.2925821      38.803464      25.698195      145.49346    
-807629.27      3.0657365      35.344347      25.771898      145.01713    
-807634.56      4.2041334      37.739919      25.840278      144.5396     
-807651.7       3.6380282      36.618382      25.744137      144.06657    
-807656.55      3.0265339      35.998541      25.754936      143.59428    
-807643.97      3.6216772      35.037225      25.728755      143.12397    
-807620.05      4.0188396      34.884106      25.770608      142.6533     
-807605.27      3.1111868      36.469924      25.831891      142.18167    
-807599.93      3.5172103      39.200463      25.797344      141.71224    
-807605.61      3.1279         36.485622      25.766203      141.24486    
-807619.32      2.9608212      35.732947      25.821992      140.77669    
-807644.05      3.2220985      34.827828      25.83618       140.30907    
-807657.87      3.1591586      35.449337      25.799765      139.8436     
-807650.13      4.1122937      36.41546       25.771332      139.37998    
-807637.93      3.2618152      35.176173      25.807959      138.91616    
-807626.49      3.8789845      35.34502       25.799654      138.45352    
-807614.03      3.8267994      37.815651      25.800728      137.99176    
-807592.18      3.9178998      39.244754      25.798752      137.53095    
-807602.6       3.9557417      37.261787      25.83528       137.06992    
-807628.06      3.4101801      34.41728       25.795814      136.61095    
-807652.32      3.1442901      34.206679      25.803485      136.15259    
-807648.56      3.5076561      36.753148      25.79693       135.69526    
-807648.31      3.3064854      35.768499      25.814324      135.23824    
-807642.61      3.5488113      35.060411      25.746303      134.78399    
-807632.92      3.0572873      34.542104      25.770483      134.3298     
-807601.5       3.3334355      36.953876      25.73448       133.87739    
-807593.92      3.4601108      39.362103      25.68649       133.42706    
-807610.56      3.5477136      36.269526      25.802499      132.9742     
-807637.61      3.1875958      33.477623      25.812449      132.52181    
-807641.53      4.4035732      35.266877      25.807331      132.07029    
-807649.29      4.3092896      35.342235      25.793951      131.61984    
-807653.62      2.9523532      34.840229      25.780107      131.17046    
-807644.84      3.5814925      34.235808      25.80162       130.72118    
-807620.64      3.3253763      34.591583      25.812258      130.27231    
-807600.99      3.5621314      37.308374      25.873543      129.82252    
-807603.49      3.8954341      38.126732      25.834394      129.37442    
-807613.79      3.5643367      37.265442      25.82951       128.92711    
-807629.14      3.3421725      34.80862       25.798506      128.48123    
-807640.03      2.9879255      35.437912      25.859095      128.03445    
-807656.85      3.3276176      34.928421      25.798096      127.58983    
-807649.51      3.2588036      35.674601      25.773781      127.14642    
-807637.23      3.0345215      33.660664      25.772288      126.70362    
-807618.3       3.2777409      33.900815      25.829161      126.26002    
-807612.54      3.4501714      36.234433      25.80968       125.81747    
-807601.51      3.5740858      37.828219      25.784642      125.37609    
-807609.28      3.1844515      36.510452      25.783663      124.93529    
-807629.02      3.3048726      34.906943      25.791893      124.49483    
-807649.84      3.9932223      34.955311      25.712792      124.05677    
-807651.51      3.4298857      36.376996      25.743484      123.61849    
-807644.62      4.4686622      35.816619      25.773471      123.18002    
-807635.66      3.9578464      35.576983      25.837956      122.7406     
-807625.59      4.2599359      35.481803      25.816046      122.30219    
-807606.74      3.4019548      36.872013      25.794499      121.86478    
-807596.89      3.4319898      38.567425      25.812454      121.42746    
-807612.87      3.068151       36.033153      25.858922      120.98961    
-807635.24      3.1407388      34.534474      25.806852      120.55339    
-807646.02      2.7092677      34.66551       25.791145      120.11799    
-807644.61      3.5446881      36.585384      25.793202      119.68301    
-807646.43      3.5408714      35.605919      25.74284       119.24956    
-807638.28      3.8527673      34.977011      25.771952      118.81592    
-807620.99      2.9510775      35.582222      25.814514      118.38183    
-807599.58      3.727915       37.60215       25.784418      117.94881    
-807602.39      3.011353       38.355802      25.768854      117.51654    
-807616.77      3.1675889      36.019478      25.759318      117.08488    
-807633.24      3.9192088      34.917243      25.798007      116.65285    
-807638.86      3.3223682      36.16755       25.778485      116.22162    
-807650.05      2.9463284      35.658475      25.805916      115.79025    
-807647.16      3.1864961      35.334106      25.818154      115.35904    
-807635.9       2.9513175      34.855101      25.818024      114.92824    
-807611.85      3.940093       36.254534      25.842124      114.49737    
-807605.86      3.0325046      38.549871      25.84628       114.06683    
-807603.67      3.4937705      38.165759      25.763475      113.63826    
-807616.73      3.5749542      36.581119      25.827301      113.20885    
-807628.72      3.9979388      36.159177      25.821446      112.77992    
-807647.25      2.8744545      35.518936      25.843421      112.35097    
-807649.58      3.1084934      35.984654      25.79797       111.92322    
-807644.2       3.2436887      35.522058      25.803633      111.49573    
-807629.69      4.436321       34.650495      25.785115      111.06893    
-807619.94      3.1288247      34.772316      25.824259      110.64177    
-807606.72      3.6149192      37.51649       25.809316      110.21523    
-807606.18      3.5919283      36.830442      25.77488       109.78963    
-807615.63      2.8356036      35.76803       25.782575      109.36423    
-807637.96      3.1013361      32.940943      25.80002       108.93885    
-807650.95      3.1403758      33.968181      25.788802      108.51399    
-807647.82      3.3879878      35.082498      25.811508      108.08906    
-807639.79      3.2420173      35.480031      25.766294      107.66522    
-807634.78      2.8565278      33.591521      25.829611      107.24061    
-807620.03      3.3774906      35.306962      25.78674       106.81704    
-807602.18      2.7830089      36.964562      25.790855      106.39371    
-807603.8       3.7973474      37.025034      25.718217      105.97187    
-807623.42      2.9278895      34.615322      25.79474       105.54906    
-807639.8       2.84655        34.171592      25.808302      105.12632    
-807644.72      3.2573842      34.820252      25.83616       104.70342    
-807645         3.2457727      35.357424      25.807023      104.28128    
-807645.1       3.2972753      33.985722      25.837036      103.85895    
-807633.42      2.5746475      33.930329      25.7948        103.43757    
-807613.08      2.8031699      35.014506      25.860808      103.01544    
-807603.73      3.0888074      36.82315       25.856736      102.59367    
-807611.26      3.3364389      36.140285      25.834041      102.17252    
-807626.02      2.7333882      34.232673      25.807236      101.75206    
-807636.24      3.3478556      34.8706        25.768964      101.33244    
-807644.79      3.609732       34.965668      25.759776      100.91321    
-807648.85      3.7710608      35.117612      25.775037      100.494      
-807643.28      3.2767622      34.47667       25.774415      100.07505    
-807626.43      3.0974632      34.408093      25.809278      99.655832    
-807612.21      3.9857855      35.483398      25.791115      99.237129    
-807606.44      3.9829757      36.818139      25.798824      98.818556    
-807612.54      4.2551948      36.205417      25.779998      98.400496    
-807622.7       3.4717062      34.483687      25.80225       97.982354    
-807638.86      4.5148108      34.196232      25.839838      97.56392     
-807647.7       3.4122285      35.509451      25.8165        97.146054    
-807648.06      3.4754793      35.06087       25.78666       96.728837    
-807635.81      3.5216442      34.91814       25.779241      96.311948    
-807626.91      2.9121271      34.525758      25.802887      95.894956    
-807613.37      3.1330579      36.526176      25.838397      95.477709    
-807605.58      3.0868483      36.947487      25.790185      95.061337    
-807608         3.20274        37.21298       25.808013      94.644945    
-807625.21      3.2519806      35.228763      25.795222      94.228938    
-807640.49      4.4355539      35.380285      25.804664      93.81302     
-807647.05      3.5961363      35.743723      25.796226      93.397423    
-807642.53      3.3015195      36.452343      25.804404      92.981929    
-807635.84      3.2203879      36.096915      25.799977      92.566699    
-807628.96      3.816783       35.551528      25.82287       92.151382    
-807608.79      3.814835       37.060844      25.78471       91.736752    
-807601.88      3.6727607      38.032278      25.781859      91.322354    
-807611.32      3.6455763      36.540208      25.725406      90.908851    
-807630.36      3.5923216      34.765508      25.776011      90.494905    
-807638.5       2.8041482      34.800193      25.752914      90.081429    
-807643.05      3.6900081      35.676029      25.783015      89.66777     
-807643.54      3.1761034      34.724237      25.80166       89.254072    
-807639.56      4.0685496      34.567737      25.796839      88.84062     
-807623.05      3.2491396      35.4828        25.792104      88.427407    
-807607.73      3.7098644      37.097532      25.826279      88.013977    
-807607.35      3.507157       37.528039      25.798726      87.601052    
-807615.96      2.9788747      36.493651      25.794757      87.188351    
-807629.26      3.1175501      34.122435      25.740696      86.776446    
-807636.88      3.649003       35.527698      25.786646      86.364183    
-807645.92      2.7953251      35.128565      25.755944      85.952438    
-807645.42      2.7066045      33.812789      25.752562      85.540893    
-807635.78      2.9053443      33.452032      25.791403      85.12908     
-807620.48      3.0642         33.861569      25.849914      84.716792    
-807612.21      3.084307       36.60501       25.815951      84.305049    
-807611.12      2.685642       36.191234      25.840518      83.893208    
-807616.9       3.2863091      35.887073      25.840728      83.481536    
-807628.23      3.3675591      35.584624      25.814327      83.070311    
-807641.4       3.5343969      35.74767       25.791579      82.659488    
-807646.03      3.3286137      36.329859      25.781181      82.248931    
-807642.36      4.4375176      35.44819       25.770861      81.838634    
-807630.74      4.007887       35.572127      25.818363      81.427998    
-807623.95      3.6385264      35.623886      25.783372      81.017876    
-807612.73      3.614443       36.412321      25.790501      80.60783     
-807608.95      3.1449396      36.372795      25.783623      80.198002    
-807616.53      4.1299859      36.005302      25.862544      79.787538    
-807635.1       3.0142581      34.138411      25.794985      79.377895    
-807642.86      3.6318037      34.977491      25.801483      78.968334    
-807644.5       2.9581312      34.316218      25.805692      78.558877    
-807638.91      3.6447744      35.187078      25.838173      78.149252    
-807636.21      3.0792531      35.106788      25.838126      77.739776    
-807622.56      2.9434881      35.029018      25.822199      77.330595    
-807608.37      3.2699641      36.737457      25.802688      76.92174     
-807610.84      2.867342       35.831481      25.836513      76.512709    
-807620.32      3.358185       35.700529      25.779348      76.104345    
-807634.62      3.0462633      34.946794      25.738447      75.696488    
-807638.73      4.1178777      35.460768      25.786131      75.288322    
-807644.07      2.9262987      35.087146      25.807557      74.880093    
-807641.26      3.7621579      35.878118      25.822274      74.471866    
-807632.42      3.5038797      34.531513      25.811693      74.063866    
-807614.24      4.4367785      36.55889       25.835944      73.655783    
-807611.09      3.1089991      36.805958      25.809776      73.24806     
-807610.8       3.2638187      37.509918      25.765644      72.840844    
-807621.96      3.3185917      36.064858      25.761402      72.433785    
-807630.48      3.6219289      35.826322      25.782718      72.026662    
-807641.09      3.5586873      35.39825       25.838742      71.619191    
-807643.58      2.8781766      35.811558      25.806017      71.212118    
-807638.23      3.6979457      35.785796      25.794497      70.805262    
-807626.52      3.6902303      36.161553      25.790264      70.398558    
-807618.02      3.5312748      36.768216      25.803357      69.991865    
-807611.71      3.6067807      37.241808      25.645228      69.586564    
-807610.83      3.3176218      37.844344      25.700619      69.180913    
-807621.69      3.2558889      35.14871       25.703696      68.775339    
-807630.99      3.5373127      36.762082      25.820937      68.368947    
-807641.56      3.1860339      35.701496      25.802241      67.962815    
-807639.94      3.5929988      36.987946      25.798262      67.556827    
-807635.07      3.0341716      35.898007      25.792262      67.150994    
-807628.16      3.9830238      35.124224      25.803831      66.745183    
-807618.59      3.1121132      36.142854      25.775092      66.339696    
-807609.49      4.014466       37.207514      25.794009      65.934173    
-807612.86      3.2246122      36.251859      25.771258      65.528924    
-807623.04      3.9253346      35.490747      25.806298      65.123522    
-807634.62      3.0540431      35.495046      25.792961      64.718322    
-807641.43      4.3448102      35.47116       25.787112      64.313267    
-807639.78      3.7635103      35.914961      25.793974      63.908266    
-807636.57      3.847981       35.281733      25.76796       63.503548    
-807626.11      3.0131195      35.560211      25.751512      63.099042    
-807615.58      4.050614       36.200992      25.785863      62.694393    
-807610.22      3.7600402      36.568761      25.740485      62.290153    
-807614.13      4.041031       36.192556      25.782112      61.885721    
-807626.94      2.9998866      35.275675      25.737875      61.481683    
-807635.31      3.2581364      35.115467      25.79567       61.07735     
-807641.31      3.0359085      34.509984      25.780733      60.673211    
-807641         2.922067       35.285961      25.758012      60.269313    
-807635.95      3.5080741      34.457396      25.760723      59.865487    
-807625.18      3.5637929      34.566872      25.775688      59.461654    
-807614.89      4.194726       36.150277      25.772306      59.057933    
-807612.4       2.8766778      35.91398       25.76254       58.654363    
-807617.88      4.2300549      36.330699      25.796739      58.250667    
-807626.29      3.178472       35.023543      25.816721      57.846939    
-807635.91      4.1452962      34.860338      25.746511      57.44373     
-807640.58      3.6186886      35.535443      25.763884      57.040499    
-807641.03      3.4351627      35.556558      25.743859      56.637473    
-807632.3       3.3854842      35.592224      25.74565       56.234517    
-807624.6       3.3658248      35.459579      25.773962      55.831476    
-807616.27      3.2563782      35.690803      25.780334      55.428481    
-807614.43      3.5199139      36.71646       25.730382      55.025857    
-807618.43      3.4261058      35.364139      25.746058      54.623221    
-807628.99      4.2194445      34.578576      25.774797      54.220501    
-807636.11      3.1990498      34.155161      25.799746      53.817722    
-807642.55      3.6608253      33.981216      25.778653      53.415144    
-807637.69      2.9309831      34.633766      25.777767      53.012649    
-807631.91      3.735805       34.028947      25.812439      52.610047    
-807625.39      2.9569336      34.368301      25.846477      52.207346    
-807617.28      3.485901       35.399001      25.820897      51.804866    
-807614.37      3.7324625      36.095146      25.813826      51.402504    
-807619.67      3.8097449      35.294513      25.736261      51.000624    
-807631.1       4.2027072      35.345622      25.750702      50.598742    
-807638.4       4.2559405      34.918057      25.750896      50.196931    
-807640.74      3.6271926      34.939834      25.739004      49.795251    
-807635.82      4.9722045      34.520472      25.754454      49.393565    
-807632.77      2.9478813      34.468284      25.81755       48.991641    
-807622.04      3.9846044      35.327119      25.807387      48.589843    
-807618.42      2.8341536      35.405757      25.772705      48.188286    
-807613.12      4.1696911      36.65137       25.745345      47.786932    
-807625.38      4.1226814      35.139         25.771239      47.385523    
-807630.56      3.2731909      36.085262      25.788998      46.984102    
-807638.72      3.431051       34.621039      25.789751      46.582748    
-807638.24      3.1555435      35.331532      25.803182      46.181405    
-807638.37      3.35424        34.863503      25.809643      45.780104    
-807628.41      3.8206658      35.158326      25.808405      45.378881    
-807622.62      3.8444498      35.412333      25.815083      44.977699    
-807613.86      3.1513443      36.129082      25.765233      44.576805    
-807617.25      3.4760379      36.220299      25.70308       44.176244    
-807622.96      3.7487869      35.25678       25.699523      43.775758    
-807631.71      3.2060025      35.202106      25.768591      43.375039    
-807638.51      2.8812133      35.218275      25.756636      42.974434    
-807639.98      3.8919106      35.06884       25.796772      42.573727    
-807636.17      3.381348       35.458612      25.754537      42.173258    
-807627.73      3.5512032      35.805008      25.818937      41.772593    
-807619.99      3.2583097      35.577961      25.814948      41.372011    
-807613.84      3.3821781      36.10971       25.803564      40.971541    
-807617.24      3.4507362      36.235272      25.777665      40.571234    
-807621.14      2.8121893      35.312429      25.796827      40.170917    
-807631.21      3.0533522      35.366374      25.797422      39.770661    
-807635.92      2.9835053      36.122862      25.746854      39.370656    
-807639.96      3.9875471      35.971089      25.691365      38.970914    
-807632.15      3.3288933      36.594721      25.697636      38.5712      
-807627.69      5.2912572      36.482747      25.769439      38.171281    
-807617.86      3.154457       36.936307      25.764835      37.771437    
-807618.14      5.070957       36.579399      25.73238       37.371765    
-807612.8       3.988432       36.865175      25.736029      36.972133    
-807624.72      4.9439429      36.174292      25.772292      36.572433    
-807629.57      3.2883049      36.083691      25.7989        36.172701    
-807638.05      4.8382831      35.822858      25.785756      35.773072    
-807635.4       3.133112       35.852739      25.746275      35.373628    
-807634.68      4.2435441      35.812377      25.784043      34.974117    
-807625.53      3.6106672      36.837087      25.794033      34.574631    
-807619.19      3.5206625      36.142509      25.787803      34.175221    
-807612.45      3.3793612      37.199138      25.77006       33.775922    
-807618.8       3.6331557      37.037877      25.755939      33.37672     
-807625.25      3.7327427      35.947746      25.776624      32.977508    
-807633.34      2.9132322      35.3982        25.765269      32.578384    
-807637.08      3.4402889      35.385089      25.755657      32.179341    
-807638.26      3.1697208      34.608088      25.788105      31.780255    
-807633.5       3.0642472      35.111684      25.789122      31.381221    
-807626.43      3.229207       35.478819      25.771405      30.982289    
-807619.43      3.2126033      35.45187       25.807362      30.58331     
-807616.94      3.4369116      35.806604      25.80646       30.184388    
-807621.54      3.2216938      35.900751      25.769007      29.785619    
-807627.77      3.0458272      35.935332      25.732832      29.386995    
-807632.79      5.0186357      36.039839      25.774067      28.988312    
-807638.25      3.6585547      35.310974      25.773733      28.58968     
-807638.64      4.2989885      35.240499      25.773891      28.191097    
-807631.58      3.2542807      35.457085      25.772657      27.792566    
-807625.31      2.830336       34.814126      25.770486      27.394089    
-807619.63      3.989255       35.145315      25.738961      26.995735    
-807620.59      3.029465       35.426957      25.782881      26.597325    
-807620.31      3.0920185      35.045286      25.674678      26.199211    
-807628.21      3.3568127      35.01184       25.732199      25.801007    
-807632.47      4.2123305      35.242286      25.763554      25.402778    
-807641.02      3.0151106      35.346395      25.785249      25.004548    
-807634.27      5.5170074      36.042587      25.798792      24.606336    
-807631.15      2.7960066      34.822897      25.796975      24.208177    
-807624.79      2.99512        35.645775      25.798253      23.810062    
-807622.74      3.7297687      35.805583      25.811102      23.41197     
-807618.18      3.1172294      35.437196      25.72567       23.014094    
-807622.01      3.080352       34.736399      25.729424      22.616253    
-807628.43      4.7701108      35.215752      25.770101      22.218376    
-807634.88      3.0933775      35.741942      25.788964      21.820507    
-807636.86      2.9051854      34.808457      25.749307      21.422757    
-807632.5       4.7666833      36.622674      25.815524      21.02493     
-807630.4       3.4809231      35.529889      25.786907      20.6272      
-807624.93      3.3872191      36.372881      25.813192      20.229469    
-807618.85      3.761259       35.795669      25.790154      19.831822    
-807616.82      4.0040889      36.626004      25.794056      19.434213    
-807625.08      3.2347926      35.811803      25.737351      19.036739    
-807628.04      3.6031781      36.273287      25.753531      18.639279    
-807634.54      4.2606157      35.534052      25.76641       18.24184     
-807633.17      3.0932618      36.278464      25.773441      17.844431    
-807636.29      3.5301006      35.44484       25.788203      17.447042    
-807628.28      3.9000381      36.320531      25.779399      17.049707    
-807622.3       3.1930087      35.670172      25.748797      16.652456    
-807617.47      4.5176494      36.793169      25.784566      16.255196    
-807621.19      3.3553972      35.835425      25.737721      15.858038    
-807622.61      3.1784333      36.350799      25.782403      15.46086     
-807625.75      3.3660565      36.529119      25.732513      15.063785    
-807634.13      3.5130826      35.39336       25.784218      14.666684    
-807636.48      3.7000404      36.332097      25.784418      14.269622    
-807632.68      3.3694135      36.528341      25.745728      13.872644    
-807626.34      3.2427474      36.113014      25.763841      13.475683    
-807620.22      3.9272437      36.069527      25.780592      13.078742    
-807621.81      3.1231651      35.497988      25.764277      12.681857    
-807619.92      3.2376845      36.534924      25.766679      12.285006    
-807621.79      3.6283766      36.92342       25.706604      11.88825     
-807628.55      3.4001537      36.341793      25.763132      11.491475    
-807634.82      3.04975        36.074189      25.78562       11.094716    
-807635.11      3.5588338      36.268787      25.761292      10.698016    
-807629.57      3.3206348      37.032287      25.778796      10.301338    
-807626.92      3.0915152      35.812836      25.799959      9.9046796    
-807621.62      3.0195153      36.223837      25.777125      9.5080767    
-807619.39      3.4037864      35.773236      25.736116      9.1115398    
-807620.68      2.7850801      34.912548      25.743015      8.7150316    
-807624.52      3.5058989      34.957911      25.773896      8.3185365    
-807630.7       2.9698566      34.732079      25.754596      7.9220891    
-807634.96      3.957554       34.579625      25.774675      7.5256636    
-807634.39      2.7899949      34.660028      25.78245       7.1292688    
-807630.5       3.594296       34.782842      25.832028      6.7328832    
-807627.62      2.7346033      35.404398      25.792935      6.3365552    
-807622.63      3.1806648      35.821671      25.783957      5.940267     
-807619.75      3.1812256      36.393525      25.77344       5.5440181    
-807620.15      3.4140049      36.963615      25.80171       5.1477918    
-807627.98      3.6167066      35.919667      25.811013      4.7515975    
-807632.65      3.0668154      35.258537      25.834326      4.3554312    
-807633.54      3.9041808      35.424679      25.811543      3.9593089    
-807632.25      2.9700392      35.564882      25.805965      3.5632236    
-807631.93      4.2193365      35.063597      25.768745      3.1671823    
-807628.55      3.45884        34.260975      25.795611      2.7711676    
-807620.07      2.8651582      35.549531      25.759353      2.3751933    
-807621.39      3.382409       35.203686      25.779853      1.9792473    
-807625.55      2.6229088      35.440199      25.741986      1.5833383    
-807628.98      3.6377601      35.021636      25.739779      1.1874595    
-807630.21      3.7149224      35.37042       25.758718      0.79160914   
-807635.32      3.0638334      34.842599      25.769678      0.39578904   
-807635.47      2.8983038      34.408847      25.777759      0            
Loop time of 197.887 on 32 procs for 5000 steps with 1080 atoms

Performance: 4.366 ns/day, 5.497 hours/ns, 25.267 timesteps/s, 27.288 katom-step/s
79.5% CPU use with 32 MPI tasks x 1 OpenMP threads

MPI task timing breakdown:
Section |  min time  |  avg time  |  max time  |%varavg| %total
---------------------------------------------------------------
Pair    | 102.01     | 144.34     | 193.76     | 313.2 | 72.94
Neigh   | 0          | 0          | 0          |   0.0 |  0.00
Comm    | 1.7389     | 51.16      | 93.489     | 526.0 | 25.85
Output  | 0.026076   | 0.026928   | 0.028043   |   0.3 |  0.01
Modify  | 2.0331     | 2.0495     | 2.0605     |   0.5 |  1.04
Other   |            | 0.314      |            |       |  0.16

Nlocal:          33.75 ave          48 max          21 min
Histogram: 8 8 0 0 0 0 0 8 0 8
Nghost:        1106.25 ave        1119 max        1092 min
Histogram: 8 0 8 0 0 0 0 0 8 8
Neighs:              0 ave           0 max           0 min
Histogram: 32 0 0 0 0 0 0 0 0 0
FullNghs:       5494.5 ave        7896 max        3378 min
Histogram: 8 8 0 0 0 0 0 8 0 8

Total # of neighbors = 175824
Ave neighs/atom = 162.8
Neighbor list builds = 0
Dangerous builds = 0

reset_timestep 0


variable interval equal 1000
thermo 10

variable nintervals equal $(v_PERIOD/v_interval)
variable nintervals equal 100
variable efield equal 1e-2*36.36*cos((step/${PERIOD})*2*3.14)
variable efield equal 1e-2*36.36*cos((step/100000)*2*3.14)
fix born all addbornforce 0.0 0.0 v_efield

variable Px equal f_born[1]+c_polarization[1]
variable Py equal f_born[2]+c_polarization[2]
variable Pz equal (f_born[3]+c_polarization[3])/vol
variable pe equal pe

fix aveP all ave/time 1 $(v_interval/2) ${interval} v_efield v_Pz v_pe f_born file Pz.${MODEL}.${STRUCTURE}.${TEMP}.$L.${ITER}
fix aveP all ave/time 1 500 ${interval} v_efield v_Pz v_pe f_born file Pz.${MODEL}.${STRUCTURE}.${TEMP}.$L.${ITER}
fix aveP all ave/time 1 500 1000 v_efield v_Pz v_pe f_born file Pz.${MODEL}.${STRUCTURE}.${TEMP}.$L.${ITER}
fix aveP all ave/time 1 500 1000 v_efield v_Pz v_pe f_born file Pz.BaTiO3-E0.${STRUCTURE}.${TEMP}.$L.${ITER}
fix aveP all ave/time 1 500 1000 v_efield v_Pz v_pe f_born file Pz.BaTiO3-E0.BaTiO3-sc333.${TEMP}.$L.${ITER}
fix aveP all ave/time 1 500 1000 v_efield v_Pz v_pe f_born file Pz.BaTiO3-E0.BaTiO3-sc333.330.$L.${ITER}
fix aveP all ave/time 1 500 1000 v_efield v_Pz v_pe f_born file Pz.BaTiO3-E0.BaTiO3-sc333.330.2.${ITER}
fix aveP all ave/time 1 500 1000 v_efield v_Pz v_pe f_born file Pz.BaTiO3-E0.BaTiO3-sc333.330.2.5

thermo_style custom step time temp press pe f_born v_efield v_Pz spcpu cpuremain

# dump 4a all custom 1000 dump.hyst.${MODEL}.${STRUCTURE}.${TEMP}.$L.${ITER}.bin id type xu yu zu fx fy fz
# dump_modify 4a sort id

fix nvt all nvt temp ${TEMP} ${TEMP} $(100*dt)
fix nvt all nvt temp 330 ${TEMP} $(100*dt)
fix nvt all nvt temp 330 330 $(100*dt)
fix nvt all nvt temp 330 330 0.2000000000000000111

run $(v_PERIOD)
run 100000
WARNING: non-constant efield is experimental, strongly distrust scalar/vector output (src/fix_addbornforce.cpp:193)
Per MPI rank memory allocation (min/avg/max) = 3.516 | 3.516 | 3.516 Mbytes
   Step          Time           Temp          Press          PotEng         f_born        v_efield         v_Pz          S/CPU         CPULeft    
         0   0              326.71987      130078.1      -807635.48     -296.77096      0.3636         0.055814244    0              0            
        10   0.02           325.40538      132391.3      -807630.16     -301.96757      0.36359993     0.05679159     25.538015      3915.3591    
        20   0.04           326.37142      137033.12     -807624.88     -307.40809      0.36359971     0.057814833    25.455632      3921.2925    
        30   0.06           321.81027      138518.33     -807622.79     -308.83224      0.36359935     0.058082733    25.535278      3918.9255    
        40   0.08           327.93465      139747.54     -807623.46     -308.8905       0.36359885     0.058093771    25.535583      3917.5345    
        50   0.1            313.43645      137604.15     -807623.45     -306.83124      0.36359821     0.057706584    25.598475      3914.62      
        60   0.12           323.25494      135023.58     -807627.68     -303.85001      0.36359742     0.057146019    25.585781      3912.8696    
        70   0.14           329.90383      129752.37     -807634.44     -297.8757       0.36359649     0.056022556    25.593785      3911.3331    
        80   0.16           316.86593      128995.48     -807634.21     -296.05656      0.36359541     0.055680589    25.581164      3910.3239    
        90   0.18           334.97065      129717.23     -807634.67     -297.96452      0.36359419     0.056039613    25.538767      3910.1725    
       100   0.2            316.42726      135124.76     -807626.41     -303.48687      0.36359283     0.057078443    25.595445      3909.1068    
       110   0.22           317.65136      137317.94     -807622.69     -307.19443      0.36359132     0.057775982    25.594402      3908.1783    
       120   0.24           330.92355      140377.03     -807621.8      -309.61785      0.36358968     0.058232034    25.585635      3907.4509    
       130   0.26           328.1063       139362.14     -807621.74     -309.05136      0.36358788     0.058125777    25.597134      3906.6404    
       140   0.28           340.89539      137134.62     -807624.77     -307.45517      0.36358595     0.057825876    25.598621      3905.8736    
       150   0.3            328.05852      132537.71     -807628.71     -301.43591      0.36358387     0.056694105    25.582897      3905.3169    
       160   0.32           332.07146      130778.64     -807633.1      -297.23512      0.36358165     0.05590436     25.59674       3904.6493    
       170   0.34           331.32414      129286.8      -807634.16     -295.87085      0.36357928     0.05564813     25.5818        3904.1477    
       180   0.36           326.43378      132054.77     -807629.41     -299.68144      0.36357677     0.056365224    25.494562      3904.4006    
       190   0.38           327.10849      134397.04     -807626.16     -302.82963      0.36357412     0.056957764    25.560975      3904.05      
       200   0.4            333.25204      138556.73     -807622.81     -306.8043       0.36357132     0.057705783    25.518571      3904.0196    
       210   0.42           345.41086      139211.86     -807622.15     -309.03855      0.36356838     0.058126485    25.49163       3904.152     
       220   0.44           342.28218      139799.5      -807620.1      -310.4993       0.3635653      0.058401732    25.503462      3904.1536    
       230   0.46           341.0822       135577.93     -807625.23     -305.11392      0.36356207     0.057389305    25.525363      3903.9754    
       240   0.48           330.91616      133632.57     -807628.88     -299.92824      0.3635587      0.056414447    25.528244      3903.7607    
       250   0.5            336.10251      129863.47     -807632.2      -297.35166      0.36355519     0.05593035     25.529291      3903.5259    
       260   0.52           325.82102      131052.24     -807629.97     -298.14727      0.36355153     0.056080565    25.463409      3903.6678    
       270   0.54           330.49441      131708.01     -807629.94     -298.79388      0.36354773     0.056202776    25.535583      3903.3597    
       280   0.56           344.46379      135280.51     -807628.15     -302.513        0.36354379     0.056902957    25.585543      3902.7735    
       290   0.58           334.53102      138366.57     -807622.32     -307.0429       0.3635397      0.057755683    25.533579      3902.4742    
       300   0.6            342.09259      141275.85     -807619.79     -310.71836      0.36353547     0.058447729    25.592335      3901.87      
       310   0.62           341.08156      138728.7      -807621.96     -308.4486       0.3635311      0.058021474    25.556184      3901.4573    
       320   0.64           336.4373       135968.86     -807625.97     -303.84386      0.36352658     0.057155998    25.572205      3900.9696    
       330   0.66           339.32127      133434.6      -807629.42     -300.86916      0.36352192     0.056597153    25.576627      3900.4673    
       340   0.68           336.9476       130182.03     -807631.62     -298.48227      0.36351712     0.056148892    25.528408      3900.1881    
       350   0.7            331.93587      131533.92     -807631.06     -298.40403      0.36351217     0.056134938    25.458374      3900.2093    
       360   0.72           323.53121      131734.02     -807630.53     -297.89039      0.36350708     0.056039098    25.462295      3900.1907    
       370   0.74           336.59758      136730.38     -807626.08     -304.23888      0.36350185     0.057234198    25.53393       3899.855     
       380   0.76           333.98792      137013.13     -807622.42     -307.71758      0.36349647     0.057889477    25.524862      3899.553     
       390   0.78           336.45205      140833.85     -807620.53     -309.95754      0.36349095     0.058311757    25.518898      3899.2697    
       400   0.8            336.21201      136625.88     -807624.97     -305.7086       0.36348529     0.057513307    25.542995      3898.889     
       410   0.82           332.01301      137734.24     -807625.05     -305.03227      0.36347948     0.057386984    25.589508      3898.335     
       420   0.84           338.46681      130206.16     -807630.98     -300.22198      0.36347353     0.056482929    25.496437      3898.1268    
       430   0.86           325.70177      132373.35     -807630.25     -299.1622       0.36346744     0.056284489    25.502472      3897.8887    
       440   0.88           331.49006      128950.88     -807634.61     -295.82674      0.3634612      0.055657909    25.610109      3897.2706    
       450   0.9            318.03386      135175.61     -807626.9      -301.66373      0.36345482     0.056757098    25.57574       3896.7788    
       460   0.92           326.38874      135635.51     -807625.92     -304.05951      0.3634483      0.057208883    25.588872      3896.2479    
       470   0.94           341.66442      139182.07     -807623.49     -308.56779      0.36344163     0.058058183    25.584071      3895.7384    
       480   0.96           336.77759      138125.04     -807623.95     -307.62553      0.36343482     0.057881977    25.525199      3895.4209    
       490   0.98           335.06782      138215.35     -807624.35     -307.02955      0.36342786     0.057770946    25.524981      3895.101     
       500   1              325.73548      135731.74     -807626.25     -303.98208      0.36342077     0.057198647    25.538958      3894.7355    
       510   1.02           323.65678      132852.44     -807629.54     -9614.6721      0.36341353     0.056536762    25.469216      3894.5782    
       520   1.04           322.96759      130812.5      -807633.22     -9495.6484      0.36340614     0.055838006    25.577042      3894.0953    
       530   1.06           332.14323      130311.69     -807634.31     -9505.2096      0.36339862     0.055895387    25.535829      3893.734     
       540   1.08           323.16784      134687.46     -807627.76     -9676.528       0.36339095     0.056904026    25.585415      3893.2321    
       550   1.1            333.89356      135174.23     -807627.1      -9750.477       0.36338313     0.057340125    25.461865      3893.077     
       560   1.12           329.10238      139531.4      -807623.63     -9838.9113      0.36337518     0.057861452    25.52524       3892.7403    
       570   1.14           329.45609      137736.07     -807623.45     -9851.0445      0.36336707     0.057934098    25.393614      3892.7559    
       580   1.16           331.70873      139475.4      -807622.5      -9891.0139      0.36335883     0.058170478    25.338421      3892.9044    
       590   1.18           326.95524      133974.65     -807628.26     -9690.4224      0.36335044     0.056992086    25.404414      3892.8618    
       600   1.2            324.19543      134115.28     -807630.58     -9600.6514      0.36334191     0.056465443    25.57993       3892.36      
       610   1.22           325.02186      128542.47     -807635.2      -9464.4522      0.36333324     0.055665727    25.475206      3892.1237    
       620   1.24           324.71437      133107.94     -807629.67     -9637.0861      0.36332442     0.056682459    25.58307       3891.617     
       630   1.26           324.21992      131010.18     -807631.29     -9589.2198      0.36331546     0.056402315    25.529027      3891.2446    
       640   1.28           323.33723      138182.62     -807625.37     -9773.2531      0.36330636     0.057486211    25.525226      3890.8806    
       650   1.3            329.94927      136050.9      -807625.21     -9812.8001      0.36329711     0.057720295    25.474101      3890.636     
       660   1.32           321.95742      141321.13     -807619.53     -9955.3114      0.36328772     0.058560081    25.551336      3890.2083    
       670   1.34           339.74898      134824.92     -807627.73     -9777.0466      0.36327819     0.057512984    25.394272      3890.1404    
       680   1.36           331.55404      136237.2      -807628.54     -9710.5366      0.36326851     0.057123263    25.44501       3889.9484    
       690   1.38           330.45633      129662.29     -807633.37     -9557.627       0.36325869     0.056225277    25.523174      3889.5773    
       700   1.4            317.67113      131502.1      -807631.16     -9568.1072      0.36324873     0.056288473    25.594311      3889.051     
       710   1.42           322.79681      130491.06     -807633.14     -9530.3973      0.36323863     0.056068188    25.513896      3888.7009    
       720   1.44           318.4615       135293.96     -807628.89     -9646.6937      0.36322838     0.056753972    25.393353      3888.6062    
       730   1.46           329.22014      136599.84     -807626.3      -9778.7766      0.36321798     0.057532695    25.400245      3888.4887    
       740   1.48           327.80721      139121.03     -807622.93     -9879.3928      0.36320745     0.058126349    25.433543      3888.2945    
       750   1.5            325.64519      138613.51     -807623.81     -9842.2117      0.36319677     0.057909294    25.425522      3888.1115    
       760   1.52           320.54236      137027        -807625.33     -9768.0854      0.36318595     0.057474864    25.453772      3887.866     
       770   1.54           327.58593      133469.2      -807629.07     -9678.7391      0.36317498     0.056950875    25.473108      3887.5782    
       780   1.56           328.39941      130471.15     -807631.74     -9593.3768      0.36316387     0.05645032     25.533616      3887.1694    
       790   1.58           321.75389      131175.49     -807632.66     -9530.4927      0.36315262     0.056082028    25.593827      3886.6453    
       800   1.6            326.56537      131213.08     -807633.2      -9530.9019      0.36314122     0.056086196    25.523938      3886.2572    
       810   1.62           322.02579      135142.02     -807627.6      -9685.1088      0.36312968     0.056995464    25.533451      3885.8512    
       820   1.64           336.80779      135792.96     -807626.8      -9773.4863      0.363118       0.057517403    25.591853      3885.3374    
       830   1.66           331.52079      139165.05     -807622.92     -9865.2227      0.36310618     0.058059166    25.517956      3884.9618    
       840   1.68           326.42518      137067.72     -807624.16     -9800.9587      0.36309421     0.057682859    25.471037      3884.6709    
       850   1.7            323.99178      137098.95     -807624.66     -9766.4222      0.3630821      0.057481514    25.588967      3884.1667    
       860   1.72           327.66261      133211.56     -807628.25     -9663.7631      0.36306984     0.056879221    25.529499      3883.77      
       870   1.74           326.45825      132758.27     -807629.9      -9597.7773      0.36305745     0.056492769    25.59485       3883.2595    
       880   1.76           335.10125      131003.47     -807632.83     -9534.4284      0.3630449      0.056121834    25.519516      3882.8816    
       890   1.78           328.06776      133287.54     -807629.41     -9606.1507      0.36303222     0.056545984    25.532144      3882.4818    
       900   1.8            347.2756       135049.32     -807628.85     -9702.6625      0.36301939     0.057116112    25.519052      3882.1043    
       910   1.82           342.7646       137907.59     -807625.33     -9790.2436      0.36300642     0.05763373     25.537372      3881.696     
       920   1.84           346.71352      138582.28     -807624.97     -9813.1644      0.36299331     0.057770748    25.477631      3881.3868    
       930   1.86           328.65896      138380.4      -807622.53     -9804.6821      0.36298005     0.057722921    25.577124      3880.9132    
       940   1.88           330.99093      136519.56     -807625.1      -9729.752       0.36296665     0.057283901    25.614667      3880.381     
       950   1.9            327.90184      134237.71     -807626.91     -9652.1617      0.36295311     0.056829209    25.570889      3879.9214    
       960   1.92           329.70747      131802.98     -807630.47     -9540.6974      0.36293942     0.056175056    25.516901      3879.5487    
       970   1.94           342.70688      131254.92     -807632.83     -9518.1223      0.36292559     0.056044271    25.482886      3879.2289    
       980   1.96           338.00016      133658.19     -807629.01     -9615.6089      0.36291162     0.056620468    25.444051      3878.9682    
       990   1.98           342.35761      135863.94     -807626.91     -9701.2654      0.3628975      0.057127069    25.579326      3878.4969    
      1000   2              329.4621       138230.54     -807622        -9796.9623      0.36288325     0.057692859    25.746733      3877.7756    
      1010   2.02           340.94384      137784.6      -807623.47     -306.27212      0.36286884     0.057717206    25.911924      3876.8183    
      1020   2.04           335.74198      137991.7      -807622.02     -306.8897       0.3628543      0.057835908    25.943103      3875.8271    
      1030   2.06           331.79553      135466.52     -807624.51     -303.84071      0.36283961     0.057263619    25.913673      3874.8897    
      1040   2.08           341.73637      133385.43     -807629.8      -299.92086      0.36282478     0.056527172    25.879931      3874.0108    
      1050   2.1            346.12437      131084.65     -807632.88     -297.45485      0.3628098      0.056064708    25.927821      3873.074     
      1060   2.12           331.16885      131697.74     -807629.72     -298.58752      0.36279469     0.056280539    25.909068      3872.1738    
      1070   2.14           337.12719      132638.96     -807629.01     -300.19934      0.36277943     0.05658673     25.866255      3871.3421    
      1080   2.16           337.59157      135185.08     -807626.64     -302.71733      0.36276402     0.057063787    25.845119      3870.5477    
      1090   2.18           341.7498       137570.53     -807624.1      -306.02086      0.36274848     0.057688991    25.850336      3869.7536    
      1100   2.2            329.35305      139218.35     -807620.09     -308.4601       0.36273279     0.058151337    25.924385      3868.8677    
      1110   2.22           331.45759      138221.69     -807623.05     -305.97672      0.36271695     0.057685684    25.920161      3867.9963    
      1120   2.24           328.25326      135891.6      -807626.43     -302.36538      0.36270098     0.05700735     25.934842      3867.1143    
      1130   2.26           340.78506      131652.61     -807630.87     -299.88243      0.36268486     0.056541732    25.941336      3866.2327    
      1140   2.28           325.68203      130848.49     -807629.81     -299.14135      0.3626686      0.056404534    25.928887      3865.3758    
      1150   2.3            329.44996      131366.36     -807631.44     -298.29177      0.36265219     0.056246886    25.928849      3864.5272    
      1160   2.32           329.31406      133008.98     -807629.72     -300.27183      0.36263564     0.056622836    25.893775      3863.731     
      1170   2.34           338.96313      135759.38     -807627.63     -304.04991      0.36261895     0.057337914    25.918187      3862.9112    
      1180   2.36           330.82655      137912.53     -807624.22     -306.66023      0.36260212     0.057832855    25.930572      3862.0832    
      1190   2.38           325.294        138354.67     -807624        -306.3515       0.36258514     0.057777337    25.909101      3861.2893    
      1200   2.4            318.37705      136872.33     -807625.21     -304.38752      0.36256802     0.057409645    25.926652      3860.4806    
      1210   2.42           323.01032      134212.61     -807627.83     -302.65814      0.36255076     0.057086189    25.929624      3859.6753    
      1220   2.44           320.89857      132106.36     -807631.05     -299.30413      0.36253335     0.056456279    25.951162      3858.8509    
      1230   2.46           328.39998      131133.07     -807633.35     -298.1406       0.3625158      0.056239531    25.900009      3858.0949    
      1240   2.48           311.04462      131826.55     -807631.11     -298.07866      0.36249811     0.056230592    25.882204      3857.3659    
      1250   2.5            328.65628      133704.9      -807630.26     -301.38981      0.36248028     0.056858016    25.874192      3856.6519    
      1260   2.52           320.89402      135369.33     -807626.4      -304.29012      0.3624623      0.057408014    25.938281      3855.8682    
      1270   2.54           314.0943       138110.66     -807623.1      -306.64184      0.36244418     0.057854587    25.939338      3855.0896    
      1280   2.56           320.65854      137095.87     -807624.82     -305.82491      0.36242592     0.057703364    25.957095      3854.2968    
      1290   2.58           317.89075      136888.75     -807625.94     -304.25535      0.36240751     0.057410132    25.931916      3853.5389    
      1300   2.6            332.7354       134074.29     -807629.65     -302.58016      0.36238896     0.057096963    25.925051      3852.7945    
      1310   2.62           321.17563      132553.78     -807631.29     -299.1929       0.36237027     0.056460697    25.935603      3852.0438    
      1320   2.64           328.99931      130629.75     -807634.01     -297.44939      0.36235143     0.056134598    25.88913       3851.3503    
      1330   2.66           315.88758      132075.98     -807630.94     -298.61023      0.36233245     0.056356624    25.842884      3850.7128    
      1340   2.68           324.65871      134365.77     -807628.94     -301.76156      0.36231333     0.056954378    25.84204       3850.0799    
      1350   2.7            314.27019      136200.55     -807624.77     -304.4091       0.36229407     0.05745713     25.869554      3849.4205    
      1360   2.72           321.60345      138245.85     -807623.99     -306.01206      0.36227466     0.057762782    25.87342       3848.761     
      1370   2.74           331.65178      137317.67     -807625.94     -305.28574      0.36225511     0.057628793    25.905426      3848.0712    
      1380   2.76           322.82677      136404.62     -807624.8      -305.05586      0.36223542     0.057588528    25.93153       3847.3579    
      1390   2.78           332.33232      132912.43     -807630.45     -300.58415      0.36221558     0.056747464    25.919208      3846.6624    
      1400   2.8            315.63781      132414.26     -807630.55     -298.0064       0.3621956      0.056263913    25.933174      3845.9566    
      1410   2.82           329.15759      130198.05     -807633.46     -296.85693      0.36217548     0.056050005    25.924483      3845.2644    
      1420   2.84           316.53685      133202.69     -807628.71     -299.6362       0.36215522     0.05657793     25.908651      3844.5929    
      1430   2.86           329.01348      134578.2      -807628.78     -301.24086      0.36213481     0.056884131    25.916886      3843.917     
      1440   2.88           339.56276      136951.19     -807627.47     -303.83868      0.36211426     0.057377939    25.92025       3843.2416    
      1450   2.9            334.93994      137808.67     -807624.73     -305.80102      0.36209357     0.057751815    25.885699      3842.6053    
      1460   2.92           328.79069      138017.81     -807623.51     -306.06448      0.36207273     0.057804897    25.918429      3841.9394    
      1470   2.94           326.87688      135181.26     -807626.25     -302.95902      0.36205176     0.057221699    25.947734      3841.2482    
      1480   2.96           319.76384      133729.04     -807628.87     -299.20798      0.36203064     0.056516514    25.934485      3840.5742    
      1490   2.98           324.28427      131660.28     -807631.94     -296.62648      0.36200937     0.056032194    25.922563      3839.9158    
      1500   3              322.22789      131835.85     -807630.54     -297.63829      0.36198796     0.056226647    25.934621      3839.2492    
      1510   3.02           331.51424      132618.13     -807631.09     -9546.218       0.36196642     0.056358654    25.903279      3838.6168    
      1520   3.04           329.21526      135437.6      -807627.91     -9632.0033      0.36194472     0.056868518    25.877325      3838.0127    
      1530   3.06           333.10563      137458.73     -807625.22     -9732.7895      0.36192289     0.057467039    25.81989       3837.4668    
      1540   3.08           327.62495      138458.58     -807622.15     -9805.058       0.36190091     0.057897263    25.805883      3836.9364    
      1550   3.1            335.82841      137949.42     -807623.42     -9798.1046      0.36187879     0.05785974     25.846831      3836.3688    
      1560   3.12           340.46375      135437.81     -807628.34     -9659.2251      0.36185653     0.057043139    25.837363      3835.8125    
      1570   3.14           337.43709      133307.49     -807629.87     -9594.7973      0.36183412     0.056666165    25.865475      3835.232     
      1580   3.16           332.6771       130437.83     -807631.26     -9528.8298      0.36181157     0.056280073    25.916942      3834.6061    
      1590   3.18           334.22113      131673.62     -807632.19     -9503.1031      0.36178888     0.056131644    25.92071       3833.9798    
      1600   3.2            322.15714      132020.1      -807629.85     -9525.426       0.36176605     0.056267049    25.818605      3833.4503    
      1610   3.22           343.3131       135561.07     -807628.74     -9653.2068      0.36174307     0.057025477    25.794131      3832.945     
      1620   3.24           322.71401      137340.81     -807622.87     -9752.3801      0.36171995     0.057615017    25.847199      3832.3928    
      1630   3.26           333.90224      139173.64     -807622.61     -9806.9473      0.36169669     0.057941115    25.847699      3831.8423    
      1640   3.28           337.47639      136527.75     -807626.83     -9687.3287      0.36167329     0.057238091    25.908721      3831.239     
      1650   3.3            328.24242      135765.04     -807625.99     -9673.7374      0.36164974     0.057161508    25.907718      3830.6393    
      1660   3.32           327.91481      132933.4      -807628.66     -9587.3527      0.36162605     0.056654777    25.924333      3830.0275    
      1670   3.34           333.52221      132532.06     -807631.67     -9513.4628      0.36160222     0.056221843    25.93596       3829.4083    
      1680   3.36           334.05866      130148.6      -807634.02     -9441.0584      0.36157824     0.055797653    25.914348      3828.8106    
      1690   3.38           328.9843       132771.04     -807629.75     -9555.3752      0.36155413     0.056477045    25.903312      3828.225     
      1700   3.4            342.48395      134729.31     -807627.99     -9673.2181      0.36152987     0.057177392    25.851441      3827.6865    
      1710   3.42           327.2115       137101.95     -807624.34     -9722.9557      0.36150546     0.057475265    25.796487      3827.1972    
      1720   3.44           330.28381      137761.8      -807624.42     -9732.7445      0.36148092     0.057537036    25.784033      3826.7198    
      1730   3.46           335.08114      136801.42     -807625.45     -9721.6957      0.36145623     0.057475644    25.814141      3826.2177    
      1740   3.48           333.29127      135735.06     -807625.75     -9704.855       0.3614314      0.057380022    25.85631       3825.6812    
      1750   3.5            323.37174      133536.25     -807628.78     -9562.7996      0.36140643     0.056544025    25.909776      3825.1017    
      1760   3.52           329.48231      132134.86     -807632.51     -9469.6308      0.36138131     0.055997018    25.908941      3824.525     
      1770   3.54           332.07352      130550.84     -807632.04     -9496.869       0.36135605     0.056162011    25.893423      3823.9633    
      1780   3.56           336.68996      133579.83     -807629.56     -9597.1606      0.36133065     0.056759099    25.852865      3823.4371    
      1790   3.58           336.39926      133934.44     -807628.33     -9637.7521      0.36130511     0.057003193    25.829346      3822.9317    
      1800   3.6            327.11261      137449.84     -807624.95     -9702.6572      0.36127942     0.057391159    25.793871      3822.4567    
      1810   3.62           335.66782      136845.19     -807625.1      -9737.7555      0.3612536      0.057602884    25.839596      3821.9454    
      1820   3.64           330.85113      138043.04     -807623.55     -9764.5469      0.36122763     0.057765519    25.902417      3821.3849    
      1830   3.66           344.99917      134649.52     -807630.03     -9622.574       0.36120151     0.056929745    25.879659      3820.8444    
      1840   3.68           318.54613      134223.29     -807628.53     -9549.8903      0.36117526     0.056503836    25.86269       3820.3192    
      1850   3.7            316.25339      131207.27     -807631.29     -9451.4647      0.36114886     0.055925568    25.879771      3819.782     
      1860   3.72           331.58677      132588.93     -807631.4      -9514.4477      0.36112232     0.056302385    25.835992      3819.2809    
      1870   3.74           330.59332      132253.04     -807629.88     -9560.1488      0.36109564     0.056577005    25.776118      3818.8282    
      1880   3.76           327.30957      136120.55     -807626.91     -9637.1091      0.36106881     0.057036693    25.77314       3818.3785    
      1890   3.78           328.85124      136270.8      -807625.34     -9696.2158      0.36104184     0.057390799    25.810214      3817.9006    
      1900   3.8            331.23839      138949.52     -807623        -9778.682       0.36101474     0.057883254    25.888681      3817.3629    
      1910   3.82           340.50818      135648.89     -807627.34     -9682.5896      0.36098748     0.057318778    25.828428      3816.8732    
      1920   3.84           332.87713      135870.27     -807628.33     -9612.0294      0.36096009     0.056905395    25.851502      3816.3669    
      1930   3.86           331.92651      130932.36     -807632.19     -9487.2916      0.36093255     0.056171205    25.881263      3815.8391    
      1940   3.88           330.54129      132000.61     -807631.45     -9502.1399      0.36090487     0.056263431    25.875398      3815.3173    
      1950   3.9            323.69242      130771.89     -807631.24     -9480.1271      0.36087705     0.056137418    25.842842      3814.8214    
      1960   3.92           329.775        134620.19     -807628.85     -9582.9459      0.36084909     0.056750666    25.832673      3814.3341    
      1970   3.94           329.92884      135497.38     -807626.81     -9649.7143      0.36082098     0.057150523    25.904685      3813.7944    
      1980   3.96           329.18632      137820.75     -807623.5      -9750.4835      0.36079273     0.057751851    25.882686      3813.2724    
      1990   3.98           320.88955      138451.75     -807623.01     -9728.548       0.36076434     0.057626462    25.870569      3812.7607    
      2000   4              335.58587      136541.1      -807627.29     -9655.8717      0.36073581     0.057200493    25.873776      3812.2479    
      2010   4.02           340.05766      133452.04     -807629.75     -299.8281       0.36070713     0.056841447    25.939742      3811.6885    
      2020   4.04           327.18538      131615.54     -807630.98     -296.77941      0.36067831     0.056267971    25.920916      3811.1444    
      2030   4.06           324.24455      131462.13     -807631.98     -295.3253       0.36064935     0.055996774    25.929314      3810.5958    
      2040   4.08           322.96586      132111.15     -807630.76     -296.39589      0.36062025     0.056204304    25.882817      3810.082     
      2050   4.1            337.85169      133894.5      -807629.47     -299.71739      0.36059101     0.056838756    25.901367      3809.5563    
      2060   4.12           322.67832      136656.1      -807624.51     -302.55348      0.36056162     0.057381272    25.875651      3809.0502    
      2070   4.14           337.21831      138075.12     -807624.73     -304.29021      0.36053209     0.057715382    25.952296      3808.4912    
      2080   4.16           320.48239      137792.12     -807622.25     -304.39265      0.36050242     0.057739563    25.932658      3807.9477    
      2090   4.18           343.84959      136434.31     -807626.75     -303.12276      0.36047261     0.057503435    25.950979      3807.3929    
      2100   4.2            326.11964      133657.98     -807628.23     -299.15446      0.36044265     0.056755352    25.936439      3806.8497    
      2110   4.22           331.75693      131524.85     -807631.78     -296.2981       0.36041256     0.056218141    25.92169       3806.3183    
      2120   4.24           321.47084      130636.57     -807632.43     -294.20149      0.36038232     0.055825023    25.872513      3805.8221    
      2130   4.26           332.12463      131589.66     -807631.64     -296.4261       0.36035193     0.056251888    25.839792      3805.3494    
      2140   4.28           331.48991      133235.3      -807630.08     -297.85929      0.36032141     0.056528648    25.908801      3804.8304    
      2150   4.3            327.53219      136819.09     -807625.95     -301.42321      0.36029075     0.057209888    25.889392      3804.3257    
      2160   4.32           330.01356      137127.36     -807624.15     -303.51474      0.36025994     0.057611786    25.904779      3803.8118    
      2170   4.34           330.90702      138498.63     -807623.41     -304.32301      0.36022899     0.057770171    25.880463      3803.3154    
      2180   4.36           338.59434      135737.09     -807627.02     -301.74903      0.36019789     0.057286493    25.888255      3802.8148    
      2190   4.38           323.59437      135392.79     -807626.74     -299.88599      0.36016666     0.056937734    25.872368      3802.3259    
      2200   4.4            328.42271      131260.06     -807631.35     -295.87789      0.36013528     0.056181633    25.835871      3801.8621    
      2210   4.42           323.44448      132046.75     -807630.93     -295.42188      0.36010377     0.056099955    25.866007      3801.3791    
      2220   4.44           327.45459      131522.27     -807631.44     -295.47657      0.36007211     0.056115273    25.861737      3800.8998    
      2230   4.46           338.69082      134244.27     -807629.86     -298.44439      0.3600403      0.056683912    25.906846      3800.3917    
      2240   4.48           333.24935      135211.15     -807626.38     -301.05773      0.36000836     0.05718534     25.905491      3799.8857    
      2250   4.5            326.90776      137762.36     -807622.86     -303.53453      0.35997627     0.057660943    25.928492      3799.3658    
      2260   4.52           341.6283       136455.81     -807624.47     -303.87923      0.35994404     0.057731594    25.959438      3798.8273    
      2270   4.54           331.85184      136231.21     -807624.02     -302.75995      0.35991167     0.057524124    25.978665      3798.2778    
      2280   4.56           338.13904      133856.28     -807628.81     -298.71514      0.35987916     0.056760741    25.941415      3797.7534    
      2290   4.58           329.2162       132072.62     -807630.02     -296.09362      0.35984651     0.056267715    25.939362      3797.2316    
      2300   4.6            334.09145      131291.94     -807632.03     -294.63934      0.35981371     0.055996456    25.953317      3796.7021    
      2310   4.62           330.55983      131146.73     -807630.42     -295.63352      0.35978077     0.056190545    25.946963      3796.1779    
      2320   4.64           322.92835      133934.23     -807627.1      -297.78719      0.35974769     0.056605093    25.969703      3795.6407    
      2330   4.66           339.44285      135135.06     -807626.83     -300.33691      0.35971447     0.057095032    25.94126       3795.1225    
      2340   4.68           338.76045      137976.22     -807623.41     -303.52399      0.35968111     0.057706258    25.938333      3794.6072    
      2350   4.7            334.56786      137713.15     -807623.13     -303.19103      0.3596476      0.057648325    25.941552      3794.091     
      2360   4.72           325.76685      137435.41     -807623.08     -301.8704       0.35961396     0.057402592    25.924924      3793.5862    
      2370   4.74           350.89718      132298.09     -807631.05     -297.35239      0.35958017     0.056548778    25.93332       3793.0772    
      2380   4.76           328.82652      133120.7      -807628.75     -296.48093      0.35954624     0.056388369    25.909546      3792.5838    
      2390   4.78           333.62034      130062.62     -807633.02     -292.92137      0.35951216     0.055716649    25.910038      3792.091     
      2400   4.8            327.91091      132338.41     -807629.78     -295.23275      0.35947795     0.056161641    25.962117      3791.5676    
      2410   4.82           337.5581       132747.04     -807629.77     -296.72028      0.35944359     0.056450006    25.934757      3791.0618    
      2420   4.84           329.22877      137090.02     -807623.83     -301.47469      0.35940909     0.057360022    25.9293        3790.5603    
      2430   4.86           339.27247      137153.62     -807624.38     -302.41044      0.35937446     0.057543609    25.948627      3790.0481    
      2440   4.88           331.34135      138586.84     -807622.51     -303.20053      0.35933967     0.057699534    25.89798       3789.5672    
      2450   4.9            340.93163      136118.82     -807625.69     -301.40927      0.35930475     0.057364229    25.919433      3789.0743    
      2460   4.92           335.09405      134808.58     -807628.62     -297.767        0.35926969     0.056676563    25.85278       3788.6217    
      2470   4.94           325.8266       131755.66     -807630.36     -294.78377      0.35923448     0.056114238    25.817734      3788.1904    
      2480   4.96           332.41391      131064.32     -807632.56     -293.64397      0.35919913     0.05590277     25.846415      3787.7425    
      2490   4.98           334.34621      131121.51     -807632.16     -294.4741       0.35916364     0.056066347    25.873345      3787.2794    
      2500   5              335.51822      133741.89     -807628.82     -298.12941      0.35912801     0.05676793     25.897858      3786.8026    
[...]
     98740   197.48         313.15907      134976.62     -807627.78     -9677.702       0.36236891     0.057071443    28.04512       45.210763    
     98750   197.5          312.03017      132958.43     -807629.87     -9611.768       0.36238762     0.05667969     27.993633      44.851927    
     98760   197.52         319.13459      136533.23     -807627.31     -9722.4393      0.36240618     0.057329373    28.033205      44.493086    
     98770   197.54         314.1959       133446.2      -807627.94     -9684.15        0.36242459     0.057100694    28.069844      44.134239    
     98780   197.56         320.68454      137423.99     -807628.06     -9703.4027      0.36244287     0.057211329    28.025567      43.775399    
     98790   197.58         325.06393      132191.98     -807631.1      -9626.6557      0.362461       0.056755989    28.032969      43.416559    
     98800   197.6          316.73672      135403.28     -807627.56     -9696.6084      0.36247899     0.057165573    28.072365      43.057713    
     98810   197.62         323.26061      131566.74     -807630.54     -9631.697       0.36249683     0.056780098    28.054055      42.69887     
     98820   197.64         326.76023      135831.68     -807628.82     -9693.0848      0.36251453     0.057139197    28.082617      42.340023    
     98830   197.66         321.01738      132663.85     -807629.9      -9631.6017      0.36253209     0.056774013    28.043011      41.981183    
     98840   197.68         326.94052      135124.44     -807627.9      -9711.3215      0.36254951     0.057241177    28.050416      41.622343    
     98850   197.7          324.8615       132822.22     -807628.75     -9671.8819      0.36256678     0.057005992    28.057144      41.263501    
     98860   197.72         331.92708      135230.32     -807627.45     -9734.8713      0.36258391     0.057374541    28.032036      40.904664    
     98870   197.74         325.5366       134214.15     -807628.59     -9664.4484      0.3626009      0.05695682     28.04518       40.545826    
     98880   197.76         319.9807       135240.59     -807627        -9681.7224      0.36261774     0.057055973    28.016244      40.186992    
     98890   197.78         335.86492      133314.88     -807630.26     -9642.7446      0.36263445     0.056823653    27.980149      39.828164    
     98900   197.8          326.21723      133933.25     -807628.39     -9652.057       0.362651       0.056875933    28.019358      39.46933     
     98910   197.82         322.35797      134575.46     -807628.17     -9636.2095      0.36266742     0.056779979    28.043714      39.110493    
     98920   197.84         315.82104      134501.34     -807626.39     -9659.7644      0.36268369     0.05691622     28.080375      38.751652    
     98930   197.86         331.78987      135455.33     -807627.03     -9704.6009      0.36269982     0.057177857    28.050389      38.392816    
     98940   197.88         334.6742       133726.14     -807628.03     -9683.8242      0.36271581     0.05705293     28.075794      38.033976    
     98950   197.9          326.85105      136386.8      -807625.76     -9716.765       0.36273165     0.057244503    28.094442      37.675135    
     98960   197.92         323.81415      133122.68     -807627.49     -9649.7686      0.36274735     0.056847346    28.077072      37.316296    
     98970   197.94         338.03281      135939.4      -807627.5      -9706.7686      0.36276291     0.057180683    28.063375      36.95746     
     98980   197.96         330.67431      132104.58     -807629.9      -9602.196       0.36277832     0.056562263    28.059679      36.598624    
     98990   197.98         329.72822      137357.81     -807626.32     -9707.2559      0.36279359     0.057178718    28.053038      36.23979     
     99000   198            329.53443      131802.71     -807629.74     -9601.4073      0.36280872     0.056552879    28.023833      35.880961    
     99010   198.02         330.84897      137853.55     -807625.49     -304.21815      0.3628237      0.057337267    28.076037      35.522125    
     99020   198.04         335.86627      131657.89     -807629.84     -300.8626       0.36283855     0.056702513    28.072833      35.16329     
     99030   198.06         333.2196       139160.81     -807624.42     -305.68433      0.36285324     0.057608913    28.119403      34.804449    
     99040   198.08         326.94684      132250.2      -807628.75     -300.73055      0.3628678      0.056673056    28.130109      34.445609    
     99050   198.1          339.22292      138584.99     -807626.32     -304.63504      0.36288221     0.057406583    28.121607      34.086769    
     99060   198.12         332.93672      131344.08     -807630.41     -299.9472       0.36289648     0.056520966    28.144176      33.727928    
     99070   198.14         331.20176      137425.42     -807625.93     -303.96895      0.36291061     0.05727658     28.15499       33.369086    
     99080   198.16         318.19435      132249.15     -807628.28     -300.03614      0.36292459     0.056533346    28.145089      33.010246    
     99090   198.18         335.65665      137066.81     -807626.32     -304.21592      0.36293843     0.057318722    28.130529      32.651409    
     99100   198.2          323.99896      132083.13     -807627.89     -301.2569       0.36295213     0.056759057    28.174918      32.292567    
     99110   198.22         333.23564      137757.07     -807625.99     -304.3508       0.36296568     0.05733983     28.177995      31.933725    
     99120   198.24         320.72781      134132.38     -807625.95     -302.83573      0.36297909     0.057052282    28.146145      31.574888    
     99130   198.26         334.80015      135997.04     -807626.32     -304.3552       0.36299236     0.057336444    28.140271      31.216052    
     99140   198.28         334.27834      133218.73     -807628.64     -302.05187      0.36300548     0.056900472    28.152299      30.857216    
     99150   198.3          329.63239      134530.1      -807627.53     -302.55206      0.36301846     0.056992659    28.149205      30.498381    
     99160   198.32         337.41582      133956.66     -807628.74     -302.4181       0.3630313      0.05696541     28.142168      30.139547    
     99170   198.34         331.81631      133720.41     -807629.17     -301.27775      0.36304399     0.056748621    28.14037       29.780714    
     99180   198.36         331.89897      134556.75     -807628.14     -302.35573      0.36305655     0.056949702    28.153971      29.42188     
     99190   198.38         331.449        133266.98     -807628.37     -302.13433      0.36306895     0.056906054    28.092204      29.063054    
     99200   198.4          331.31342      135886.61     -807626.52     -304.002        0.36308122     0.057255891    28.059563      28.704231    
     99210   198.42         319.73436      134570.22     -807626.37     -302.6496       0.36309334     0.056999276    28.089239      28.345406    
     99220   198.44         341.88039      136772.51     -807627.66     -304.43123      0.36310532     0.057332927    28.121358      27.986578    
     99230   198.46         328.7618       133148.39     -807627.99     -302.51079      0.36311715     0.056969398    28.122198      27.627751    
     99240   198.48         328.63707      136971.44     -807625.9      -304.57493      0.36312885     0.057356273    28.101329      27.268926    
     99250   198.5          324.29279      131483.45     -807629.08     -301.05942      0.3631404      0.056692444    28.104208      26.910102    
     99260   198.52         321.09389      136314.21     -807626.12     -303.5002       0.3631518      0.057150272    28.138816      26.551275    
     99270   198.54         324.22784      131403.19     -807629.85     -300.55542      0.36316306     0.056594003    28.141565      26.192449    
     99280   198.56         330.86602      136453.46     -807626.44     -304.79407      0.36317418     0.057390375    28.151713      25.833622    
     99290   198.58         332.72306      131665.49     -807630.1      -301.6507       0.36318516     0.056796785    28.153993      25.474796    
     99300   198.6          332.67931      137167.3      -807626.89     -304.76003      0.36319599     0.057380519    28.140426      25.115972    
     99310   198.62         327.67471      132670.37     -807629.08     -302.13502      0.36320668     0.056884606    28.14593       24.757148    
     99320   198.64         335.50708      136083.6      -807626.91     -305.40104      0.36321723     0.057497848    28.151048      24.398324    
     99330   198.66         322.93674      133205.01     -807629.43     -301.3707       0.36322763     0.056737432    28.116885      24.039504    
     99340   198.68         324.89598      135849.88     -807627.94     -303.16923      0.36323789     0.057074419    27.714092      23.680719    
     99350   198.7          312.84467      132689.2      -807627.92     -301.7623       0.36324801     0.056807969    28.094376      23.321902    
     99360   198.72         327.00492      135085.99     -807628.17     -303.54567      0.36325798     0.057142125    28.11238       22.963083    
     99370   198.74         315.20309      133973.26     -807628.62     -301.66605      0.36326781     0.056786754    28.084661      22.604268    
     99380   198.76         331.36234      135051.62     -807629.58     -302.97389      0.3632775      0.057031426    28.001626      22.245459    
     99390   198.78         324.57452      133563.23     -807627.9      -303.90139      0.36328704     0.057204514    28.087795      21.886645    
     99400   198.8          317.18397      135088.94     -807626.7      -304.11604      0.36329644     0.057243437    28.152698      21.527826    
     99410   198.82         320.83171      134286.06     -807628.36     -303.04129      0.3633057      0.057039685    28.157714      21.169007    
     99420   198.84         329.88221      133978.92     -807630.15     -302.57334      0.36331481     0.056950177    28.142439      20.81019     
     99430   198.86         316.9839       134788.31     -807627.27     -303.7596       0.36332378     0.057172043    28.12502       20.451375    
     99440   198.88         314.39672      133842.43     -807628.41     -302.31719      0.36333261     0.056899176    28.14583       20.092559    
     99450   198.9          319.15901      134430.8      -807628.66     -302.65712      0.36334129     0.056961793    28.108765      19.733747    
     99460   198.92         324.37999      132675.5      -807629.5      -302.53932      0.36334983     0.056938285    28.13248       19.374933    
     99470   198.94         324.25281      135288.08     -807626.98     -304.97538      0.36335823     0.057395427    28.070268      19.016125    
     99480   198.96         320.00018      134246.91     -807627.24     -304.11728      0.36336648     0.057232636    28.069399      18.657317    
     99490   198.98         324.59246      135428.13     -807628.46     -303.41027      0.3633746      0.057098307    27.536197      18.298544    
     99500   199            333.1356       133179.88     -807630.78     -302.22546      0.36338256     0.056874093    28.099691      17.939735    
     99510   199.02         315.26025      136046.56     -807625.43     -9757.5111      0.36339039     0.057380345    28.039408      17.580929    
     99520   199.04         314.4302       133882.67     -807627.72     -9675.4389      0.36339807     0.056896507    28.037305      17.222125    
     99530   199.06         330.99957      134031.3      -807630.47     -9650.2109      0.3634056      0.056746976    28.004726      16.863322    
     99540   199.08         326.08251      133146.06     -807629.57     -9651.4592      0.363413       0.056753162    27.989004      16.504521    
     99550   199.1          331.27878      135221.52     -807626.16     -9773.5657      0.36342025     0.057470034    28.004474      16.14572     
     99560   199.12         319.77374      135177.41     -807626.02     -9717.4011      0.36342736     0.05713866     28.067335      15.786915    
     99570   199.14         326.42361      136164.4      -807627.11     -9701.7474      0.36343432     0.057045523    28.094266      15.428109    
     99580   199.16         331.735        134993.16     -807627.17     -9716.4843      0.36344114     0.057131103    28.068881      15.069305    
     99590   199.18         320.75899      136024.34     -807622.9      -9793.8986      0.36344782     0.057585226    28.074446      14.710501    
     99600   199.2          342.04972      134266.91     -807628.82     -9690.7151      0.36345435     0.056977513    28.031015      14.3517      
     99610   199.22         337.28098      133659.49     -807630.79     -9597.7872      0.36346074     0.056430142    27.982412      13.992902    
     99620   199.24         338.11811      134619.86     -807628.08     -9684.4874      0.36346699     0.056938917    28.028902      13.634102    
     99630   199.26         335.47535      134280.08     -807626.1      -9730.6145      0.3634731      0.057209155    28.026472      13.275303    
     99640   199.28         328.17826      136098.27     -807626.29     -9686.4059      0.36347906     0.056948306    27.987023      12.916505    
     99650   199.3          324.84649      134887.09     -807627.39     -9632.7291      0.36348487     0.056631823    28.000487      12.557708    
     99660   199.32         326.05178      136660.5      -807624.34     -9731.9587      0.36349055     0.057214311    28.0391        12.198909    
     99670   199.34         335.58572      134775.83     -807624.64     -9766.0093      0.36349608     0.057413622    28.044515      11.84011     
     99680   199.36         332.93519      136182.9      -807625.46     -9722.2297      0.36350147     0.057155398    28.040149      11.481312    
     99690   199.38         334.68275      133356.01     -807628.68     -9627.716       0.36350671     0.056598951    28.055055      11.122514    
     99700   199.4          342.95718      136493.04     -807626.25     -9739.6017      0.36351181     0.057255895    28.053532      10.763716    
     99710   199.42         338.0447       134465.88     -807625.9      -9733.6908      0.36351677     0.057220367    28.092717      10.404917    
     99720   199.44         340.10438      135187.83     -807626.68     -9714.8875      0.36352158     0.057109074    28.06156       10.04612     
     99730   199.46         334.22155      133792.29     -807628.92     -9620.7828      0.36352625     0.056555152    28.022352      9.6873248    
     99740   199.48         335.13867      135831.8      -807625.51     -9736.3706      0.36353078     0.057233914    27.992309      9.3285309    
     99750   199.5          337.15725      134796.84     -807624.67     -9777.138       0.36353516     0.057472867    28.01318       8.9697367    
     99760   199.52         335.45177      135836.06     -807627.17     -9690.4429      0.3635394      0.056962583    28.026581      8.6109425    
     99770   199.54         333.14543      135165.8      -807628.29     -9646.4663      0.3635435      0.05670344     28.037492      8.2521483    
     99780   199.56         328.62836      134955.26     -807624.92     -9739.445       0.36354745     0.057249361    28.055577      7.8933541    
     99790   199.58         329.34121      134641.25     -807624.61     -9757.3976      0.36355126     0.057354287    28.043175      7.5345606    
     99800   199.6          330.50896      134279.37     -807628.16     -9650.6265      0.36355493     0.056726111    28.031712      7.1757679    
     99810   199.62         333.90996      134070.34     -807629.64     -9624.0239      0.36355845     0.056569193    27.982576      6.8169768    
     99820   199.64         333.42394      134785.24     -807626.32     -9735.4981      0.36356183     0.057223897    27.995706      6.4581857    
     99830   199.66         325.91385      135255.32     -807624.66     -9761.2703      0.36356507     0.057374872    28.044525      6.0993938    
     99840   199.68         334.90832      133948.59     -807628.67     -9680.2776      0.36356816     0.056898328    28.024463      5.7406028    
     99850   199.7          324.33461      134516.81     -807626.72     -9701.4553      0.36357111     0.057022343    27.968227      5.3818133    
     99860   199.72         325.38261      135278.52     -807624.78     -9776.7092      0.36357392     0.05746422     27.983598      5.0230237    
     99870   199.74         326.57996      136027.53     -807625.05     -9780.8478      0.36357658     0.057488124    28.005689      4.6642341    
     99880   199.76         334.02601      133568.22     -807629.94     -9663.5464      0.3635791      0.056798277    28.02398       4.3054445    
     99890   199.78         324.99642      134400.07     -807628.37     -9678.8027      0.36358148     0.056887575    28.036607      3.9466551    
     99900   199.8          323.22646      132808.41     -807627.86     -9694.8438      0.36358371     0.056981508    28.048695      3.587866     
     99910   199.82         324.09999      134663.44     -807627.59     -9713.683       0.3635858      0.057091907    28.035498      3.2290775    
     99920   199.84         333.62946      133260.99     -807631.57     -9636.1991      0.36358775     0.056636194    28.039149      2.8702894    
     99930   199.86         320.06918      135672.52     -807627.62     -9706.6052      0.36358955     0.057049719    28.08894       2.5115013    
     99940   199.88         324.87063      134998.33     -807626.61     -9766.7367      0.36359121     0.057402875    28.103126      2.1527136    
     99950   199.9          326.98652      135781.8      -807627.27     -9757.8674      0.36359273     0.057350507    28.081674      1.7939267    
     99960   199.92         332.17356      133699.12     -807629.96     -9700.0838      0.3635941      0.057010677    28.090996      1.4351402    
     99970   199.94         323.54885      135098.76     -807629.48     -9680.3075      0.36359533     0.056894253    28.057753      1.0763545    
     99980   199.96         311.35833      134036.51     -807627.07     -9708.6857      0.36359641     0.05706087     28.020613      0.71756926   
     99990   199.98         315.03011      134341.55     -807627.63     -9707.4557      0.36359736     0.057053493    27.992543      0.35878447   
    100000   200            319.10734      132960.36     -807630.37     -9639.3009      0.36359816     0.056652803    28.022077      0            
Loop time of 3587.84 on 32 procs for 100000 steps with 1080 atoms

Performance: 4.816 ns/day, 4.983 hours/ns, 27.872 timesteps/s, 30.102 katom-step/s
72.8% CPU use with 32 MPI tasks x 1 OpenMP threads

MPI task timing breakdown:
Section |  min time  |  avg time  |  max time  |%varavg| %total
---------------------------------------------------------------
Pair    | 2494       | 2788.9     | 3100.3     | 314.0 | 77.73
Neigh   | 0.0016198  | 0.0017624  | 0.0019416  |   0.2 |  0.00
Comm    | 413.14     | 724.72     | 1019.5     | 615.9 | 20.20
Output  | 2.3239     | 2.3332     | 2.3417     |   0.3 |  0.07
Modify  | 64.53      | 65.239     | 66.032     |   4.4 |  1.82
Other   |            | 6.692      |            |       |  0.19

Nlocal:          33.75 ave          44 max          26 min
Histogram: 2 4 1 8 5 6 2 2 1 1
Nghost:        1027.12 ave        1044 max        1015 min
Histogram: 3 1 6 2 11 3 3 2 0 1
Neighs:              0 ave           0 max           0 min
Histogram: 32 0 0 0 0 0 0 0 0 0
FullNghs:      5364.44 ave        7030 max        4165 min
Histogram: 2 4 1 8 8 3 2 2 1 1

Total # of neighbors = 171662
Ave neighs/atom = 158.9463
Neighbor list builds = 4
Dangerous builds = 0

Total wall time: 1:03:29
