
units		metal
atom_style	atomic

read_data ${STRUCTURE}.data
read_data BaTiO3-sc333.data
Reading data file ...
  orthogonal box = (0 0 0) to (11.898253 11.898253 12.912076)
  4 by 4 by 4 MPI processor grid
  reading atoms ...
  135 atoms
  read_data CPU = 0.061 seconds
replicate $L $L $L
replicate 2 $L $L
replicate 2 2 $L
replicate 2 2 2
Replication is creating a 2x2x2 = 8 times larger system...
  orthogonal box = (0 0 0) to (23.796507 23.796507 25.824152)
  4 by 4 by 4 MPI processor grid
  1080 atoms
  replicate CPU = 0.005 seconds

pair_style allegro
pair_coeff	* * ${MODEL}.pth Ba Ti O
pair_coeff	* * BaTiO3-E0.pth Ba Ti O
mass 1 137.3
mass 2 47.9
mass 3 15.9994

timestep 0.002
compute polarization all allegro polarization 3
compute allegro will evaluate the quantity polarization of length 3 (src/compute_allegro.cpp:53)
compute polarizability all allegro polarizability 9
compute allegro will evaluate the quantity polarizability of length 9 (src/compute_allegro.cpp:53)

thermo_style custom pe fmax fnorm spcpu cpuremain

variable efield equal 1e-2*36.36
fix born all addbornforce 0.0 0.0 ${efield}
fix born all addbornforce 0.0 0.0 0.3636

thermo 10
min_style fire
#minimize 0.0 1e-6 100 100
velocity all create ${TEMP} 126342 dist gaussian rot yes mom yes
velocity all create 320 126342 dist gaussian rot yes mom yes
fix nvt all nvt temp ${TEMP} ${TEMP} $(100*dt)
fix nvt all nvt temp 320 ${TEMP} $(100*dt)
fix nvt all nvt temp 320 320 $(100*dt)
fix nvt all nvt temp 320 320 0.2000000000000000111
run 5000
Neighbor list info ...
  update: every = 1 steps, delay = 0 steps, check = yes
  max neighbors/atom: 2000, page size: 100000
  master list distance cutoff = 8
  ghost atom cutoff = 8
  binsize = 8, bins = 3 3 4
  1 neighbor lists, perpetual/occasional/extra = 1 0 0
  (1) pair allegro/kk, perpetual
      attributes: full, newton on, kokkos_device
      pair build: full/bin/kk/device
      stencil: full/bin/3d
      bin: kk/device
Per MPI rank memory allocation (min/avg/max) = 3.592 | 3.592 | 3.592 Mbytes
    PotEng          Fmax          Fnorm          S/CPU         CPULeft    
-807708.43      1.5957472      37.033077      0              0            
-807645.8       3.1051497      45.603771      0.79563357     6271.7323    
-807635.47      2.4741147      35.881864      35.331504      3200.0572    
-807608.99      2.8160463      37.304317      36.0138        2175.0885    
-807605.6       3.9985828      49.721429      35.953157      1662.5233    
-807567.62      3.3265204      39.70745       35.870642      1354.9364    
-807598.64      2.6656568      39.023325      35.951586      1149.7338    
-807645.06      3.3592062      32.633103      35.984674      1003.063     
-807684         2.4239025      33.720555      35.884451      893.03818    
-807667.35      3.344013       34.242202      35.964897      807.36737    
-807652.33      3.3264665      34.803465      35.981816      738.76874    
-807661.08      2.4025335      27.558893      36.035634      682.57359    
-807630.36      2.5112452      30.558819      35.900934      635.74039    
-807586.71      2.9379271      39.50271       35.967228      596.05023    
-807567.31      2.8334988      38.110191      35.913064      562.0049     
-807629.93      3.5891762      34.219723      35.997945      532.44061    
-807652.38      2.9388952      30.710738      36.038999      506.52755    
-807663.54      3.450812       34.192651      36.049634      483.62812    
-807644.93      4.5372939      45.151644      36.037421      463.24477    
-807680.71      2.9261855      36.424843      36.035263      444.97824    
-807642.55      3.6822009      39.335102      36.024927      428.51252    
-807617.66      3.0905571      38.724696      36.030076      413.58763    
-807562.09      3.6068062      45.617661      36.064343      399.98859    
-807604.33      3.8733333      49.550623      36.013908      387.55602    
-807611.14      3.8682634      38.362444      36.003069      376.13801    
-807638.27      2.8436198      35.916521      36.054536      365.60368    
-807641.41      4.6856691      44.917028      36.083784      355.85424    
-807682.12      3.024984       37.706049      36.002951      346.81738    
-807662.03      4.355868       35.351955      35.954809      338.41243    
-807638.33      2.9536004      32.215138      36.020133      330.55976    
-807608.15      3.3583512      33.926275      36.05351       323.20806    
-807606.58      3.7145557      41.646031      36.072121      316.3106     
-807594.45      3.0946967      36.865679      35.939494      309.84188    
-807605.61      2.4990302      32.991576      36.036931      303.73768    
-807639.54      3.3294038      30.507443      36.084994      297.97117    
-807673.14      2.3610215      31.450686      36.039426      292.523      
-807675.89      2.309835       32.748663      36.059857      287.36005    
-807643.99      4.2250347      37.989325      36.070322      282.46019    
-807648.92      3.4066346      31.249982      36.044479      277.80604    
-807624.37      3.8031428      33.989043      36.022099      273.37838    
-807601.16      4.0589097      42.966075      36.006174      269.15963    
-807566.64      4.0386922      42.174175      36.044089      265.12986    
-807621.44      3.0155996      36.10105       36.048508      261.27839    
-807646.95      4.2208824      35.191838      36.018039      257.59566    
-807671.28      2.8091364      34.828023      36.048817      254.06525    
-807640.26      4.6122772      46.593073      36.047401      250.67952    
-807667.39      3.2240569      35.438467      36.068731      247.42732    
-807644.8       3.7009317      36.445088      36.033821      244.3043     
-807625.76      3.6423404      37.328584      36.078783      241.29659    
-807566         4.4419386      43.309057      36.031427      238.40368    
-807598.78      3.7887409      44.182186      36.036496      235.61504    
-807619.01      3.6785485      35.830041      36.036868      232.92485    
-807651.2       2.7732433      32.6812        36.07492       230.32493    
-807639.02      4.5688056      42.02824       36.080529      227.81229    
-807672.6       2.7468209      34.063183      36.013963      225.38669    
-807664.3       2.8824469      33.84665       35.979474      223.04134    
-807644.41      2.8335638      30.751779      35.987323      220.76935    
-807602.95      3.4046139      34.55283       36.016789      218.56556    
-807599.59      3.5273966      37.728996      36.025253      216.4277     
-807603.33      4.4455472      39.602167      35.96861       214.35616    
-807616.19      3.4015938      32.767515      36.016898      212.34167    
-807633         3.1800208      32.898771      36.034664      210.38314    
-807662.42      3.3394439      33.140762      36.027184      208.47925    
-807675.16      2.7239589      35.320834      35.988807      206.62903    
-807646.24      4.8434513      38.533011      35.988409      204.82798    
-807635.62      2.8321592      33.739893      36.033476      203.07146    
-807615.08      4.1850887      35.96575       36.017161      201.3606     
-807605.58      3.9506852      44.869766      36.019263      199.6924     
-807575.49      4.4435415      41.96582       36.019462      198.0651     
-807613.06      4.1620687      37.56082       36.05933       196.475      
-807641.3       4.0319169      37.85223       36.012024      194.92465    
-807672.74      3.0769063      36.334081      36.035389      193.40906    
-807646.5       4.9932326      43.013738      35.989784      191.92995    
-807652.73      3.1646512      36.371099      36.037004      190.48163    
-807642.15      3.8875712      35.995027      36.023123      189.06556    
-807627.46      3.6624705      37.895171      35.981689      187.68166    
-807575.31      3.9730578      40.302999      36.054318      186.32374    
-807587.76      3.5856245      41.131406      36.06607       184.9934     
-807621.51      3.4256273      33.983131      36.043617      183.69099    
-807656.64      2.5730592      31.399377      36.064316      182.41368    
-807645.92      3.6417801      37.408438      36.034265      181.16258    
-807657.04      3.070891       35.543777      36.03948       179.93532    
-807663.62      2.7231039      33.491719      35.93824       178.73521    
-807645.64      3.8511658      31.911622      36.027528      177.55384    
-807605.01      2.8908262      35.669281      36.004943      176.39486    
-807585.58      4.1819665      38.698217      36.058031      175.25461    
-807603.43      3.9228137      40.581381      35.979447      174.13735    
-807622.55      2.902736       32.764487      36.053473      173.03668    
-807636.12      3.3263061      33.320428      36.025951      171.95571    
-807649.36      3.6011699      36.791041      36.049516      170.89195    
-807671.27      2.7066157      35.762688      36.004354      169.84725    
-807650.66      3.6669501      36.926478      36.016816      168.81898    
-807633.42      3.3638785      33.901799      36.024111      167.80678    
-807605.47      4.3881113      37.610669      36.101198      166.80778    
-807606.86      3.9702793      44.064848      36.032723      165.82642    
-807592.83      4.4429244      38.618875      36.048626      164.85935    
-807613.13      3.3178295      36.081373      36.054971      163.90644    
-807637.09      3.2665674      35.711766      36.102718      162.96594    
-807668.99      2.9028516      35.451414      36.036795      162.04106    
-807656.16      3.3454516      37.285587      36.003829      161.13029    
-807647.51      2.932925       34.678041      36.039934      160.23106    
-807635.83      3.3961565      34.004681      36.062291      159.34347    
-807627.1       3.6541725      36.460949      36.025933      158.46893    
-807592.07      3.535413       38.389355      36.05696       157.60507    
-807589.14      3.4019889      38.994749      36.00277       156.75408    
-807621.15      3.0336167      33.328128      36.007641      155.91386    
-807655.95      3.2220625      32.559335      36.028725      155.08365    
-807657.67      3.5361712      34.733524      36.032996      154.26365    
-807651.01      3.8508238      36.167122      36.053791      153.45311    
-807657.44      2.384021       32.487036      36.021157      152.65326    
-807644.91      2.6539011      31.368752      36.03256       151.8626     
-807613.45      3.2135395      34.73625       36.039852      151.08098    
-807582.4       2.8763834      38.20647       36.064162      150.30771    
-807605.56      3.5824421      36.766277      36.017269      149.54447    
-807628.87      3.9905501      34.188678      36.00277       148.79012    
-807646.68      3.0107841      32.868353      36.080874      148.04204    
-807644.97      4.8979594      39.356343      36.065025      147.30249    
-807666.24      3.1656544      35.156747      36.011245      146.5722     
-807652.34      3.57265        36.418668      36.060084      145.84835    
-807634.21      3.603851       34.146565      36.052802      145.1322     
-807597.79      4.6473692      38.615078      36.080747      144.42267    
-807602.54      4.3471747      40.564597      36.026033      143.72161    
-807603.52      3.6224552      37.734733      35.883902      143.0309     
-807624.27      3.5936233      33.502595      35.961302      142.34506    
-807634.91      4.415714       35.797165      35.991883      141.66507    
-807664.32      3.0232386      33.529476      35.984728      140.99168    
-807659.74      2.6815293      34.984425      36.002326      140.32417    
-807648.47      2.9035797      33.316647      36.001892      139.6628     
-807625.35      3.5280758      34.111792      36.074747      139.0058     
-807618.35      3.591896       36.118151      36.031236      138.35565    
-807598.96      3.2985289      38.447518      36.040959      137.71101    
-807596.87      3.1510175      38.027333      36.078074      137.07118    
-807616.36      3.3615554      35.441269      35.994534      136.43864    
-807651.47      4.0241267      34.472752      36.036822      135.81053    
-807659.12      3.4463314      36.137195      35.947894      135.18953    
-807649.2       4.1766842      37.766099      36.027274      134.57196    
-807644.9       3.8298621      35.562761      35.967743      133.96061    
-807636.3       3.2406379      34.660008      36.015294      133.35315    
-807616.66      3.1442285      36.719408      36.053474      132.74971    
-807584.31      3.6165908      39.632375      36.002019      132.15198    
-807600.47      2.9885808      37.787385      36.042292      131.55803    
-807629.01      3.5108008      34.683368      36.034156      130.96872    
-807650.05      3.5513416      34.1654        35.999149      130.38449    
-807645.06      3.6152425      37.700901      36.021011      129.80413    
-807655.54      3.3438638      35.484012      36.00143       129.22834    
-807650.14      4.8661872      35.422953      36.02335       128.65625    
-807635.91      2.8826077      33.76892       36.023739      128.08818    
-807598.71      3.9917678      37.667139      36.042175      127.52373    
-807595.57      4.2022567      39.671525      36.043118      126.96314    
-807608.94      3.2033449      37.261719      36.049461      126.40623    
-807632.08      2.766752       34.065396      36.059176      125.85287    
-807637         3.6185737      36.125588      36.07243       125.30294    
-807655.84      2.8466772      34.929862      35.921064      124.75927    
-807658.77      3.2007095      35.630474      36.001331      124.21766    
-807648.39      3.3697989      33.650682      36.008728      123.67935    
-807621.51      4.7972603      35.348692      36.071988      123.14331    
-807609.99      3.6293513      36.114185      36.026761      122.61136    
-807602.91      4.0654954      38.901159      36.026571      122.08266    
-807609.16      3.1085435      35.984937      36.026027      121.55714    
-807622.48      4.0827775      34.1309        36.052533      121.03431    
-807646.07      3.085679       33.971479      36.080587      120.51408    
-807662.13      3.3482082      35.065559      36.071497      119.99702    
-807653.71      3.745171       35.709101      35.980418      119.48439    
-807639.6       3.6091965      34.811013      35.977362      118.97468    
-807631.56      3.0397721      33.385309      36.024912      118.46705    
-807617.02      3.3197615      36.737776      36.057544      117.9617     
-807595.69      2.9148451      37.822544      36.074196      117.45883    
-807602.41      3.2667022      36.541435      36.02164       116.95948    
-807630.76      3.5643135      33.529319      36.011855      116.46291    
-807654.33      3.4626751      33.8905        36.065146      115.96813    
-807650.86      3.5301359      35.976908      36.030251      115.47644    
-807649.2       3.9886079      35.457522      36.007146      114.98758    
-807646.49      3.3328457      33.115347      35.95483       114.50196    
-807634.73      3.0923374      33.903498      36.044555      114.01742    
-807604.45      3.9118179      36.651192      36.056954      113.53509    
-807594.89      3.3788442      37.373546      36.040763      113.05533    
-807612.47      3.6385371      36.25725       36.027486      112.57806    
-807637.66      3.2841838      33.800498      35.978438      112.10373    
-807641.85      4.2924793      35.701268      36.018161      111.63106    
-807649.69      4.1568173      35.985594      36.038014      111.16029    
-807655.6       3.8784824      35.522415      35.947654      110.69291    
-807646.6       4.2292372      34.64082       36.050908      110.22622    
-807620.57      3.7083145      35.045508      36.029825      109.76189    
-807602.8       4.1321483      36.245931      36.02774       109.29962    
-807604.25      3.9189669      38.284482      35.993533      108.83982    
-807615.04      3.2686709      36.490265      36.012417      108.38174    
-807626.68      3.2960894      34.801829      36.004113      107.92571    
-807642.97      3.7344023      35.05909       35.942916      107.47237    
-807658.49      2.9282471      34.785723      36.035229      107.01972    
-807651.53      3.7064775      34.968901      35.950533      106.56999    
-807637.9       3.1724922      33.879506      35.953358      106.12204    
-807620.45      3.9236541      34.356432      35.955679      105.67583    
-807614.01      3.3642823      35.955598      36.017852      105.2306     
-807600.57      3.5434291      38.019358      35.916589      104.78836    
-807609.85      3.4233765      35.222293      36.014011      104.34662    
-807628.02      3.8213274      34.513407      36.042813      103.90621    
-807652.37      3.2688773      33.627953      36.032591      103.46759    
-807650.69      3.6448573      35.857685      36.028837      103.03065    
-807647.96      2.9874412      34.933816      35.942113      102.59634    
-807636.61      3.7445987      34.687841      35.995216      102.16297    
-807627.35      3.8980974      34.398782      35.940986      101.73179    
-807608.21      3.5258107      36.608152      35.978419      101.3017     
-807597.36      3.9054848      37.584554      36.032273      100.87251    
-807612.55      3.4331968      35.439313      36.01498       100.44501    
-807636.91      3.3115641      33.924997      36.018595      100.01893    
-807648.44      2.8693319      34.26008       36.030922      99.594165    
-807645.17      3.7163403      35.93632       35.904422      99.172225    
-807648.35      2.8693557      34.161876      35.892325      98.751804    
-807643.8       3.4339824      32.724794      35.889239      98.33278     
-807622.47      3.0918997      34.487242      35.953431      97.914406    
-807602.41      2.8946546      35.769529      36.042922      97.496415    
-807603.71      3.4898545      37.511581      36.031167      97.07988     
-807620.02      3.8741825      35.378681      35.999433      96.664988    
-807636.05      2.9393114      33.770735      35.920329      96.252208    
-807642.6       3.2437112      34.779062      35.972761      95.840142    
-807652.92      3.3943852      34.789052      36.008876      95.428954    
-807650.04      3.4788924      34.040517      35.979098      95.019303    
-807637.66      3.2062972      33.38014       35.922482      94.611438    
-807615.59      3.0484531      34.286383      35.985346      94.204131    
-807607.48      3.9933582      36.812453      35.951535      93.798342    
-807605.56      4.0970353      38.028712      35.950569      93.393723    
-807619.61      2.9369637      35.104025      35.987064      92.989892    
-807631.43      3.8121929      35.274764      35.912247      92.587921    
-807649.98      3.298721       34.99349       36.018405      92.186038    
-807652.79      3.1162782      34.957532      35.926944      91.786134    
-807646.45      3.9510559      34.22394       35.816942      91.388357    
-807630.77      3.5229804      34.541472      35.996582      90.98994     
-807621.18      3.8227443      34.376177      36.06441       90.591957    
-807609.51      4.0851482      37.177615      35.957963      90.196012    
-807604.31      3.6311307      37.040073      36.004502      89.800671    
-807617.31      3.70367        35.471513      36.035937      89.406068    
-807638.21      3.3365665      34.343515      36.020099      89.012621    
-807650.87      2.7442131      34.255975      36.073624      88.619697    
-807646.97      4.1026248      36.361246      36.045063      88.228018    
-807642.72      3.2994593      34.823157      35.950046      87.838148    
-807634.44      2.9970189      34.401416      36.040391      87.448443    
-807621.97      3.2029924      35.161062      36.066554      87.059464    
-807603.72      3.547531       37.169443      36.083433      86.671283    
-807605.44      3.14023        37.313431      36.009419      86.284663    
-807622.46      3.0646589      34.899679      36.058407      85.898543    
-807642.88      3.1535866      33.487351      36.070407      85.513229    
-807644.35      3.8165104      35.562149      36.069307      85.128821    
-807647.69      3.2076863      34.934067      36.01479       84.745746    
-807645.94      3.2493289      33.721762      36.012335      84.363559    
-807635.66      3.0432013      33.567677      36.080678      83.981676    
-807613.99      3.3431818      35.005203      36.107865      83.600431    
-807603.68      3.3426583      36.875937      36.070461      83.220332    
-807610.75      3.1587103      35.979287      36.082042      82.840973    
-807627.62      2.8315419      34.645264      36.064992      82.462572    
-807636.97      3.3699991      34.109391      36.085497      82.084824    
-807646.55      4.1552413      34.629701      36.06174       81.708064    
-807651.58      3.2195811      34.28322       36.042214      81.332245    
-807644.9       3.138401       33.840689      36.00453       80.957493    
-807627.9       3.758949       34.203884      36.077459      80.582959    
-807612.69      3.7961936      35.425272      36.075905      80.209204    
-807609.64      3.5547721      37.275681      36.036028      79.836501    
-807611.17      3.5519764      36.109167      36.038558      79.464522    
-807623.16      3.143959       34.884951      36.101856      79.09282     
-807637.79      3.5925876      34.665017      36.080196      78.722008    
-807652.16      2.7677917      34.371683      36.047096      78.352155    
-807648.88      3.146078       34.691618      36.065791      77.982881    
-807638.7       3.7079756      34.823307      36.084751      77.614178    
-807627.79      2.7815789      34.225959      35.953982      77.247091    
-807619.24      3.3683916      35.996603      36.050744      76.880006    
-807606.61      4.1074337      36.927187      35.965451      76.51419     
-807608.93      3.9281798      36.390382      36.033144      76.148572    
-807625.72      3.9148627      35.087619      35.997804      75.783857    
-807644.03      3.2277516      34.211678      36.069916      75.419308    
-807646.8       3.6968022      35.225968      36.061885      75.055464    
-807645.54      3.313036       35.631195      36.009564      74.69261     
-807639.67      3.8348507      34.649047      35.966246      74.330671    
-807631.64      4.6508539      34.263411      36.047704      73.968821    
-807613.16      3.2306469      36.086422      36.066963      73.607467    
-807603.1       4.1126103      36.92325       36.077514      73.246662    
-807613.41      2.8303905      35.618937      36.058298      72.886589    
-807631.45      4.119594       34.256088      36.057117      72.527125    
-807640.21      2.8491607      35.40441       35.981964      72.168727    
-807644.9       4.2613073      35.690253      36.009483      71.810738    
-807649.28      3.3319156      34.500135      36.115324      71.452678    
-807640.54      3.9215228      34.277515      36.099217      71.095297    
-807626.05      2.9806621      34.637485      36.056718      70.738746    
-807606.71      2.7791467      36.574586      36.069244      70.382685    
-807608.13      3.5071339      36.778604      36.079069      70.027124    
-807616.17      3.2256302      35.546748      36.04216       69.672335    
-807630.28      2.9286852      34.618639      36.112637      69.317678    
-807639.8       3.0731318      34.466405      36.137547      68.963423    
-807649.92      3.072874       34.402912      36.073306      68.610078    
-807647.27      3.4530115      35.034158      36.007201      68.257643    
-807637.28      3.0632473      34.404784      36.032101      67.905584    
-807620.95      3.2241841      34.972217      36.088544      67.553725    
-807612.26      2.8753073      36.217526      36.032618      67.202693    
-807608.4       4.060205       37.028487      36.110123      66.851738    
-807616.81      3.199352       36.060264      36.056809      66.501581    
-807629.68      3.4821516      35.585548      36.064374      66.151881    
-807644.46      3.7399051      34.432333      36.09686       65.802498    
-807649.35      3.0489681      34.615506      36.126733      65.453447    
-807644.62      5.1959563      35.422319      36.099153      65.10503     
-807635.41      3.2516829      34.571433      36.087443      64.757155    
-807625.49      4.2251128      34.722604      36.061858      64.409888    
-807611.87      3.3585121      36.339695      36.111708      64.062832    
-807611.24      3.6546971      35.42278       36.09161       63.716346    
-807618.09      4.166909       35.279158      36.025664      63.370657    
-807634.66      2.983953       33.629965      36.11475       63.024969    
-807645         3.3459037      34.655174      36.087425      62.679873    
-807646.73      3.067811       34.546614      36.052514      62.335396    
-807643.43      3.4667005      35.179779      36.097506      61.991139    
-807637.7       3.0726676      34.353831      36.086025      61.647377    
-807622.86      3.419283       35.504387      36.057708      61.304186    
-807610.98      3.3828602      36.624535      36.00204       60.96169     
-807610.7       3.839626       36.620358      36.091719      60.619186    
-807620.73      4.3555855      36.125079      36.058025      60.277263    
-807634.46      4.3120479      34.814632      36.032128      59.935877    
-807643.01      4.8184516      34.666924      35.989407      59.595098    
-807646.93      3.8084085      34.385051      36.073605      59.254334    
-807645.02      3.4658267      34.599477      36.080596      58.913943    
-807636.38      2.7920465      33.905741      36.121975      58.573766    
-807619.66      3.0773164      34.328462      36.155715      58.233841    
-807610.77      3.4591161      35.945237      36.081796      57.894642    
-807611.49      3.0009108      35.921381      36.131054      57.555617    
-807622.11      3.3253791      35.915011      36.084697      57.217184    
-807632.13      3.3495369      35.218843      36.054802      56.879264    
-807644.52      4.1234404      34.858929      36.003307      56.541942    
-807646.04      3.4744992      36.067918      36.105707      56.204555    
-807643.07      3.5178861      35.687193      36.047132      55.867788    
-807628.94      4.8054654      35.948628      36.141889      55.530993    
-807619.29      3.4027578      35.495291      36.073087      55.194852    
-807608.58      3.8598328      36.972162      36.104205      54.858945    
-807611.53      3.3931836      36.507077      36.119415      54.523336    
-807621.12      2.8182665      34.87589       36.127216      54.188055    
-807636         3.0835125      34.11204       36.106235      53.853212    
-807645.79      2.8340692      34.564633      36.097851      53.518754    
-807644.19      3.6400798      35.592562      36.080287      53.184711    
-807639.1       3.9529551      35.153491      36.084933      52.850993    
-807630.05      3.7685222      35.662464      36.069271      52.517675    
-807618.26      3.0604584      35.99673       36.09554       52.184593    
-807607.93      3.8094485      37.814807      36.110579      51.851788    
-807611.7       3.4638063      36.569099      36.075569      51.519448    
-807624.75      4.1984879      35.524318      36.081114      51.187414    
-807637.68      2.9710287      34.062978      36.063175      50.85577     
-807643.94      3.592017       35.023174      35.947618      50.524871    
-807643.78      2.8894938      34.828197      36.031475      50.193977    
-807637.59      3.3912448      35.12921       36.035882      49.86338     
-807631.17      3.5986661      34.138909      35.975111      49.533311    
-807617.74      3.605344       35.31634       35.974596      49.203547    
-807609.13      3.2661375      36.86915       36.114942      48.873594    
-807615.39      3.9925515      36.00152       36.06303       48.544128    
-807627.44      3.8403621      35.012251      36.123397      48.214757    
-807637.87      3.3829775      34.12744       36.084569      47.88582     
-807642.12      4.2214284      35.258161      36.114933      47.557079    
-807644.4       3.9640183      35.105806      36.077759      47.228759    
-807639.46      2.9553378      34.578003      36.089881      46.900691    
-807627.61      3.4071199      35.006695      36.119597      46.572817    
-807616.56      3.6349304      35.461468      36.10843       46.245269    
-807613.51      3.4801895      35.909584      36.156637      45.917854    
-807617.59      3.7035482      35.791776      36.044537      45.591081    
-807628.52      2.8140582      34.530999      36.119597      45.26435     
-807637.03      3.0724915      34.525252      36.031294      44.938174    
-807644.23      2.7787108      34.234864      36.043648      44.612232    
-807645.11      3.4643076      34.496936      36.065964      44.286493    
-807636.27      3.3674217      34.573915      36.110406      43.96089     
-807625.08      3.282574       34.916915      36.124873      43.635515    
-807618.69      3.0978391      35.638932      36.142637      43.310356    
-807613.75      3.354791       36.554696      36.151388      42.985439    
-807618.97      3.5949798      36.259208      36.166784      42.660744    
-807628.45      3.2647142      34.89963       36.158363      42.336338    
-807641.57      3.2686304      34.847762      36.153469      42.012208    
-807643.29      3.1925099      35.307866      36.050291      41.688627    
-807640.86      3.0559647      34.759034      36.167524      41.364973    
-807634.69      3.0656076      34.406099      36.158098      41.0416      
-807627.26      2.7726904      34.411848      36.122814      40.718577    
-807615.82      3.3732576      35.985252      36.049029      40.396003    
-807611.81      3.0091567      36.407885      36.087798      40.073569    
-807621.96      3.0958346      34.825981      36.161678      39.751184    
-807632.24      3.0859011      34.589833      36.131574      39.429123    
-807639.14      2.9114145      35.191127      36.103058      39.107378    
-807642.42      2.8918244      35.024486      36.118431      38.785832    
-807641.07      3.4060012      35.394844      36.124627      38.464508    
-807635.12      3.3090877      35.126943      36.128328      38.143411    
-807622.94      3.1373966      35.564018      36.072842      37.822686    
-807614         3.8944726      36.807101      36.079514      37.502174    
-807612.9       3.5783417      37.271443      36.151753      37.181716    
-807620.33      3.3330942      36.09328       36.164281      36.861458    
-807629.68      3.2388289      35.145581      36.2196        36.541298    
-807636.3       3.2111382      35.707931      36.180794      36.221459    
-807644.07      2.9636787      35.175021      36.169406      35.901872    
-807638.86      3.3263909      36.876029      36.203969      35.582431    
-807633.9       3.4411412      34.616891      36.182377      35.263262    
-807619.11      2.9821511      35.537552      36.139864      34.944409    
-807616.13      3.2004344      35.813791      36.140366      34.625772    
-807613.77      3.8427669      36.64022       36.164529      34.307299    
-807619.66      4.3319229      35.74074       36.144034      33.989084    
-807629.71      3.321181       35.821694      36.198723      33.670966    
-807638.51      4.3425753      36.434711      36.162218      33.353138    
-807643.5       3.2408186      35.712636      36.083752      33.035684    
-807636.21      4.3769517      36.46805       36.080424      32.718442    
-807631.07      3.221191       35.345129      36.074815      32.401413    
-807621         4.3456922      36.536098      36.116109      32.084503    
-807613.91      3.2194767      36.958774      36.151773      31.767724    
-807613.21      4.9804634      36.123457      36.152621      31.451145    
-807624.19      2.9141917      34.891373      36.159021      31.134753    
-807631.78      3.2851704      34.79732       36.164163      30.818551    
-807641.5       2.8263326      33.869828      36.127025      30.502618    
-807639.33      3.6701419      34.736865      36.155999      30.186824    
-807640.57      2.9058782      33.936101      36.143039      29.87125     
-807630.88      3.8762744      34.163717      36.14616       29.555862    
-807622.52      3.0407336      34.700447      36.117484      29.240717    
-807612.93      3.454092       36.267193      36.122869      28.925751    
-807615.63      3.168127       35.646894      36.134465      28.610952    
-807625.08      3.9091784      35.308227      36.112775      28.296377    
-807635.72      2.7870659      34.35403       36.106901      27.981996    
-807640.57      3.5252132      35.455394      36.138013      27.667746    
-807642.12      3.399347       34.78001       36.116045      27.353714    
-807639.19      3.1570972      34.253873      36.078788      27.039924    
-807630.78      3.1188047      33.788449      36.155305      26.726188    
-807618.55      3.4339435      35.532903      36.154383      26.412633    
-807614.09      3.0141228      35.879071      36.162455      26.099243    
-807619.42      3.1847456      35.264505      36.15494       25.786042    
-807624.96      3.543418       35.169848      36.062477      25.473158    
-807636.47      3.4665923      34.322924      36.153087      25.160307    
-807639.37      3.1305256      34.681853      36.146278      24.84764     
-807644.12      3.2263165      34.314642      36.054358      24.535279    
-807635.49      3.6485694      34.332457      36.01009       24.223148    
-807628.43      3.1665338      34.713066      36.059198      23.91111     
-807618.56      3.5076774      34.92531       36.152813      23.599105    
-807618.18      3.0089369      35.824832      36.132259      23.287296    
-807617.64      3.3245795      35.482092      36.076751      22.975727    
-807628.36      4.3093361      34.450654      36.162921      22.664205    
-807635.67      3.4213223      34.508008      36.205634      22.35279     
-807642.76      3.8644459      35.049327      36.111472      22.041662    
-807638.45      3.8500381      35.086317      36.076851      21.730737    
-807635.83      3.3121684      34.088412      36.149564      21.419878    
-807627.11      3.6121196      34.360077      36.156118      21.109169    
-807619.14      3.4275161      35.653494      36.141652      20.798637    
-807613.85      3.844848       36.411985      36.165022      20.488233    
-807619.33      3.2197022      34.620982      36.150093      20.178002    
-807628.84      3.7181666      34.425128      36.128475      19.867951    
-807636.73      3.0303481      34.633694      36.125221      19.558056    
-807640.29      3.8091133      35.18429       36.129952      19.248307    
-807640.41      3.2185307      33.998496      36.150987      18.938686    
-807635.54      3.0209707      33.487154      36.078751      18.629292    
-807626.62      2.8765399      33.63809       36.103223      18.320019    
-807618.46      3.5278269      35.55662       36.087417      18.010909    
-807614.22      2.9071619      35.218582      36.18565       17.701845    
-807621.83      3.1742641      34.21573       36.145466      17.392968    
-807628.16      2.791147       34.83294       36.213756      17.08417     
-807636.96      3.4645349      34.535218      36.135623      16.775593    
-807639.36      4.3079183      35.8321        36.089546      16.467201    
-807640.14      2.8926459      34.6767        36.122222      16.15892     
-807632.3       4.0496259      35.652657      36.107766      15.850792    
-807626         3.3798204      35.3532        36.159405      15.542758    
-807615.1       3.9567381      36.141136      36.158747      15.234865    
-807619.11      4.1857871      35.289133      36.121174      14.927142    
-807619.93      4.0751586      36.039357      36.157268      14.619526    
-807628.9       3.3898113      35.228525      36.146443      14.312055    
-807635.7       2.9469296      34.702923      36.18085       14.004694    
-807641.34      3.0621834      34.876029      36.162081      13.697483    
-807637.71      3.2970723      34.864759      36.144727      13.39042     
-807633.31      2.9712595      34.415518      36.171673      13.08347     
-807623.76      3.0700048      34.464801      36.097188      12.776705    
-807619.15      3.5476687      35.210775      36.138113      12.470042    
-807615.92      3.6786837      36.17818       36.164757      12.163492    
-807621.5       3.9037042      34.954907      36.14543       11.857084    
-807630.17      3.2143062      34.478773      36.147456      11.550804    
-807638.14      3.0230835      34.675017      36.130344      11.244663    
-807639.33      3.3821917      34.914163      36.118878      10.938654    
-807637.34      3.9535387      34.901005      36.12708       10.632767    
-807632.89      3.7605999      34.548908      36.10762       10.327015    
-807624.31      3.2194668      35.319049      36.150942      10.021363    
-807617.64      3.7104905      35.425702      36.127654      9.7158473    
-807616.76      2.8410028      35.853078      36.156255      9.4104395    
-807622.93      3.5975098      35.155997      36.073834      9.1051948    
-807632.01      3.4960371      34.473733      36.213454      8.8000034    
-807635.94      3.3787534      34.878486      36.176352      8.4949518    
-807637.98      3.9208703      34.526422      36.195438      8.190013     
-807637.62      3.001023       34.309304      36.195813      7.885195     
-807630.92      3.36791        34.376071      36.187415      7.5805005    
-807625.4       2.9424716      34.310029      36.189107      7.2759245    
-807617.15      3.4897699      35.01761       36.17457       6.9714723    
-807617.92      3.1116367      35.550782      36.143605      6.6671482    
-807625.82      2.988927       35.085645      36.195182      6.3629222    
-807631.47      2.9979628      34.76514       36.188129      6.058815     
-807637.11      3.8941874      34.38229       36.173574      5.7548276    
-807638.81      2.7532608      34.522054      36.154201      5.4509601    
-807637.33      3.2702623      34.112061      36.124966      5.1472134    
-807630.38      3.3112527      34.55531       36.173976      4.8435655    
-807622.77      3.2964384      34.455875      36.158939      4.5400334    
-807619.93      3.7906224      35.501665      36.093457      4.2366268    
-807619.79      3.1268013      34.937938      36.106892      3.9333256    
-807625.94      3.2665834      34.533401      36.089946      3.6301356    
-807631.97      3.6514009      34.749778      36.134192      3.3270447    
-807638.25      3.6478966      34.130172      36.140868      3.0240603    
-807639.38      3.2595954      33.766052      36.170357      2.7211788    
-807635.79      3.104577       33.980632      36.187635      2.4184026    
-807629.05      4.5384588      34.578284      36.178756      2.1157346    
-807624.55      3.8942412      34.529311      36.14814       1.8131758    
-807620.64      4.2002377      34.711         36.18608       1.5107187    
-807621.97      3.2070543      34.372987      36.22454       1.2083646    
-807627.13      3.8106178      34.491804      36.195566      0.90611764   
-807634.7       3.3332939      33.656705      36.186089      0.60397525   
-807637.45      3.6513619      34.196147      36.170485      0.30193648   
-807640.52      2.6414667      33.371234      36.152448      0            
Loop time of 150.943 on 64 procs for 5000 steps with 1080 atoms

Performance: 5.724 ns/day, 4.193 hours/ns, 33.125 timesteps/s, 35.775 katom-step/s
82.5% CPU use with 64 MPI tasks x 1 OpenMP threads

MPI task timing breakdown:
Section |  min time  |  avg time  |  max time  |%varavg| %total
---------------------------------------------------------------
Pair    | 77.315     | 102.81     | 145.39     | 209.5 | 68.11
Neigh   | 0          | 0          | 0          |   0.0 |  0.00
Comm    | 3.251      | 45.636     | 71.041     | 314.3 | 30.23
Output  | 0.032145   | 0.033634   | 0.034682   |   0.4 |  0.02
Modify  | 1.9021     | 2.1023     | 2.2083     |   7.0 |  1.39
Other   |            | 0.3576     |            |       |  0.24

Nlocal:         16.875 ave          32 max           7 min
Histogram: 16 0 16 16 0 0 0 0 8 8
Nghost:        883.125 ave         893 max         868 min
Histogram: 8 8 0 0 0 0 16 16 0 16
Neighs:              0 ave           0 max           0 min
Histogram: 64 0 0 0 0 0 0 0 0 0
FullNghs:      2747.25 ave        5264 max        1126 min
Histogram: 16 0 16 16 0 0 0 0 8 8

Total # of neighbors = 175824
Ave neighs/atom = 162.8
Neighbor list builds = 0
Dangerous builds = 0

reset_timestep 0


variable interval equal 1000
thermo 10

variable nintervals equal $(v_PERIOD/v_interval)
variable nintervals equal 100
variable efield equal 1e-2*36.36*cos((step/${PERIOD})*2*3.14)
variable efield equal 1e-2*36.36*cos((step/100000)*2*3.14)
fix born all addbornforce 0.0 0.0 v_efield

variable Px equal f_born[1]+c_polarization[1]
variable Py equal f_born[2]+c_polarization[2]
variable Pz equal (f_born[3]+c_polarization[3])/vol
variable pe equal pe

fix aveP all ave/time 1 $(v_interval/2) ${interval} v_efield v_Pz v_pe f_born file Pz.${MODEL}.${STRUCTURE}.${TEMP}.$L
fix aveP all ave/time 1 500 ${interval} v_efield v_Pz v_pe f_born file Pz.${MODEL}.${STRUCTURE}.${TEMP}.$L
fix aveP all ave/time 1 500 1000 v_efield v_Pz v_pe f_born file Pz.${MODEL}.${STRUCTURE}.${TEMP}.$L
fix aveP all ave/time 1 500 1000 v_efield v_Pz v_pe f_born file Pz.BaTiO3-E0.${STRUCTURE}.${TEMP}.$L
fix aveP all ave/time 1 500 1000 v_efield v_Pz v_pe f_born file Pz.BaTiO3-E0.BaTiO3-sc333.${TEMP}.$L
fix aveP all ave/time 1 500 1000 v_efield v_Pz v_pe f_born file Pz.BaTiO3-E0.BaTiO3-sc333.320.$L
fix aveP all ave/time 1 500 1000 v_efield v_Pz v_pe f_born file Pz.BaTiO3-E0.BaTiO3-sc333.320.2

thermo_style custom step time temp press pe f_born v_efield v_Pz spcpu cpuremain

dump 4a all custom 100 dump.hyst.${MODEL}.${STRUCTURE}.${TEMP}.$L.bin id type xu yu zu fx fy fz
dump 4a all custom 100 dump.hyst.BaTiO3-E0.${STRUCTURE}.${TEMP}.$L.bin id type xu yu zu fx fy fz
dump 4a all custom 100 dump.hyst.BaTiO3-E0.BaTiO3-sc333.${TEMP}.$L.bin id type xu yu zu fx fy fz
dump 4a all custom 100 dump.hyst.BaTiO3-E0.BaTiO3-sc333.320.$L.bin id type xu yu zu fx fy fz
dump 4a all custom 100 dump.hyst.BaTiO3-E0.BaTiO3-sc333.320.2.bin id type xu yu zu fx fy fz
dump_modify 4a sort id

fix nvt all nvt temp ${TEMP} ${TEMP} $(100*dt)
fix nvt all nvt temp 320 ${TEMP} $(100*dt)
fix nvt all nvt temp 320 320 $(100*dt)
fix nvt all nvt temp 320 320 0.2000000000000000111

run $(v_PERIOD)
run 100000
WARNING: non-constant efield is experimental, strongly distrust scalar/vector output (src/fix_addbornforce.cpp:193)
Per MPI rank memory allocation (min/avg/max) = 3.608 | 3.609 | 3.609 Mbytes
   Step          Time           Temp          Press          PotEng         f_born        v_efield         v_Pz          S/CPU         CPULeft    
         0   0              311.30871      125550.24     -807640.5      -292.97712      0.3636         0.05510073     0              0            
        10   0.02           311.6422       129843.8      -807635.8      -297.73142      0.36359993     0.05599489     42.271255      2365.461     
        20   0.04           322.37971      133955.8      -807630.87     -304.22559      0.36359971     0.057216295    42.369485      2362.4683    
        30   0.06           321.37301      140551.95     -807624.11     -310.76391      0.36359935     0.058446027    42.43038       2360.1865    
        40   0.08           309.78141      142529.99     -807619.27     -313.97084      0.36359885     0.059049242    42.48018       2358.2372    
        50   0.1            316.38493      141082.48     -807622.21     -311.85256      0.36359821     0.058650956    42.675199      2354.8228    
        60   0.12           312.50021      136276.76     -807627.13     -306.2834       0.36359742     0.057603673    42.471775      2354.338     
        70   0.14           320.30532      129372.97     -807636.36     -297.98978      0.36359649     0.05604401     42.470818      2353.9321    
        80   0.16           292.92477      127712.56     -807636.61     -293.66181      0.36359541     0.055230197    42.618851      2352.5472    
        90   0.18           299.66784      126132.07     -807638.11     -292.93419      0.36359419     0.055093536    42.280742      2353.5011    
       100   0.2            314.05088      130826.66     -807634.51     -298.24889      0.36359283     0.056093307    42.4971        2353.0137    
       110   0.22           328.95237      134917.44     -807629.98     -304.6987       0.36359132     0.057306596    42.283988      2353.6497    
       120   0.24           319.16876      141615.12     -807620.67     -312.28118      0.36358968     0.058732947    42.546109      2352.9267    
       130   0.26           318.87745      141917.35     -807619.7      -313.02254      0.36358788     0.058872669    42.427036      2352.786     
       140   0.28           327.42485      141222.47     -807622.1      -311.44366      0.36358595     0.058576029    42.437221      2352.5912    
       150   0.3            326.10635      134564.75     -807629.08     -304.07024      0.36358387     0.057189569    42.353606      2352.7008    
       160   0.32           311.81845      131193.23     -807631.95     -298.87525      0.36358165     0.056212839    42.421882      2352.53      
       170   0.34           306.73915      127034.77     -807636.79     -293.09958      0.36357928     0.055126903    42.457972      2352.2339    
       180   0.36           312.46473      127062.96     -807637.43     -292.99524      0.36357677     0.055107657    42.383105      2352.1753    
       190   0.38           329.2717       130360.84     -807633.24     -299.39873      0.36357412     0.056312462    42.567106      2351.5622    
       200   0.4            338.65676      136349.45     -807626.88     -307.00257      0.36357132     0.057743075    42.484214      2351.2159    
       210   0.42           329.47862      141240.18     -807620.8      -311.68543      0.36356838     0.058624332    42.28018       2351.4195    
       220   0.44           320.85803      141750.64     -807618.9      -312.2744       0.3635653      0.058735608    42.191337      2351.8091    
       230   0.46           323.47082      140239.93     -807620.99     -310.54267      0.36356207     0.058410407    42.124569      2352.3072    
       240   0.48           319.23661      134898.88     -807626.47     -304.45416      0.3635587      0.057265742    42.366451      2352.1807    
       250   0.5            323.61352      130234.95     -807633.34     -298.06044      0.36355519     0.056063667    42.306889      2352.178     
       260   0.52           312.17464      127081.99     -807637.65     -292.13098      0.36355153     0.054948919    42.484995      2351.7772    
       270   0.54           315.96         129497.67     -807635.65     -294.64223      0.36354773     0.055421857    42.461422      2351.437     
       280   0.56           334.28449      130529.67     -807632.37     -300.58415      0.36354379     0.056540139    42.548853      2350.9318    
       290   0.58           344.58029      136740.96     -807626.93     -307.46207      0.3635397      0.05783453     42.381412      2350.7645    
       300   0.6            324.99856      140256.5      -807622.11     -309.64744      0.36353547     0.058246284    42.495208      2350.3827    
       310   0.62           317.5378       143359.33     -807617.25     -313.4905       0.3635311      0.058969892    42.314591      2350.3333    
       320   0.64           323.21241      138346.19     -807622.02     -309.64856      0.36352658     0.058247919    42.651186      2349.6913    
       330   0.66           333.16246      135714.99     -807628.93     -304.04714      0.36352192     0.05719497     42.459861      2349.3931    
       340   0.68           315.35308      128416.57     -807635.11     -295.48151      0.36351712     0.055584405    42.298216      2349.3624    
       350   0.7            314.63867      128608.54     -807635.95     -294.45098      0.36351217     0.0553913      42.498122      2349.0033    
       360   0.72           318.98437      126830.39     -807636.02     -295.19762      0.36350708     0.055532534    42.609009      2348.4816    
       370   0.74           331.18234      134550.52     -807631.19     -301.76468      0.36350185     0.056768746    42.499169      2348.1388    
       380   0.76           327.34658      136679.4      -807626.56     -306.05149      0.36349647     0.057576043    42.450571      2347.8724    
       390   0.78           326.04347      142008.11     -807619.61     -312.86877      0.36349095     0.05885944     42.469571      2347.5803    
       400   0.8            314.40618      140697.98     -807619.79     -311.23897      0.36348529     0.058553741    42.361951      2347.4403    
       410   0.82           326.22415      138997.4      -807623.89     -308.78667      0.36347948     0.058093315    42.287172      2347.3969    
       420   0.84           325.2595       132480.85     -807631.44     -301.29536      0.36347353     0.056684872    42.436089      2347.1474    
       430   0.86           313.05579      128934.52     -807634.71     -296.37654      0.36346744     0.055760394    42.333658      2347.0307    
       440   0.88           305.98213      127035.88     -807637.27     -292.90084      0.3634612      0.055107421    42.209497      2347.0658    
       450   0.9            315.30587      128586.74     -807635.96     -295.65691      0.36345482     0.055626934    42.325436      2346.9453    
       460   0.92           316.3945       133144.01     -807629.51     -302.40478      0.3634483      0.056897546    42.361174      2346.7765    
       470   0.94           323.01537      137137.45     -807625.41     -307.60972      0.36344163     0.057877918    42.372444      2346.5917    
       480   0.96           319.46286      142346.59     -807619.62     -312.95518      0.36343482     0.058884791    42.351902      2346.4285    
       490   0.98           321.05848      140006.33     -807622.07     -310.92936      0.36342786     0.058504737    42.425904      2346.1785    
       500   1              319.14516      138068.52     -807624.71     -308.03917      0.36342077     0.057962048    42.370751      2345.9902    
       510   1.02           329.27305      130143.19     -807633.87     -19231.392      0.36341353     0.056542781    42.046945      2346.1547    
       520   1.04           306.24756      129998.91     -807634.71     -18973.054      0.36340614     0.055784368    42.351025      2345.9769    
       530   1.06           301.56403      125912.22     -807638.13     -18729.958      0.36339862     0.055070761    42.223338      2345.931     
       540   1.08           312.21754      130703.46     -807634.41     -19064.075      0.36339095     0.056054332    42.288821      2345.8105    
       550   1.1            315.78654      132455.16     -807631.07     -19331.265      0.36338313     0.056841175    42.19687       2345.7789    
       560   1.12           318.4481       140041.47     -807623.71     -19829.601      0.36337518     0.058307746    42.268385      2345.6688    
       570   1.14           311.10282      140257.59     -807621.87     -19897.599      0.36336707     0.058508994    42.107907      2345.7115    
       580   1.16           314.88178      141345.19     -807622.16     -19916.665      0.36335883     0.058566389    42.230548      2345.6264    
       590   1.18           316.04882      135052.13     -807627.65     -19593.712      0.36335044     0.057618053    42.189224      2345.5751    
       600   1.2            312.49882      132054.64     -807632.25     -19273.815      0.36334191     0.056678681    42.135354      2345.5679    
       610   1.22           311.2079       127573.83     -807639.17     -18835.716      0.36333324     0.055391681    41.922874      2345.7492    
       620   1.24           299.69493      127378.91     -807636.95     -18885.447      0.36332442     0.055539277    42.20758       2345.6591    
       630   1.26           316.63951      129582.48     -807635.86     -19120.127      0.36331546     0.056230823    42.392429      2345.4012    
       640   1.28           301.00021      134202.47     -807628.04     -19496.481      0.36330636     0.057339086    41.922077      2345.5549    
       650   1.3            309.85877      139040.58     -807624.67     -19801.212      0.36329711     0.058236783    42.098621      2345.5437    
       660   1.32           303.71979      140596.18     -807622.22     -19917.23       0.36328772     0.058579512    43.921621      2344.0418    
       670   1.34           306.31986      139692.38     -807622.98     -19898.382      0.36327819     0.058525613    44.228061      2342.3439    
       680   1.36           303.31543      134980.14     -807628.08     -19552.915      0.36326851     0.057511051    44.250628      2340.6725    
       690   1.38           295.9807       131203.6      -807632.92     -19179.207      0.36325869     0.056413386    44.220685      2339.065     
       700   1.4            310.61095      126799.5      -807639.79     -18875.081      0.36324873     0.055520359    44.198517      2337.513     
       710   1.42           296.17282      127994.4      -807636.39     -18964.268      0.36323863     0.055784251    44.072158      2336.0892    
       720   1.44           310.2563       130130.52     -807635.36     -19159.142      0.36322838     0.056359071    44.25707       2334.5678    
       730   1.46           306.59228      135194.06     -807629.45     -19499.232      0.36321798     0.057361132    44.133179      2333.1682    
       740   1.48           311.99554      138322.21     -807625.78     -19780.114      0.36320745     0.058189092    44.11031       2331.8162    
       750   1.5            307.94297      141056.14     -807622.51     -19941.41       0.36319677     0.058665317    44.218582      2330.4205    
       760   1.52           295.59712      138277.25     -807623.12     -19781.321      0.36318595     0.058196089    44.194656      2329.0717    
       770   1.54           317.32771      134356.56     -807631.25     -19432.893      0.36317498     0.057172751    44.291419      2327.6883    
       780   1.56           310.30302      129821.99     -807635.52     -19074.966      0.36316387     0.056121424    44.230342      2326.3743    
       790   1.58           300.03194      128920.53     -807634.99     -18988.185      0.36315262     0.055867832    44.287967      2325.0509    
       800   1.6            312.94384      127775.3      -807637        -18951.572      0.36314122     0.055761856    44.25149       2323.778     
       810   1.62           318.888        131910.13     -807633.83     -19182.79       0.36312968     0.05644397     44.100583      2322.6256    
       820   1.64           303.77388      136521.25     -807625.9      -19537.248      0.363118       0.057488787    44.312529      2321.3646    
       830   1.66           315.03569      141284.44     -807621.07     -19923.322      0.36310618     0.058626728    44.300847      2320.1357    
       840   1.68           310.77849      139470.17     -807620.99     -19876.262      0.36309421     0.058490177    44.36715       2318.8909    
       850   1.7            320.28635      139099.23     -807625.08     -19675.222      0.3630821      0.057900504    44.184878      2317.7785    
       860   1.72           315.75102      133317.65     -807630.14     -19304.03       0.36306984     0.056810072    44.14665       2316.7093    
       870   1.74           312.68345      130712.43     -807632.01     -19137.702      0.36305745     0.056322509    44.202992      2315.6266    
       880   1.76           319.35689      127112.52     -807637.61     -18829.421      0.3630449      0.055417147    44.192623      2314.5693    
       890   1.78           320.33357      129250.4      -807635.73     -18944.163      0.36303222     0.055756795    44.206677      2313.5226    
       900   1.8            316.40119      132193.42     -807630.9      -19216.07       0.36301939     0.056559073    44.249507      2312.4701    
       910   1.82           319.29686      138861.85     -807623.95     -19679.536      0.36300642     0.057925273    44.089855      2311.5249    
       920   1.84           319.14163      139624.9      -807622.11     -19791.349      0.36299331     0.058256492    44.222638      2310.522     
       930   1.86           329.03756      140147.59     -807623.3      -19790.215      0.36298005     0.058255281    44.256427      2309.5173    
       940   1.88           328.13092      137111.21     -807626.15     -19597.964      0.36296665     0.057691493    44.293474      2308.5093    
       950   1.9            337.18543      133564.82     -807630.04     -19419.448      0.36295311     0.057168119    44.325245      2307.5009    
       960   1.92           315.98397      129205.68     -807633.68     -18993.372      0.36293942     0.05591592     44.097024      2306.6293    
       970   1.94           318.37471      128695.17     -807636.29     -18836.518      0.36292559     0.055456259    44.209202      2305.7123    
       980   1.96           311.60733      130580.06     -807632.38     -19026.901      0.36291162     0.056018919    44.198981      2304.8146    
       990   1.98           326.03619      132885.86     -807629.43     -19343.632      0.3628975      0.056953654    44.206309      2303.9267    
      1000   2              323.82032      138248.73     -807623.98     -19663.708      0.36288325     0.057898332    44.044624      2303.1343    
      1010   2.02           319.2568       138662.48     -807622.71     -307.88041      0.36286884     0.058020289    44.304247      2302.2226    
      1020   2.04           324.83889      139472.43     -807621.25     -309.95525      0.3628543      0.058413635    44.497711      2301.2292    
      1030   2.06           331.70794      135800.59     -807625.77     -306.47234      0.36283961     0.057759591    44.469421      2300.2645    
      1040   2.08           319.54513      134571.3      -807628.18     -302.20436      0.36282478     0.056957551    44.484591      2299.3066    
      1050   2.1            318.20654      128159.37     -807635.69     -294.5136       0.3628098      0.055510336    44.462959      2298.3731    
      1060   2.12           316.80523      130651.85     -807634.25     -295.65538      0.36279469     0.055727863    44.441016      2297.4633    
      1070   2.14           321.70211      128718.42     -807633.78     -296.94954      0.36277943     0.055974152    44.346222      2296.6107    
      1080   2.16           320.76981      135164.79     -807627.06     -303.433        0.36276402     0.057198695    44.243723      2295.8176    
      1090   2.18           325.06576      135472.88     -807626.11     -305.10727      0.36274848     0.057516768    44.276997      2295.0196    
      1100   2.2            317.00095      142307.45     -807619.38     -310.64401      0.36273279     0.058563049    44.459148      2294.1487    
      1110   2.22           323.22762      138645.69     -807622.25     -308.78933      0.36271695     0.058215945    44.192119      2293.4105    
      1120   2.24           325.06341      138162.67     -807624.2      -306.99964      0.36270098     0.057881084    44.413639      2292.5819    
      1130   2.26           326.43654      130851.51     -807633.01     -298.47493      0.36268486     0.056276354    44.286378      2291.8205    
      1140   2.28           325.67348      130160.3      -807635.6      -295.6923       0.3626686      0.055754199    44.396425      2291.02      
      1150   2.3            310.02191      127793.05     -807634.71     -294.64527      0.36265219     0.05555929     44.338381      2290.2548    
      1160   2.32           327.80769      131779.73     -807633.18     -298.68963      0.36263564     0.056324478    44.387547      2289.4777    
      1170   2.34           320.01193      134413.11     -807629.19     -301.77545      0.36261895     0.056908996    44.345769      2288.7279    
      1180   2.36           317.91683      139223.1      -807623.46     -307.31845      0.36260212     0.057956989    44.45055       2287.9425    
      1190   2.38           316.53496      140053.25     -807620.76     -310.02232      0.36258514     0.058469647    44.54586       2287.1265    
      1200   2.4            326.80615      138868.97     -807623.82     -308.56776      0.36256802     0.058198068    44.558253      2286.3153    
      1210   2.42           322.54182      134956.05     -807628.37     -303.58867      0.36255076     0.057261703    44.193346      2285.665     
      1220   2.44           316.59274      131170.55     -807632.89     -298.44676      0.36253335     0.056294558    44.342473      2284.9601    
      1230   2.46           317.24434      128977.01     -807635.28     -296.34869      0.3625158      0.055901515    44.32976       2284.2682    
      1240   2.48           309.0369       128543.76     -807635.72     -295.00825      0.36249811     0.055651379    44.323736      2283.5862    
      1250   2.5            310.68804      131530        -807632.24     -298.85854      0.36248028     0.056380484    44.395406      2282.8828    
      1260   2.52           317.60687      133744.07     -807629.66     -302.71397      0.3624623      0.057110654    44.46601       2282.1589    
      1270   2.54           313.23355      139090.08     -807622.93     -309.00977      0.36244418     0.058301349    44.462075      2281.4445    
      1280   2.56           317.66397      138489.75     -807624.18     -308.59734      0.36242592     0.058226468    44.319208      2280.7936    
      1290   2.58           307.13623      138967.68     -807623.65     -307.75666      0.36240751     0.058070797    44.371055      2280.1291    
      1300   2.6            308.10792      133935.65     -807628.62     -303.13783      0.36238896     0.057202196    44.331956      2279.4865    
      1310   2.62           304.4514       132286.07     -807631.25     -300.04702      0.36237027     0.056621878    44.164911      2278.9145    
      1320   2.64           307.56073      126962.75     -807637.31     -294.57659      0.36235143     0.055592445    44.376335      2278.2671    
      1330   2.66           299.97925      130669.56     -807634.61     -296.14001      0.36233245     0.055890419    44.405994      2277.6149    
      1340   2.68           313.60592      130466.67     -807634.55     -298.27308      0.36231333     0.056295963    44.494296      2276.9361    
      1350   2.7            320.38789      135931.87     -807628.88     -304.82281      0.36229407     0.057535218    44.525483      2276.2526    
      1360   2.72           311.11708      136757.13     -807625.97     -306.52355      0.36227466     0.057859331    44.57161       2275.5589    
      1370   2.74           309.89727      140412.81     -807623.58     -308.61568      0.36225511     0.058257385    44.499924      2274.8982    
      1380   2.76           304.06413      136567.89     -807625.21     -306.18325      0.36223542     0.057801356    44.430274      2274.2689    
      1390   2.78           326.72896      134575.95     -807630.84     -303.51383      0.36221558     0.05730056     44.483237      2273.6264    
      1400   2.8            304.53324      130547.26     -807633.58     -297.61617      0.3621956      0.056190236    44.43208       2273.0082    
      1410   2.82           312.30058      129065.05     -807636.22     -295.82737      0.36217548     0.055855614    44.2661        2272.4545    
      1420   2.84           317.20852      130056.94     -807635.86     -296.66685      0.36215522     0.056017251    44.467474      2271.8344    
      1430   2.86           304.37915      133011.48     -807630.99     -299.56315      0.36213481     0.056567323    44.410181      2271.2399    
      1440   2.88           319.98222      134974.31     -807628.66     -303.75174      0.36211426     0.057361522    44.326165      2270.6796    
      1450   2.9            315.91825      137432.52     -807625.13     -306.41454      0.36209357     0.057867681    44.441994      2270.0841    
      1460   2.92           311.79209      140066.34     -807622.7      -307.83432      0.36207273     0.058139157    44.553439      2269.4555    
      1470   2.94           321.8029       136697.21     -807626.04     -305.5043       0.36205176     0.057702441    44.542462      2268.8363    
      1480   2.96           327.36607      134569.24     -807629.76     -302.07139      0.36203064     0.057057376    44.46482       2268.2484    
      1490   2.98           320.15331      130128.98     -807633.31     -297.16235      0.36200937     0.056133419    44.498234      2267.6543    
      1500   3              312.11133      131394.55     -807631.99     -296.94959      0.36198796     0.056096546    44.518309      2267.0584    
      1510   3.02           327.21622      128906.53     -807635.1      -18930.353      0.36196642     0.055880203    44.152501      2266.5888    
      1520   3.04           314.53622      134269.66     -807629.13     -19180.419      0.36194472     0.056621763    44.140741      2266.1264    
      1530   3.06           321.64717      134354.99     -807628.14     -19302.062      0.36192289     0.056984297    44.16717       2265.6583    
      1540   3.08           332.41693      139622.87     -807623.55     -19675.232      0.36190091     0.058089513    44.207903      2265.18      
      1550   3.1            324.35741      137862.21     -807623.75     -19593.703      0.36187879     0.057852342    44.15487       2264.7222    
      1560   3.12           337.45064      138908.43     -807625.26     -19598.268      0.36185653     0.057869381    44.105212      2264.2835    
      1570   3.14           320.92812      133195.39     -807629.05     -19212.793      0.36183412     0.056734669    44.122419      2263.8419    
      1580   3.16           315.91411      133118.9      -807628.95     -19166.565      0.36181157     0.056601687    44.144987      2263.3958    
      1590   3.18           315.45162      129358.28     -807632.08     -18967.206      0.36178888     0.056016464    44.240015      2262.9224    
      1600   3.2            320.36704      131977.52     -807632.3      -18987.463      0.36176605     0.05607983     44.177281      2262.4718    
      1610   3.22           336.48105      131211.52     -807632.63     -19117.146      0.36174307     0.056466435    44.101639      2262.0477    
      1620   3.24           325.93592      136852.27     -807625.62     -19471.992      0.36171995     0.057518222    44.334506      2261.5538    
      1630   3.26           330.77743      137834.43     -807624.65     -19581.327      0.36169669     0.057844907    44.242038      2261.0915    
      1640   3.28           328.07603      138305.42     -807624.96     -19537.526      0.36167329     0.057719251    44.272887      2260.6227    
      1650   3.3            325.4896       136760.41     -807626.28     -19436.976      0.36164974     0.057425937    44.221092      2260.1727    
      1660   3.32           320.5426       134695.39     -807626.94     -19354.425      0.36162605     0.057185787    44.357979      2259.6839    
      1670   3.34           326.53471      131685.06     -807632.64     -19046.227      0.36160222     0.056278876    44.344021      2259.2025    
      1680   3.36           317.20312      130380.45     -807634.18     -18866.898      0.36157824     0.055752682    44.358749      2258.7198    
      1690   3.38           318.04885      130953.25     -807632.67     -18978.599      0.36155413     0.056086505    44.329798      2258.2487    
      1700   3.4            321.74232      132802.85     -807629.84     -19203.879      0.36152987     0.05675607     44.287306      2257.793     
      1710   3.42           324.23432      135760.73     -807626.53     -19443.298      0.36150546     0.057467539    44.129871      2257.3862    
      1720   3.44           320.62567      137148.26     -807625.05     -19512.592      0.36148092     0.057676266    44.308192      2256.9295    
      1730   3.46           323.20388      139113.83     -807624.17     -19600.289      0.36145623     0.057939441    44.287074      2256.4815    
      1740   3.48           325.02943      136184.48     -807625.97     -19514.014      0.3614314      0.057688371    44.044309      2256.1064    
      1750   3.5            314.5705       134875.96     -807627.46     -19330.56       0.36140643     0.057149983    44.15694       2255.7005    
      1760   3.52           318.73049      130378.51     -807634.65     -18914.591      0.36138131     0.055924076    44.209022      2255.2817    
      1770   3.54           318.07238      129859.39     -807634.68     -18914.917      0.36135605     0.055928948    44.182107      2254.8727    
      1780   3.56           308.02439      130003.87     -807632.41     -18984.661      0.36133065     0.056139117    44.259749      2254.4439    
      1790   3.58           321.83865      133270.28     -807630.72     -19219.432      0.36130511     0.056837373    44.205801      2254.0325    
      1800   3.6            323.41563      134270.17     -807629.97     -19292.829      0.36127942     0.057058485    44.245538      2253.612     
      1810   3.62           318.17262      138620.03     -807625.06     -19565.201      0.3612536      0.057868161    44.137625      2253.2237    
      1820   3.64           313.86214      137750.92     -807623.73     -19624.047      0.36122763     0.058046383    44.291581      2252.7947    
      1830   3.66           316.02101      136577.74     -807626.03     -19500.669      0.36120151     0.057685609    44.402424      2252.3376    
      1840   3.68           303.03269      133177.23     -807629.99     -19139.628      0.36117526     0.05662172     44.289005      2251.9139    
      1850   3.7            312.83197      131433.56     -807633.64     -18993.839      0.36114886     0.056194532    44.254961      2251.5014    
      1860   3.72           305.75233      130428.66     -807633        -18978.231      0.36112232     0.05615248     44.276172      2251.0853    
      1870   3.74           310.59702      131256.14     -807633.28     -19008.297      0.36109564     0.056245593    44.272996      2250.6721    
      1880   3.76           314.62508      132871.19     -807632.1      -19120.76       0.36106881     0.056582576    44.17829       2250.2861    
      1890   3.78           321.58084      135808.11     -807629.27     -19368.685      0.36104184     0.057320521    44.250762      2249.8826    
      1900   3.8            308.78218      137723.94     -807623.8      -19608.339      0.36101474     0.058034122    44.296486      2249.4689    
      1910   3.82           318.80157      137196.3      -807626.6      -19518.246      0.36098748     0.057771838    44.104642      2249.1076    
      1920   3.84           309.17066      135493.59     -807628.98     -19278.955      0.36096009     0.057067895    44.280568      2248.7017    
      1930   3.86           317.00652      132527.15     -807631.49     -19184.612      0.36093255     0.056792962    44.281855      2248.2973    
      1940   3.88           312.45846      129299.55     -807633.71     -19000.053      0.36090487     0.056250916    44.268589      2247.8982    
      1950   3.9            310.23549      129783.5      -807634.9      -18900.498      0.36087705     0.055960493    44.213882      2247.5149    
      1960   3.92           306.8934       130285.05     -807633.87     -18932.401      0.36084909     0.056059294    44.14805       2247.1501    
      1970   3.94           315.93308      134367.69     -807630.17     -19242.039      0.36082098     0.056980578    44.144511      2246.7876    
      1980   3.96           305.23085      136639.52     -807624.6      -19493.901      0.36079273     0.057730925    44.031929      2246.4551    
      1990   3.98           320.72727      137502.77     -807625.61     -19548.631      0.36076434     0.057897562    44.147192      2246.0946    
      2000   4              319.30904      137114.24     -807626.54     -19456.875      0.36073581     0.057630365    44.193016      2245.7238    
      2010   4.02           315.97529      135760.23     -807627.26     -302.51461      0.36070713     0.057350754    44.375026      2245.3092    
      2020   4.04           317.47197      132590.92     -807630.05     -299.55055      0.36067831     0.056793366    44.554992      2244.8523    
      2030   4.06           320.19787      130058.63     -807634.85     -294.7673       0.36064935     0.055890971    44.479558      2244.4161    
      2040   4.08           311.02727      131428.36     -807632.98     -294.95837      0.36062025     0.055931714    44.377488      2244.0068    
      2050   4.1            314.68124      131212.57     -807631.13     -297.02478      0.36059101     0.056328127    44.443441      2243.5834    
      2060   4.12           332.09584      134321.62     -807629.23     -300.95504      0.36056162     0.057078117    44.460871      2243.1576    
      2070   4.14           323.1512       135750.25     -807626.32     -302.34274      0.36053209     0.057346       44.453306      2242.7356    
      2080   4.16           329.55168      138055.91     -807624.12     -305.13353      0.36050242     0.057880099    44.523791      2242.2987    
      2090   4.18           328.44551      136575.6      -807624.19     -304.68649      0.36047261     0.057800081    44.461823      2241.8786    
      2100   4.2            322.05507      135506.26     -807625.71     -302.10633      0.36044265     0.057315378    44.575895      2241.4334    
      2110   4.22           325.72407      132367.12     -807631.18     -296.90043      0.36041256     0.056332423    44.3932        2241.0332    
      2120   4.24           321.26043      130570.35     -807632.3      -295.03142      0.36038232     0.055982503    44.503337      2240.6089    
      2130   4.26           330.48174      130059.51     -807633.14     -295.41506      0.36035193     0.056060025    44.499451      2240.1874    
      2140   4.28           324.14793      132438.03     -807629.54     -298.02464      0.36032141     0.056560028    44.527418      2239.7612    
      2150   4.3            334.24906      134420.1      -807628.78     -300.06803      0.36029075     0.056952677    44.572121      2239.3267    
      2160   4.32           324.64852      137501.57     -807624.24     -303.28832      0.36025994     0.057568808    44.505993      2238.9092    
      2170   4.34           327.66217      138224.21     -807622.52     -305.45443      0.36022899     0.057984951    44.606822      2238.4707    
      2180   4.36           328.78318      136264.36     -807624.69     -303.41646      0.36019789     0.057603051    44.463688      2238.0664    
      2190   4.38           329.08063      134276.6      -807628.56     -299.533        0.36016666     0.056870715    44.40314       2237.6775    
      2200   4.4            329.04966      131015.4      -807632.76     -295.39684      0.36013528     0.05609029     44.330979      2237.3064    
      2210   4.42           326.71685      130874.11     -807632.32     -295.57586      0.36010377     0.056129196    44.233551      2236.9585    
      2220   4.44           332.80531      129741.6      -807633.51     -295.34575      0.36007211     0.056090429    44.46395       2236.5602    
      2230   4.46           318.33085      132678.36     -807630.09     -296.79602      0.3600403      0.056370835    44.589013      2236.1358    
      2240   4.48           321.96234      134533.94     -807627.36     -300.27942      0.36000836     0.057037502    44.356179      2235.7645    
      2250   4.5            319.42051      138306.91     -807622.42     -304.98542      0.35997627     0.057936561    44.382151      2235.3888    
      2260   4.52           332.30177      137127.88     -807625.14     -304.20675      0.35994404     0.057793815    44.466435      2234.996     
      2270   4.54           334.94009      136024.1      -807628.02     -301.80609      0.35991167     0.05734289     44.475662      2234.6026    
      2280   4.56           323.65556      132873.88     -807630.26     -298.23957      0.35987916     0.056670374    44.334438      2234.2415    
      2290   4.58           332.28624      131306.86     -807632.46     -297.44102      0.35984651     0.056523766    44.425418      2233.8617    
      2300   4.6            311.98067      129590.54     -807633.18     -294.20144      0.35981371     0.055913232    44.49645       2233.4681    
      2310   4.62           300.2154       131603.61     -807632.04     -293.85463      0.35978077     0.055852433    44.368948      2233.1033    
      2320   4.64           319.22748      132396.46     -807631.77     -296.95277      0.35974769     0.056446483    44.491679      2232.7134    
      2330   4.66           310.48179      135188.55     -807625.13     -302.60791      0.35971447     0.057526756    44.461741      2232.3314    
      2340   4.68           317.83771      137752.21     -807624.12     -304.72593      0.35968111     0.057934772    44.509576      2231.9406    
      2350   4.7            324.1621       136626.49     -807627.35     -302.57906      0.3596476      0.057531966    44.527571      2231.5474    
      2360   4.72           315.66106      137184.71     -807626.66     -302.09058      0.35961396     0.057444461    44.557307      2231.1494    
      2370   4.74           313.88208      133280.76     -807629.42     -299.26144      0.35958017     0.05691183     44.510628      2230.7626    
      2380   4.76           318.43324      130875.03     -807633.74     -295.55745      0.35954624     0.05621273     44.513036      2230.3767    
      2390   4.78           311.88443      128823.22     -807636.3      -292.14202      0.35951216     0.055568408    44.536864      2229.9872    
      2400   4.8            315.72984      130170.73     -807634.25     -294.82089      0.35947795     0.056083294    44.493034      2229.6081    
      2410   4.82           317.19039      132792.53     -807630.54     -298.77281      0.35944359     0.056840494    44.259283      2229.2783    
      2420   4.84           316.95912      135765.93     -807627        -302.2298       0.35940909     0.057503693    44.382536      2228.9241    
      2430   4.86           320.46895      136438.81     -807627.65     -302.05908      0.35937446     0.057476751    44.344543      2228.5787    
      2440   4.88           313.51929      137646.46     -807625.37     -303.33907      0.35933967     0.057725899    44.336826      2228.2359    
      2450   4.9            312.11654      134515.44     -807626.77     -301.72033      0.35930475     0.05742343     44.434834      2227.8742    
      2460   4.92           318.69103      132963.25     -807631.23     -298.04837      0.35926969     0.05673012     44.439744      2227.5126    
      2470   4.94           310.59332      129124.28     -807635.57     -292.53397      0.35923448     0.055685972    44.349845      2227.1702    
      2480   4.96           321.22592      130445.65     -807635.7      -293.74428      0.35919913     0.055921867    44.449925      2226.8087    
      2490   4.98           310.19998      130530.63     -807632.53     -295.3653       0.35916364     0.056236026    44.491334      2226.4401    
[...]
     98740   197.48         314.41698      134186.09     -807630.25     -19315.326      0.36236891     0.056953268    44.214001      28.147878    
     98750   197.5          323.19105      133194.14     -807633.05     -19207.16       0.36238762     0.056631407    44.288111      27.924513    
     98760   197.52         313.36462      132423.7      -807632.65     -19144.857      0.36240618     0.056444818    44.265163      27.701148    
     98770   197.54         308.67556      133735.02     -807629.25     -19310.176      0.36242459     0.056929337    44.263316      27.477783    
     98780   197.56         323.61647      133256.42     -807630.78     -19341.289      0.36244287     0.057018186    44.260702      27.254418    
     98790   197.58         307.76958      134991.53     -807627.63     -19389.473      0.362461       0.057157374    44.126807      27.031061    
     98800   197.6          316.60191      136008.93     -807628.09     -19427.683      0.36247899     0.057267169    44.184421      26.807699    
     98810   197.62         308.82813      136043.75     -807625.41     -19522.393      0.36249683     0.057543514    44.128956      26.58434     
     98820   197.64         329.09729      134444.06     -807629.7      -19413.82       0.36251453     0.057220695    44.212226      26.360976    
     98830   197.66         315.48723      134083.49     -807629.13     -19316.744      0.36253209     0.056931814    44.229926      26.13761     
     98840   197.68         312.23871      133683.77     -807629.73     -19238.902      0.36254951     0.056699668    44.205906      25.914244    
     98850   197.7          317.06704      133073.21     -807630.74     -19205.106      0.36256678     0.056597367    44.201334      25.690879    
     98860   197.72         312.81219      133643.63     -807628.49     -19298.819      0.36258391     0.056870853    44.168201      25.467514    
     98870   197.74         324.63975      133710.94     -807630.47     -19264.535      0.3626009      0.056767164    44.188266      25.244148    
     98880   197.76         320.59984      134545.88     -807628.24     -19355.701      0.36261774     0.057033154    44.147447      25.020784    
     98890   197.78         337.86451      135251.21     -807628.74     -19466.231      0.36263445     0.057356198    44.211748      24.797415    
     98900   197.8          322.87141      136159.7      -807626.5      -19466.034      0.362651       0.057353001    44.277962      24.574042    
     98910   197.82         327.94946      135712.19     -807627.78     -19421.36       0.36266742     0.057218788    44.16158       24.350676    
     98920   197.84         326.98972      133999.21     -807629.17     -19318.123      0.36268369     0.056912078    44.245972      24.127303    
     98930   197.86         322.9209       134220.35     -807628.6      -19311.961      0.36269982     0.056891393    44.242786      23.903931    
     98940   197.88         315.55582      133710.09     -807627.95     -19284.968      0.36271581     0.056809372    44.26166       23.680557    
     98950   197.9          322.8209       133500.68     -807630.39     -19191.836      0.36273165     0.056532556    44.272267      23.457181    
     98960   197.92         325.59737      133489.04     -807628.76     -19315.919      0.36274735     0.056895599    44.2097        23.233809    
     98970   197.94         324.70606      134958.28     -807627.25     -19407.753      0.36276291     0.057163648    44.274388      23.010433    
     98980   197.96         326.83729      135672.64     -807626.82     -19456.306      0.36277832     0.057304219    44.238057      22.787058    
     98990   197.98         332.44289      134867.99     -807627.76     -19445.553      0.36279359     0.05727014     44.340337      22.563677    
     99000   198            324.21849      135918.46     -807626.9      -19427.836      0.36280872     0.057215574    44.24172       22.340301    
     99010   198.02         331.84571      134373.23     -807628.62     -303.02152      0.3628237      0.057111732    44.234585      22.116924    
     99020   198.04         326.57156      134009.75     -807628.48     -302.42456      0.36283855     0.05699689     44.443161      21.893537    
     99030   198.06         323.45183      131989.18     -807630.05     -300.5346       0.36285324     0.056638401    44.360518      21.670153    
     99040   198.08         318.65774      133738.64     -807628.98     -300.96136      0.3628678      0.056716553    44.335491      21.44677     
     99050   198.1          320.81241      133437.87     -807629.27     -301.13629      0.36288221     0.056747265    44.21609       21.223393    
     99060   198.12         326.10983      135547.25     -807627.53     -303.65709      0.36289648     0.057220045    44.17402       21.000017    
     99070   198.14         324.64686      135372.14     -807627.82     -303.23764      0.36291061     0.05713878     44.313276      20.776634    
     99080   198.16         326.38682      135826.01     -807627.72     -303.63926      0.36292459     0.057212252    44.243538      20.553254    
     99090   198.18         329.10494      134217.17     -807628.02     -303.80761      0.36293843     0.057241791    44.273964      20.329871    
     99100   198.2          329.57262      134489.76     -807628.33     -303.62177      0.36295213     0.057204617    44.358896      20.106484    
     99110   198.22         323.97467      133474.6      -807629.9      -301.37894      0.36296568     0.05677993     44.146535      19.883107    
     99120   198.24         321.10124      133947.99     -807629.37     -301.57144      0.36297909     0.056814099    44.380441      19.659718    
     99130   198.26         323.54416      133939.5      -807629.73     -301.65971      0.36299236     0.056828651    44.45402       19.436326    
     99140   198.28         319.81295      135294.57     -807628.14     -302.85457      0.36300548     0.057051684    44.399295      19.212936    
     99150   198.3          334.55379      134413.11     -807629.79     -303.36752      0.36301846     0.05714627     44.359638      18.989547    
     99160   198.32         317.64197      135025.36     -807627.51     -303.3891       0.3630313      0.057148313    44.375696      18.766157    
     99170   198.34         320.47098      135395.42     -807627.46     -303.98934      0.36304399     0.057259376    44.445051      18.542764    
     99180   198.36         310.21114      134491.68     -807626.61     -303.53179      0.36305655     0.057171215    44.45489       18.31937     
     99190   198.38         319.10771      134699.42     -807628.99     -302.49536      0.36306895     0.056974054    44.484737      18.095974    
     99200   198.4          318.89954      132343.07     -807630.5      -301.09533      0.36308122     0.056708447    44.488192      17.872578    
     99210   198.42         314.09836      134401.68     -807628.77     -302.21775      0.36309334     0.056917943    44.367294      17.649187    
     99220   198.44         321.30682      133759.07     -807630.76     -301.42429      0.36310532     0.056766635    44.467108      17.425791    
     99230   198.46         330.155        134435.55     -807629.83     -303.65622      0.36311715     0.057185107    44.506266      17.202393    
     99240   198.48         315.53605      133999.23     -807628.22     -303.35485      0.36312885     0.057126513    44.347685      16.979001    
     99250   198.5          313.19791      136508.54     -807626.78     -304.55881      0.3631404      0.057351413    44.358429      16.755609    
     99260   198.52         313.29303      134866.85     -807628.31     -303.18672      0.3631518      0.057091242    44.374348      16.532215    
     99270   198.54         321.79557      134920.89     -807628.91     -303.81637      0.36316306     0.057208033    44.347657      16.308822    
     99280   198.56         317.71998      133339.39     -807630.21     -302.13555      0.36317418     0.056889796    44.360655      16.085428    
     99290   198.58         309.01106      134208.33     -807628.62     -302.531        0.36318516     0.056962535    44.392426      15.862033    
     99300   198.6          328.39122      132218.56     -807632.61     -301.34559      0.36319599     0.056737645    44.427123      15.638636    
     99310   198.62         317.45355      134168.52     -807629.37     -303.21169      0.36320668     0.057087316    44.261797      15.415244    
     99320   198.64         310.54952      134951.77     -807627.67     -304.04917      0.36321723     0.05724333     44.370292      15.191848    
     99330   198.66         313.94392      135523.81     -807628.34     -303.92526      0.36322763     0.057218365    44.338759      14.968453    
     99340   198.68         313.01765      135455.25     -807628.63     -303.56899      0.36323789     0.057149677    44.21168       14.745062    
     99350   198.7          320.68318      133315.51     -807630.32     -303.10161      0.36324801     0.057060098    44.276209      14.521668    
     99360   198.72         309.97121      134109.8      -807628.32     -303.64809      0.36325798     0.057161406    44.318982      14.298272    
     99370   198.74         310.76069      131680.43     -807631.1      -301.15789      0.36326781     0.056691095    44.318337      14.074875    
     99380   198.76         309.95299      134391.87     -807630.2      -301.93561      0.3632775      0.05683598     44.367473      13.851477    
     99390   198.78         318.58988      132041.67     -807631.68     -301.8542       0.36328704     0.056819164    44.380111      13.628078    
     99400   198.8          306.08065      135263.07     -807626.66     -305.16717      0.36329644     0.057441289    44.362909      13.404679    
     99410   198.82         319.72988      133270.79     -807631.47     -302.39223      0.3633057      0.056917516    44.144003      13.181286    
     99420   198.84         309.58505      136279.78     -807628.47     -303.98225      0.36331481     0.057215361    44.340447      12.957887    
     99430   198.86         321.9354       133798.88     -807631.03     -303.31959      0.36332378     0.057089226    44.291193      12.734489    
     99440   198.88         313.139        135839.07     -807627.72     -305.40662      0.36333261     0.057480639    44.38549       12.511087    
     99450   198.9          308.16962      132898.54     -807631.13     -301.43665      0.36334129     0.056732095    44.387843      12.287685    
     99460   198.92         311.18424      134805.34     -807630.8      -302.17424      0.36334983     0.056869576    44.418813      12.064282    
     99470   198.94         304.94131      132978.08     -807629.17     -303.03898      0.36335823     0.057031003    44.481752      11.840877    
     99480   198.96         315.166        134505.89     -807629.09     -304.46584      0.36336648     0.057298233    44.40008       11.617474    
     99490   198.98         316.73189      133437.29     -807631.46     -302.31486      0.3633746      0.056892165    44.309327      11.394072    
     99500   199            317.59092      135078.66     -807630.16     -303.64166      0.36338256     0.0571406      44.362566      11.170669    
     99510   199.02         310.88208      135113.33     -807628.29     -19489.906      0.36339039     0.057306496    44.11294       10.947272    
     99520   199.04         315.79617      134955.75     -807629.12     -19477.127      0.36339807     0.057267712    44.251264      10.723871    
     99530   199.06         307.54497      133391.51     -807630.13     -19329.517      0.3634056      0.056832523    44.193667      10.50047     
     99540   199.08         318.52305      132950.31     -807631.78     -19311.906      0.363413       0.056779588    44.249117      10.277068    
     99550   199.1          308.02231      134269.02     -807627.76     -19464.519      0.36342025     0.057227148    44.261852      10.053665    
     99560   199.12         311.36304      132761.42     -807629.36     -19381.21       0.36342736     0.056981098    44.254109      9.8302611    
     99570   199.14         310.32857      135237.61     -807628.19     -19426.373      0.36343432     0.057112785    44.155084      9.6068593    
     99580   199.16         313.1632       135307.83     -807628.95     -19391.144      0.36344114     0.057008143    44.110127      9.3834579    
     99590   199.18         318.90597      136542.48     -807627.25     -19533.391      0.36344782     0.05742528     43.976032      9.1600586    
     99600   199.2          320.56653      133541.77     -807629.18     -19409.193      0.36345435     0.057059131    44.118295      8.9366556    
     99610   199.22         316.16862      135197.91     -807628.73     -19379.844      0.36346074     0.056971848    43.879067      8.7132567    
     99620   199.24         317.42645      132992.54     -807629.7      -19319.52       0.36346699     0.056793535    44.149039      8.4898517    
     99630   199.26         316.54365      135514.85     -807626.03     -19528.104      0.3634731      0.057405744    44.221839      8.2664446    
     99640   199.28         330.00782      132854.51     -807630.15     -19377.266      0.36347906     0.0569614      44.21893       8.0430371    
     99650   199.3          327.96137      135739.01     -807629.56     -19377.74       0.36348487     0.056961882    44.165831      7.8196299    
     99660   199.32         318.28115      134494.23     -807627.5      -19419.482      0.36349055     0.057083694    44.245384      7.5962208    
     99670   199.34         321.5658       136548.85     -807625.18     -19586.673      0.36349608     0.057574275    44.156678      7.3728126    
     99680   199.36         320.93497      133989.12     -807628.52     -19360.978      0.36350147     0.05691001     44.261688      7.1494021    
     99690   199.38         326.55759      135376.84     -807628.76     -19382.744      0.36350671     0.056973167    44.23859       6.9259914    
     99700   199.4          321.22951      133163.39     -807628.91     -19325.835      0.36351181     0.056805094    44.294797      6.7025794    
     99710   199.42         330.42135      135685.39     -807627.62     -19481.123      0.36351677     0.057260757    44.075014      6.4791702    
     99720   199.44         321.38443      133877.83     -807628.83     -19322.986      0.36352158     0.056795194    44.138478      6.2557593    
     99730   199.46         320.64741      136022.27     -807627.9      -19365.842      0.36352625     0.056920427    44.093949      6.0323485    
     99740   199.48         329.45725      134332.21     -807629.25     -19363.93       0.36353078     0.056914099    44.162507      5.808936     
     99750   199.5          322.15386      135951.11     -807625.74     -19523.363      0.36353516     0.057382009    44.156909      5.585523     
     99760   199.52         318.91535      134738.92     -807627.18     -19404.915      0.3635394      0.057033207    44.154376      5.3621095    
     99770   199.54         323.23541      135539.24     -807629.09     -19320.57       0.3635435      0.056784667    44.138982      5.1386955    
     99780   199.56         321.19504      134802.79     -807627.83     -19388.704      0.36354745     0.0569843      44.114204      4.9152811    
     99790   199.58         326.17616      134552.8      -807626.86     -19498.6        0.36355126     0.05730669     44.272869      4.6918644    
     99800   199.6          324.96253      134047.54     -807628.61     -19380.877      0.36355493     0.056960124    44.267038      4.4684473    
     99810   199.62         321.34347      134393.11     -807628.96     -19332.418      0.36355845     0.056817153    44.032128      4.2450319    
     99820   199.64         323.54647      134892.93     -807627.7      -19444.327      0.36356183     0.057145517    44.246191      4.0216138    
     99830   199.66         324.3689       134481.85     -807625.99     -19570.786      0.36356507     0.057516661    44.239027      3.7981953    
     99840   199.68         318.04561      135145.04     -807627.04     -19455.273      0.36356816     0.057176693    44.236608      3.5747763    
     99850   199.7          328.4391       132585.52     -807631.43     -19280.006      0.36357111     0.056661145    44.266299      3.3513565    
     99860   199.72         323.27379      134256.52     -807628.12     -19458.333      0.36357392     0.05718478     44.246683      3.1279363    
     99870   199.74         318.2142       133252.04     -807628.31     -19427.102      0.36357658     0.057092579    44.260552      2.9045156    
     99880   199.76         320.88759      134624.97     -807628.88     -19424.301      0.3635791      0.057083951    44.253876      2.6810944    
     99890   199.78         313.75546      132244.66     -807630.68     -19267.592      0.36358148     0.056623047    44.179676      2.4576731    
     99900   199.8          320.14221      135123.56     -807628.09     -19505.773      0.36358371     0.057322654    44.170559      2.2342512    
     99910   199.82         313.96952      133608.38     -807627.98     -19482.612      0.3635858      0.057254259    44.151054      2.0108289    
     99920   199.84         311.94743      135243.67     -807628.11     -19470.521      0.36358775     0.057218422    44.270049      1.7874054    
     99930   199.86         318.62849      132662.97     -807631.44     -19334.233      0.36358955     0.056817628    44.192671      1.5639817    
     99940   199.88         317.77657      134673.24     -807629.3      -19477.4        0.36359121     0.057238091    44.161812      1.3405576    
     99950   199.9          310.66531      133207.49     -807628.89     -19458.344      0.36359273     0.057181854    44.240134      1.1171326    
     99960   199.92         313.21342      134384.27     -807630.72     -19370.052      0.3635941      0.056922178    44.281947      0.89370705   
     99970   199.94         305.48426      132100.49     -807631.36     -19272.94       0.36359533     0.056636604    44.338511      0.67028092   
     99980   199.96         312.63429      134500.18     -807629.26     -19472.907      0.36359641     0.057224071    44.260429      0.44685445   
     99990   199.98         314.2215       134020.87     -807629.98     -19450.677      0.36359736     0.057158595    44.187857      0.22342751   
    100000   200            317.37207      134316.83     -807630.88     -19415.342      0.36359816     0.057054633    44.183385      0            
Loop time of 2234.28 on 64 procs for 100000 steps with 1080 atoms

Performance: 7.734 ns/day, 3.103 hours/ns, 44.757 timesteps/s, 48.338 katom-step/s
83.6% CPU use with 64 MPI tasks x 1 OpenMP threads

MPI task timing breakdown:
Section |  min time  |  avg time  |  max time  |%varavg| %total
---------------------------------------------------------------
Pair    | 1569.4     | 1750.1     | 1960.2     | 184.9 | 78.33
Neigh   | 0.0014948  | 0.0020469  | 0.0083356  |   3.4 |  0.00
Comm    | 196.78     | 406.9      | 587.6      | 383.4 | 18.21
Output  | 2.7582     | 3.2296     | 3.5398     |  11.6 |  0.14
Modify  | 66.98      | 67.264     | 67.607     |   1.6 |  3.01
Other   |            | 6.812      |            |       |  0.30

Nlocal:         16.875 ave          24 max          11 min
Histogram: 5 3 9 13 6 9 11 3 2 3
Nghost:        830.594 ave         841 max         820 min
Histogram: 5 8 8 5 7 4 8 6 8 5
Neighs:              0 ave           0 max           0 min
Histogram: 64 0 0 0 0 0 0 0 0 0
FullNghs:      2658.31 ave        3792 max        1723 min
Histogram: 5 3 12 10 6 10 10 3 2 3

Total # of neighbors = 170132
Ave neighs/atom = 157.52963
Neighbor list builds = 4
Dangerous builds = 0

Total wall time: 0:39:52
