
units		metal
atom_style	atomic

read_data ${STRUCTURE}.data
read_data BaTiO3-sc333.data
Reading data file ...
  orthogonal box = (0 0 0) to (11.898253 11.898253 12.912076)
  2 by 4 by 4 MPI processor grid
  reading atoms ...
  135 atoms
  read_data CPU = 0.005 seconds
replicate $L $L $L
replicate 2 $L $L
replicate 2 2 $L
replicate 2 2 2
Replication is creating a 2x2x2 = 8 times larger system...
  orthogonal box = (0 0 0) to (23.796507 23.796507 25.824152)
  2 by 4 by 4 MPI processor grid
  1080 atoms
  replicate CPU = 0.004 seconds

pair_style allegro
pair_coeff	* * ${MODEL}.pth Ba Ti O
pair_coeff	* * BaTiO3-E0.pth Ba Ti O
mass 1 137.3
mass 2 47.9
mass 3 15.9994

timestep 0.002
compute polarization all allegro polarization 3
compute allegro will evaluate the quantity polarization of length 3 (src/compute_allegro.cpp:53)
compute polarizability all allegro polarizability 9
compute allegro will evaluate the quantity polarizability of length 9 (src/compute_allegro.cpp:53)

thermo_style custom pe fmax fnorm spcpu cpuremain

variable efield equal 1e-2*36.36
fix born all addbornforce 0.0 0.0 ${efield}
fix born all addbornforce 0.0 0.0 0.3636

thermo 10
min_style fire
#minimize 0.0 1e-6 100 100
velocity all create ${TEMP} ${SEED} dist gaussian rot yes mom yes
velocity all create 280 ${SEED} dist gaussian rot yes mom yes
velocity all create 280 31229 dist gaussian rot yes mom yes
fix nvt all nvt temp ${TEMP} ${TEMP} $(100*dt)
fix nvt all nvt temp 280 ${TEMP} $(100*dt)
fix nvt all nvt temp 280 280 $(100*dt)
fix nvt all nvt temp 280 280 0.2000000000000000111
run 5000
Neighbor list info ...
  update: every = 1 steps, delay = 0 steps, check = yes
  max neighbors/atom: 2000, page size: 100000
  master list distance cutoff = 8
  ghost atom cutoff = 8
  binsize = 8, bins = 3 3 4
  1 neighbor lists, perpetual/occasional/extra = 1 0 0
  (1) pair allegro/kk, perpetual
      attributes: full, newton on, kokkos_device
      pair build: full/bin/kk/device
      stencil: full/bin/3d
      bin: kk/device
Per MPI rank memory allocation (min/avg/max) = 3.516 | 3.516 | 3.516 Mbytes
    PotEng          Fmax          Fnorm          S/CPU         CPULeft    
-807708.29      1.5962955      37.043638      0              0            
-807647.85      3.1184554      45.311447      2.165096       2304.7487    
-807638.44      2.4543294      35.096623      25.839172      1246.4303    
-807610.37      3.0677846      37.173203      25.86248       893.34169    
-807605.97      4.21108        49.8728        25.813253      716.69551    
-807567.69      3.9752308      41.040696      25.768251      610.61982    
-807605.78      2.7880899      37.96106       25.862845      539.65647    
-807647.32      3.5964757      33.842993      25.849579      488.87187    
-807686.74      2.3793982      33.088772      25.740257      450.78775    
-807669.5       3.2297572      33.623946      25.823262      421.01233    
-807656.71      3.052696       33.458112      25.881175      397.07204    
-807663.11      2.1110094      25.658894      25.834985      377.44499    
-807631.22      2.7828616      29.736029      25.826266      361.02995    
-807586.42      3.3588723      39.122915      25.793425      347.09919    
-807573.38      3.2925156      36.478422      25.859832      335.06857    
-807634.7       3.3952821      31.90193       25.808968      324.61515    
-807657.38      2.7480643      28.620545      25.816604      315.41649    
-807668.33      2.6452922      32.184277      25.839093      307.24489    
-807651.03      3.9323083      42.298335      25.854093      299.93221    
-807683.62      2.6186638      34.777134      25.822815      293.36045    
-807644.44      3.1829037      37.03732       25.835563      287.40253    
-807619.65      2.6152382      37.541087      25.841014      281.97333    
-807565.61      4.1638798      43.951409      25.835307      277.00436    
-807609.82      4.3110967      48.368223      25.810987      272.44138    
-807615.9       4.7278323      38.176001      25.775645      268.2369     
-807645.76      3.4495498      34.061697      25.842595      264.31864    
-807646.33      5.2707412      44.411197      25.858898      260.66758    
-807685.65      2.803803       37.051184      25.851031      257.26038    
-807663.53      3.3853169      34.958787      25.823723      254.07582    
-807641.69      2.7002525      30.496227      25.854476      251.07669    
-807609.24      3.1197643      32.473181      25.87206       248.24761    
-807610.23      3.5713243      41.482601      25.813709      245.58932    
-807600.13      3.0112397      33.741722      25.759795      243.08483    
-807614.79      3.2043076      31.27515       25.848464      240.68975    
-807647         3.0380157      28.861377      25.851736      238.41213    
-807678.01      3.1170598      30.674427      25.832571      236.24637    
-807679.43      2.4609067      30.660969      25.828447      234.18021    
-807648.83      4.1486879      36.024765      25.867209      232.19756    
-807651.86      2.5960409      28.670228      25.874632      230.29756    
-807624.97      3.4987754      32.043747      25.883191      228.47366    
-807604.34      3.7891798      41.213163      25.833927      226.73012    
-807576.36      3.3699596      38.20846       25.853827      225.0494     
-807631.68      2.5153958      32.836921      25.882869      223.42557    
-807654.95      2.7301839      32.309561      25.85774       221.86329    
-807677.13      2.5472864      33.311567      25.857903      220.35442    
-807646.66      4.4040034      44.699061      25.858169      218.89538    
-807672.39      2.7104186      33.555667      25.867325      217.48161    
-807645.39      4.2285284      34.798271      25.829574      216.117      
-807626.51      3.375669       36.893934      25.837545      214.79198    
-807567.26      4.3725631      42.031198      25.828312      213.50653    
-807609.81      3.6995802      42.571003      25.839741      212.25547    
-807627.57      3.703818       34.906513      25.788849      211.04502    
-807659.59      2.9194028      31.729781      25.838114      209.85983    
-807646.43      5.0008363      41.728328      25.863424      208.70158    
-807677.71      2.5243221      33.681006      25.859738      207.57235    
-807667.45      2.8299446      31.760144      25.801052      206.47725    
-807644.99      2.1920429      28.750847      25.859925      205.40041    
-807602.16      2.7933505      33.254434      25.855662      204.34829    
-807603.25      3.6431128      37.267895      25.861784      203.31842    
-807612.16      3.2424281      34.810686      25.730599      202.32508    
-807627.81      2.8996052      28.809483      25.817028      201.34235    
-807644.19      3.2927663      30.12472       25.854551      200.37511    
-807671.37      2.2172141      30.777817      25.8542        199.42662    
-807679.37      2.4761192      32.891561      25.802796      198.50131    
-807649.49      3.7680332      35.445371      25.826779      197.59036    
-807637.29      2.3717735      31.027026      25.882148      196.68997    
-807615.3       3.410421       33.247516      25.8926        195.80414    
-807607.34      4.2594042      43.46925       25.816232      194.9406     
-807586.14      3.9592422      38.120651      25.892019      194.08387    
-807627.14      2.9107354      32.910102      25.89932       193.2401     
-807651.78      3.5683106      34.983094      25.881381      192.41104    
-807678.44      3.0583338      35.445868      25.857506      191.59661    
-807650.8       4.3844171      41.612038      25.861191      190.79374    
-807657.6       3.2924351      33.856613      25.906331      189.99832    
-807642.08      3.9563567      33.396481      25.91683       189.21307    
-807623.83      3.5604049      38.035191      25.879458      188.44163    
-807574.98      3.3920122      39.419668      25.904306      187.67825    
-807601.24      3.1745588      38.498877      25.923789      186.92308    
-807635.34      2.7021917      30.449092      25.891598      186.17998    
-807666.37      2.5491092      30.579594      25.882401      185.44664    
-807653.84      3.518492       36.364719      25.898388      184.72073    
-807664.79      3.5604592      33.481438      25.78804       184.01175    
-807666.52      2.7249033      30.244368      25.852044      183.30571    
-807645.06      3.2796559      29.637924      25.862429      182.60658    
-807600.02      3.3219208      34.306489      25.906096      181.91167    
-807589.91      3.8137098      37.260265      25.909654      181.22377    
-807614.27      3.4355123      35.964538      25.825996      180.5489     
-807638.13      2.6541614      28.622077      25.897348      179.87559    
-807646.32      3.6827636      32.039662      25.89193       179.20918    
-807662.94      3.4639321      33.155047      25.922071      178.54699    
-807676.44      2.3811496      33.143134      25.839442      177.89656    
-807653.72      3.4200395      32.673843      25.808656      177.254      
-807630.31      2.6486867      31.232976      25.857011      176.61378    
-807605.1       3.3814655      33.717559      25.903495      175.97596    
-807607.87      4.0122627      42.276331      25.871509      175.34556    
-807601.39      3.7631137      35.173837      25.86497       174.72072    
-807627.21      2.8875484      32.276932      25.896407      174.09886    
-807648.98      3.894763       34.730677      25.875436      173.48316    
-807676.9       2.6553361      33.932271      25.863728      172.87286    
-807657.88      3.6016945      36.475841      25.827878      172.26925    
-807650.07      2.7703231      32.645671      25.866176      171.66767    
-807634.23      3.9197239      31.910537      25.882499      171.06939    
-807624.4       3.8101905      37.154161      25.898824      170.47431    
-807588.37      3.4506236      37.055186      25.88936       169.88384    
-807602.07      3.0796872      36.588717      25.898988      169.29675    
-807633.78      4.3470931      30.88287       25.883173      168.71437    
-807667.42      2.4211846      30.404133      25.889435      168.13534    
-807660.63      3.078131       33.630001      25.803465      167.56465    
-807658.76      3.1867551      32.588949      25.873458      166.99353    
-807660.37      2.4145443      29.136677      25.849369      166.4271     
-807644.66      2.3295551      28.288725      25.87754       165.86244    
-807607.03      3.262648       32.87707       25.895896      165.30004    
-807587.04      3.1431122      36.22019       25.861298      164.74256    
-807614.79      3.122601       33.722908      25.898444      164.18622    
-807644.8       2.8960035      30.03544       25.869022      163.63434    
-807654.08      3.4155612      31.625022      25.893906      163.0841     
-807655.28      3.6210585      35.513604      25.895789      162.53659    
-807672.28      2.8904075      32.419378      25.815659      161.99577    
-807654.58      3.3572354      32.693317      25.828633      161.45691    
-807629.96      2.7821171      31.33424       25.86812       160.91871    
-807596.31      3.7124565      35.093578      25.89613       160.38172    
-807606.51      3.7871118      39.640301      25.879556      159.84799    
-807613.97      3.5792126      33.108655      25.819351      159.31947    
-807636.33      2.8925168      30.729187      25.895311      158.78977    
-807647.1       3.8765082      34.925578      25.895953      158.26235    
-807674.53      2.7831171      32.672653      25.860224      157.73879    
-807661.76      3.7750011      33.153016      25.82254       157.21908    
-807648.26      2.6770114      31.329923      25.83547       156.70088    
-807622.96      3.3701324      32.036086      25.8884        156.18243    
-807617.9       2.9986736      36.113606      25.858103      155.66734    
-807598.24      3.6016913      35.808046      25.817511      155.15595    
-807610.03      2.8906894      34.336672      25.723692      154.65043    
-807631.77      4.558694       32.380787      25.895517      154.13949    
-807665.43      3.2641649      31.767239      25.831829      153.63306    
-807664.05      2.9877109      33.565281      25.784181      153.13036    
-807653.98      2.9822939      33.416145      25.868021      152.62596    
-807647.52      3.2370755      31.229317      25.821455      152.12516    
-807638.16      2.8863815      30.402981      25.913345      151.62238    
-807609.39      2.7736499      34.188599      25.882737      151.12249    
-807590.47      2.5959113      35.662364      25.887262      150.62406    
-807616.27      2.6028146      32.519724      25.869311      150.12792    
-807647.18      3.623141       30.669581      25.85843       149.63375    
-807660.53      3.0730472      31.206298      25.792411      149.14359    
-807653.23      4.2394649      35.273622      25.831559      148.65339    
-807662.16      3.0006049      32.427226      25.846901      148.16406    
-807652.13      2.5725369      31.183436      25.83484       147.67658    
-807630.83      2.9731828      31.902251      25.878672      147.18889    
-807592.12      2.908069       36.134511      25.898477      146.70187    
-807604.45      3.3872461      37.221401      25.873051      146.21711    
-807621.94      3.6326235      33.4349        25.864437      145.73397    
-807645.31      2.737374       30.767203      25.853294      145.25251    
-807647.02      4.2414812      35.655321      25.908149      144.77042    
-807666.89      2.8927869      33.084025      25.841177      144.29187    
-807659.89      2.8809455      33.023169      25.819732      143.81525    
-807646.1       2.6971735      30.679738      25.846252      143.3389     
-807614.11      3.2937744      32.841308      25.843024      142.86381    
-807609.64      3.0314524      35.108365      25.89584       142.38811    
-807605.78      3.1961248      35.52999       25.774889      141.91751    
-807623.43      3.019061       31.801413      25.854877      141.44536    
-807633.95      3.5021554      32.903142      25.865339      140.97395    
-807661.89      2.9618956      31.323753      25.856194      140.50388    
-807665.14      2.6293705      33.232837      25.822535      140.03592    
-807655.37      2.6554915      32.509689      25.818968      139.56906    
-807637.14      3.4319793      32.53113       25.837008      139.10262    
-807626.72      2.8233558      32.616845      25.910334      138.6349     
-807610.08      4.0933357      36.529651      25.868872      138.16943    
-807600.13      4.1022465      35.996228      25.877994      137.70463    
-807618.38      3.7351598      32.094777      25.888245      137.24047    
-807647.17      2.9088964      30.008788      25.885372      136.77732    
-807663.69      3.9057286      31.198495      25.818577      136.31704    
-807653.86      3.3838254      33.557259      25.8428        135.85691    
-807653.83      2.8213892      31.265629      25.869765      135.39686    
-807644.96      3.2057165      30.230158      25.878349      134.93743    
-807629.52      2.7977323      31.932626      25.840142      134.47991    
-807598.27      2.8793908      35.181592      25.850363      134.02292    
-807603.26      3.2110732      35.873511      25.817167      133.56766    
-807627.96      3.0376384      32.293228      25.79322       133.11382    
-807651.93      3.0371765      30.90024       25.868035      132.65869    
-807650.45      3.2029465      33.293986      25.860593      132.20453    
-807659.54      2.748314       32.274594      25.882035      131.75056    
-807658.17      3.0457454      31.406691      25.855713      131.29803    
-807645.58      2.8385561      29.750297      25.838039      130.84669    
-807613.04      4.3117754      32.630109      25.858939      130.39552    
-807604.27      3.5922639      34.750198      25.895104      129.94411    
-807612.2       3.7580292      34.195673      25.874356      129.49394    
-807632.69      2.6407038      30.523247      25.848636      129.04512    
-807640.51      3.2820099      31.51305       25.87906       128.5962     
-807658.7       2.9857772      31.415131      25.91251       128.14711    
-807664.24      2.7625385      31.806953      25.854536      127.70012    
-807655.74      3.0055584      31.223552      25.837395      127.2542     
-807630.53      3.1688546      31.957571      25.864587      126.80823    
-807617.54      2.9479521      32.844602      25.874753      126.36264    
-807610.44      3.5220823      36.418747      25.866316      125.91787    
-807610.62      3.9537044      34.537197      25.853995      125.47399    
-807624.63      2.9209005      31.728561      25.824519      125.0314     
-807647.73      3.6388418      30.798401      25.888564      124.58787    
-807663.66      2.6212403      31.243667      25.862344      124.14554    
-807656.48      3.0134297      33.039901      25.843686      123.70421    
-807646.13      2.9944076      31.963094      25.879023      123.26261    
-807635.52      3.2604494      30.897609      25.913143      122.8208     
-807624.31      3.0870389      33.161223      25.878097      122.38034    
-807602.87      2.9940272      34.89366       25.870985      121.94057    
-807608.65      2.7820996      34.294649      25.885264      121.50101    
-807630.9       2.8260797      31.778671      25.878429      121.06213    
-807654.6       2.9009917      30.885885      25.849579      120.62438    
-807652.89      3.4580876      33.998501      25.84197       120.1873     
-807652.15      3.1804526      33.984878      25.817544      119.75123    
-807649.01      3.4439467      32.972802      25.823229      119.3155     
-807638.77      2.9059439      32.12724       25.835498      118.87999    
-807612.99      3.716617       33.631605      25.872191      118.44417    
-807600.4       2.6082328      35.424612      25.897877      118.00829    
-807616.06      2.7374286      32.971534      25.874122      117.57338    
-807636.41      2.8200518      31.451577      25.847381      117.13946    
-807646.65      3.0527939      31.196668      25.866573      116.70559    
-807652.93      2.9286985      32.959242      25.855101      116.2724     
-807658.79      3.2250533      32.416074      25.821283      115.84031    
-807651.15      3.7899652      31.258597      25.803935      115.40898    
-807629.58      2.686644       31.858096      25.826206      114.97761    
-807609.65      3.2065706      34.078612      25.844241      114.5463     
-807609.05      3.1860289      35.668232      25.86669       114.11497    
-807618.04      2.9854519      33.095592      25.855372      113.68425    
-807632.65      3.3172058      32.100049      25.855993      113.25393    
-807645.78      2.9346045      32.296889      25.828125      112.82452    
-807661.92      2.9994519      31.990923      25.838757      112.39528    
-807658.08      2.9888185      32.249718      25.862214      111.966      
-807643.72      3.3341159      32.694143      25.853201      111.53725    
-807627.58      3.4748967      32.427286      25.926469      111.10756    
-807616.33      2.8848462      34.730478      25.913101      110.67849    
-807606.97      3.0308647      35.154856      25.887131      110.25026    
-807615.04      2.6657602      33.261557      25.890895      109.82233    
-807633.45      3.0855146      30.843931      25.892861      109.39473    
-807655.08      2.7102306      31.409847      25.884618      108.96763    
-807656.74      3.1684146      32.959342      25.832762      108.54177    
-807651.13      3.3319334      32.505656      25.838248      108.11616    
-807643.47      3.3771117      31.762912      25.791566      107.69167    
-807634.69      2.5111574      31.771544      25.840025      107.26668    
-807612.55      2.7434406      34.02781       25.894575      106.84109    
-807605.51      3.0046833      34.888233      25.887113      106.41596    
-807620.3       2.7477512      31.991059      25.885086      105.99119    
-807641.58      2.1640907      30.726523      25.868152      105.56702    
-807652.24      2.558609       31.251237      25.856072      105.14336    
-807652.86      2.7932302      32.477193      25.883963      104.71955    
-807652.22      2.6747919      31.926514      25.834491      104.29685    
-807646.97      2.9297923      30.971952      25.801689      103.87496    
-807627.4       2.6897603      31.167553      25.871901      103.45224    
-807608.62      2.8380171      33.353533      25.885886      103.02961    
-807611.15      2.9429319      34.365279      25.884618      102.60728    
-807625.39      2.8112524      31.908124      25.885138      102.18525    
-807640.26      2.500393       30.883128      25.888774      101.76344    
-807648.64      3.2508013      31.779082      25.858234      101.34238    
-807657.35      3.0559673      31.786385      25.876591      100.92132    
-807654.82      3.1062755      31.984067      25.83031       100.50123    
-807641.86      3.7167137      31.012529      25.862798      100.08091    
-807621.18      3.880254       32.063137      25.892384      99.660433    
-807612.36      3.0695635      33.64939       25.900013      99.240114    
-807612.7       3.1285356      34.148691      25.920836      98.819765    
-807624.61      2.5600947      31.589797      25.881081      98.400251    
-807638.27      3.3199813      30.705938      25.903884      97.980673    
-807654.18      3.5966841      31.05559       25.879879      97.561691    
-807658.29      2.7669611      31.779667      25.852986      97.143334    
-807650.36      3.5388731      31.57519       25.818382      96.725699    
-807636.24      4.1768005      31.492277      25.826196      96.308189    
-807624.6       2.8777192      31.763457      25.878663      95.890196    
-807613.23      2.8713804      34.59365       25.847904      95.472859    
-807609.91      2.7903546      34.314584      25.900257      95.055053    
-807623.97      2.9674404      31.405578      25.895723      94.637547    
-807644.37      3.0141633      30.423362      25.91614       94.220008    
-807656.52      2.9092381      30.869788      25.880927      93.803165    
-807651.52      3.1085044      32.606696      25.891461      93.386413    
-807647.57      3.203242       31.408855      25.839442      92.970556    
-807639.67      3.8320926      31.002248      25.885919      92.55432     
-807624.54      3.0957585      32.784577      25.898383      92.138149    
-807609.28      3.2502298      34.794527      25.884833      91.722367    
-807611.3       3.7415579      34.300061      25.900801      91.306604    
-807630.22      2.9684645      31.789004      25.883505      90.891269    
-807645.67      2.6004241      31.674342      25.856264      90.476479    
-807650.9       2.7645489      32.451162      25.893133      90.061445    
-807652.47      3.3102232      32.655339      25.861849      89.646995    
-807649.8       4.7098406      32.041706      25.801558      89.233467    
-807638.97      3.3276496      30.326472      25.803735      88.820098    
-807618.27      3.8092865      32.0411        25.84079       88.406478    
-807607.41      3.0442689      34.429511      25.853187      87.992902    
-807616.06      3.0926347      34.182375      25.857403      87.579468    
-807631.92      2.9191306      31.946959      25.887562      87.165877    
-807643.51      3.7708006      31.638837      25.899718      86.75234     
-807651.67      2.7864434      32.863374      25.894894      86.33905     
-807657.56      2.997369       32.095466      25.886008      85.926049    
-807649.77      2.6683329      31.697603      25.881778      85.51328     
-807631.47      3.8722692      32.412713      25.867475      85.100853    
-807615         2.7125665      33.617035      25.914911      84.688087    
-807610.36      3.1143374      35.191897      25.879275      84.275892    
-807616.94      3.1414429      32.857596      25.8561        83.864123    
-807627.97      2.5745571      31.51434       25.879533      83.452275    
-807644.84      2.8517834      31.455939      25.886467      83.040528    
-807657.62      2.6264117      31.639656      25.865895      82.629169    
-807655.22      3.575424       32.51841       25.842096      82.218226    
-807643.51      2.7139607      32.075949      25.847004      81.807394    
-807630.29      4.0954862      32.337662      25.817722      81.397023    
-807619.16      3.027507       34.011006      25.828298      80.986699    
-807607.48      3.2821171      35.465282      25.858142      80.57623     
-807615.41      2.9269844      33.298374      25.880278      80.165698    
-807632.66      2.7299323      31.811057      25.896623      79.755166    
-807649.87      3.1582093      31.874363      25.881452      79.344943    
-807654.2       3.3560196      33.054436      25.899045      78.934708    
-807650.53      3.572467       33.227598      25.867378      78.524935    
-807644.26      2.9647009      32.465543      25.814613      78.11582     
-807631.74      3.201893       32.494348      25.836068      77.706643    
-807615.41      3.1283098      33.410808      25.811704      77.29784     
-807607.12      2.5066856      34.569339      25.828573      76.889018    
-807618.9       3.0921439      33.037504      25.877822      76.479881    
-807638.45      2.5865395      31.1752        25.909285      76.070602    
-807648.95      3.441855       31.718978      25.915152      75.66142     
-807651.29      4.0590167      32.961461      25.877822      75.252724    
-807652.63      2.8957095      32.116281      25.82678       74.844625    
-807644.7       3.055107       31.938048      25.868948      74.436286    
-807629.03      3.5622792      32.081046      25.889113      74.027909    
-807611.08      3.2626817      34.295225      25.902939      73.619551    
-807612.51      3.5950769      35.257197      25.926709      73.21113     
-807624.03      3.1859138      33.587404      25.924048      72.802874    
-807637.57      2.8034307      31.932104      25.887671      72.395067    
-807647.76      3.2484977      32.181386      25.900357      71.987288    
-807653.85      3.1147393      33.017917      25.911854      71.579549    
-807652.16      3.0867211      32.007293      25.85888       71.172382    
-807641         3.4373926      31.224645      25.804089      70.765792    
-807624.82      2.8517145      32.58311       25.841906      70.359011    
-807617.88      2.688372       33.331081      25.858282      69.95222     
-807614.07      3.0003113      33.848775      25.827236      69.545801    
-807623.59      2.9575494      32.94801       25.829729      69.139479    
-807637.82      3.4553768      32.096464      25.878374      68.732893    
-807651.71      4.1912542      31.392424      25.907302      68.326205    
-807654.8       2.9229379      32.62948       25.876353      67.91988     
-807648.15      3.3953803      32.683915      25.862177      67.513784    
-807638.91      2.766335       31.88459       25.86635       67.107773    
-807626.4       2.8260403      32.809246      25.896862      66.70165     
-807616.15      3.669152       34.599951      25.866471      66.295872    
-807612.96      2.9840312      34.203112      25.839532      65.890407    
-807625.21      2.9158114      32.505492      25.894778      65.484649    
-807642.18      2.8255875      31.627289      25.913665      65.078871    
-807652.17      2.311806       31.735048      25.846146      64.673694    
-807651.74      3.0552647      32.51579       25.835587      64.2687      
-807648.05      3.1283229      31.701644      25.863187      63.863617    
-807638.03      3.5853181      31.581438      25.884231      63.458495    
-807625.62      3.1645844      32.470288      25.872828      63.053562    
-807609.35      3.5254343      34.674638      25.835424      62.648993    
-807613.91      3.5582537      33.822988      25.836925      62.244515    
-807629.02      3.0321135      32.087759      25.866209      61.839942    
-807642.77      2.5418315      32.108863      25.889534      61.435317    
-807648.71      2.7072594      32.724006      25.921837      61.030585    
-807652.45      3.4725624      32.606178      25.919073      60.625981    
-807648.04      3.8234027      32.605671      25.863289      60.221845    
-807635.89      3.6402063      32.077545      25.89335       59.817616    
-807618.85      3.0831325      33.106311      25.88542       59.413539    
-807609.81      3.2668776      35.312779      25.859599      59.009727    
-807617.31      3.2014795      34.020634      25.851653      58.60606     
-807629.89      3.1226349      31.969654      25.850374      58.202497    
-807641.58      3.7447813      31.594112      25.892877      57.798768    
-807650.32      2.8889362      32.63163       25.850024      57.395397    
-807653.38      3.1699974      32.403058      25.879805      56.99194     
-807644.68      2.415296       31.705577      25.856433      56.588717    
-807632.48      3.1622884      32.053274      25.88952       56.185391    
-807618.14      3.4299248      32.708577      25.901092      55.782094    
-807614.5       3.6460574      34.501994      25.879202      55.379017    
-807618         3.1328332      33.836741      25.865238      54.976112    
-807630.62      2.8899847      31.491813      25.897939      54.573112    
-807643.33      2.7159321      31.447498      25.88032       54.170303    
-807653.26      2.5933728      32.139504      25.850012      53.767752    
-807651.56      2.7708547      31.71398       25.84118       53.365335    
-807641.87      2.8179865      31.14419       25.799632      52.963228    
-807631.88      3.3326594      30.889376      25.855744      52.560898    
-807620.9       3.0947614      32.401731      25.865585      52.158601    
-807614.02      3.1433093      33.993573      25.863469      51.756399    
-807617.82      2.8012894      32.04454       25.85955       51.354301    
-807634.23      2.7493624      31.081028      25.895922      50.952099    
-807648.21      2.8129251      31.599056      25.872479      50.550103    
-807652.64      2.448492       31.814656      25.869118      50.148206    
-807648.54      3.058816       32.401946      25.861609      49.746428    
-807644.52      3.1816126      30.972139      25.834373      49.344865    
-807632.64      3.6752519      31.579881      25.820531      48.943447    
-807618.45      2.7321287      32.739008      25.831539      48.54205     
-807611.96      3.3538913      34.32305       25.848523      48.140647    
-807621.77      3.3897489      33.111192      25.884266      47.739153    
-807636.23      2.7153502      31.696423      25.809784      47.338085    
-807646.76      2.5710192      31.558832      25.89248       46.936707    
-807650.95      2.6062638      31.94074       25.858774      46.535562    
-807650.13      2.6682207      32.199943      25.807221      46.134725    
-807644.22      2.3985253      30.462831      25.809887      45.733946    
-807629.81      2.8178158      31.700995      25.888758      45.332887    
-807618.06      2.664959       31.723031      25.877739      44.931953    
-807614.85      2.7264414      33.64931       25.85123       44.531208    
-807624.79      2.8394424      32.742141      25.866529      44.130469    
-807637.47      3.5577267      31.158457      25.865608      43.729807    
-807644.97      2.7982658      31.741496      25.869987      43.329198    
-807653.03      3.3169347      31.484195      25.881734      42.928612    
-807649.6       2.7230964      32.153912      25.872685      42.528136    
-807639.25      2.7949187      31.419364      25.860026      42.127781    
-807627.58      2.9517701      31.921068      25.872217      41.727447    
-807618.88      3.3019084      33.616074      25.894335      41.327097    
-807616.28      3.5691545      34.19094       25.807816      40.927153    
-807623.69      4.2464877      33.58431       25.837104      40.52716     
-807638.14      3.5422054      31.503887      25.860404      40.127143    
-807647.55      4.0638589      32.586554      25.85841       39.7272      
-807649.63      3.0528706      33.134325      25.808398      39.327508    
-807645.97      3.0868574      32.910218      25.832107      38.927791    
-807638.16      4.281701       31.749574      25.846026      38.528085    
-807626.6       2.9791463      33.239989      25.844823      38.128448    
-807616.34      3.4356936      33.717888      25.881973      37.728743    
-807615.31      3.1301222      34.00626       25.880317      37.329109    
-807625.09      2.9165809      33.292035      25.844179      36.929664    
-807637.9       3.5922621      33.223721      25.854628      36.530245    
-807647.18      3.0035963      33.07413       25.813521      36.131024    
-807647.71      2.7973253      34.007071      25.80337       35.731895    
-807644.13      3.2031256      33.732521      25.779959      35.332899    
-807635.52      3.5890289      33.573744      25.819283      34.93383     
-807624.48      2.7147         34.220922      25.852826      34.534712    
-807613.45      3.1237806      35.56376       25.873021      34.135591    
-807615.93      3.2805997      34.852975      25.874775      33.736525    
-807628.29      3.9467088      33.222583      25.830639      33.337654    
-807639.64      2.82997        31.968119      25.836769      32.93882     
-807644.93      2.8847057      33.158227      25.852789      32.539996    
-807648.59      3.2132366      33.253514      25.837636      32.141272    
-807645.04      3.253248       32.49189       25.855272      31.742555    
-807633.28      2.7964069      32.854013      25.848555      31.343913    
-807620.97      3.0350647      34.010317      25.825212      30.945391    
-807616.96      2.7597192      34.335433      25.832611      30.546902    
-807619.55      3.1071249      34.037058      25.837799      30.148454    
-807629.3       2.7385102      33.315961      25.88822       29.749926    
-807641.12      3.6578845      32.207673      25.842579      29.351574    
-807647.29      3.3174427      33.322692      25.868646      28.953209    
-807649.54      2.9424356      32.888585      25.812548      28.55504     
-807642.12      3.2289101      32.94659       25.808658      28.156931    
-807632.51      3.0825173      33.076826      25.820247      27.758843    
-807624.32      2.7547749      32.932184      25.834074      27.360772    
-807616.55      3.0620774      34.428764      25.850473      26.962714    
-807619.96      2.774779       33.901522      25.839711      26.564732    
-807631.52      2.8639436      32.453611      25.866543      26.166739    
-807642.68      3.4165241      32.379567      25.862315      25.768809    
-807649.31      2.8489432      32.447259      25.831105      25.370999    
-807648.57      2.7682997      32.388773      25.838051      24.973222    
-807642.24      3.2215798      32.395975      25.855767      24.575457    
-807633.4       3.1886312      32.167743      25.872666      24.177708    
-807621.36      2.656826       33.326452      25.866725      23.780021    
-807617.56      3.0026824      33.835608      25.870899      23.382376    
-807620.61      3.1660973      33.63251       25.847141      22.984829    
-807634.87      2.5455527      32.087514      25.850151      22.587323    
-807643.57      4.1751135      32.675405      25.825011      22.189913    
-807647.96      3.3301204      33.456464      25.817691      21.792563    
-807647.84      2.9061425      33.061071      25.805105      21.39528     
-807642.86      3.5713033      32.967154      25.848919      20.997963    
-807632.18      2.7250373      32.038404      25.855706      20.600681    
-807619.96      3.5404186      33.192439      25.845131      20.203464    
-807618.09      3.0047678      33.629197      25.862062      19.806264    
-807624.33      2.8879364      33.003334      25.86366       19.409108    
-807635.32      3.7760843      31.373488      25.861558      19.012003    
-807644.29      3.0539227      32.287752      25.876814      18.614919    
-807648.47      3.2892273      33.03888       25.839855      18.217939    
-807647.91      3.1808685      32.514739      25.806714      17.821052    
-807640.08      3.4634513      32.447604      25.840443      17.424157    
-807629.35      2.5924905      32.29022       25.853722      17.027286    
-807621.2       3.0394748      33.414057      25.834592      16.630486    
-807618.57      2.9685718      33.473136      25.82667       16.233739    
-807623.65      2.4941128      32.981569      25.822659      15.837039    
-807636.31      2.8791492      32.309591      25.842318      15.440355    
-807644.96      3.367253       32.508991      25.845545      15.043708    
-807647.34      3.2080929      32.629917      25.849341      14.6471      
-807645.82      3.044472       31.940325      25.852501      14.250529    
-807639.44      2.8604997      31.828971      25.863751      13.853988    
-807628.76      3.480038       32.491116      25.860369      13.457494    
-807619.86      3.3630449      33.33727       25.855279      13.061046    
-807615.87      3.798973       34.760035      25.841005      12.664655    
-807625.17      2.9427747      33.462547      25.845781      12.268299    
-807635.77      3.8532594      33.530859      25.854812      11.871974    
-807643.68      3.294461       33.501597      25.844167      11.4757      
-807647.19      3.8104246      34.110077      25.829188      11.079479    
-807643.78      2.9059178      33.566688      25.818522      10.683305    
-807637.43      3.1956027      32.731854      25.815282      10.287171    
-807626.75      2.9431308      34.122356      25.841499      9.8910533    
-807618.35      3.2322408      35.234715      25.861065      9.4949594    
-807617.51      3.4357204      34.83945       25.847092      9.098915     
-807626.95      3.2216987      33.613891      25.847699      8.7029085    
-807637.04      3.4366032      33.158885      25.865928      8.3069282    
-807643.07      3.0797348      33.467661      25.842199      7.9110017    
-807645.64      3.2772377      33.673451      25.852632      7.5151063    
-807642.45      3.3521505      32.577322      25.820869      7.1192663    
-807635.36      3.3157112      32.399718      25.813858      6.7234655    
-807627.01      2.5632094      33.002         25.835405      6.3276888    
-807618.43      3.6038807      33.381301      25.860392      5.9319364    
-807621.9       3.0387149      33.556931      25.827911      5.5362354    
-807628.73      3.3406531      33.063639      25.805372      5.1405783    
-807639.37      2.79933        32.831532      25.833312      4.7449443    
-807644.1       3.6510667      32.973114      25.830222      4.3493463    
-807644.99      2.9947115      33.301287      25.805907      3.9537902    
-807640.66      3.7288668      33.840878      25.823104      3.5582622    
-807635.42      2.9856554      32.369655      25.832366      3.1627656    
-807625.21      3.094147       33.456144      25.839107      2.7673015    
-807619.82      2.6999256      33.688446      25.871032      2.3718659    
-807622.28      3.1849588      33.225431      25.876596      1.9764654    
-807630.96      2.7238377      32.547415      25.864872      1.5811024    
-807640.38      3.142414       31.737525      25.866022      1.1857745    
-807644.39      2.7868041      32.066787      25.825801      0.790484     
-807646.54      2.899522       32.165636      25.835111      0.39522563   
-807642.37      2.6019509      31.589729      25.853584      0            
Loop time of 197.604 on 32 procs for 5000 steps with 1080 atoms

Performance: 4.372 ns/day, 5.489 hours/ns, 25.303 timesteps/s, 27.327 katom-step/s
66.9% CPU use with 32 MPI tasks x 1 OpenMP threads

MPI task timing breakdown:
Section |  min time  |  avg time  |  max time  |%varavg| %total
---------------------------------------------------------------
Pair    | 102.07     | 146.14     | 193.29     | 314.3 | 73.96
Neigh   | 0          | 0          | 0          |   0.0 |  0.00
Comm    | 1.9585     | 49.096     | 93.152     | 542.3 | 24.85
Output  | 0.030032   | 0.030725   | 0.032017   |   0.3 |  0.02
Modify  | 1.987      | 2.0127     | 2.0404     |   1.2 |  1.02
Other   |            | 0.3231     |            |       |  0.16

Nlocal:          33.75 ave          48 max          21 min
Histogram: 8 8 0 0 0 0 0 8 0 8
Nghost:        1106.25 ave        1119 max        1092 min
Histogram: 8 0 8 0 0 0 0 0 8 8
Neighs:              0 ave           0 max           0 min
Histogram: 32 0 0 0 0 0 0 0 0 0
FullNghs:       5494.5 ave        7896 max        3378 min
Histogram: 8 8 0 0 0 0 0 8 0 8

Total # of neighbors = 175824
Ave neighs/atom = 162.8
Neighbor list builds = 0
Dangerous builds = 0

reset_timestep 0


variable interval equal 1000
thermo 10

variable nintervals equal $(v_PERIOD/v_interval)
variable nintervals equal 100
variable efield equal 1e-2*36.36*cos((step/${PERIOD})*2*3.14)
variable efield equal 1e-2*36.36*cos((step/100000)*2*3.14)
fix born all addbornforce 0.0 0.0 v_efield

variable Px equal f_born[1]+c_polarization[1]
variable Py equal f_born[2]+c_polarization[2]
variable Pz equal (f_born[3]+c_polarization[3])/vol
variable pe equal pe

fix aveP all ave/time 1 $(v_interval/2) ${interval} v_efield v_Pz v_pe f_born file Pz.${MODEL}.${STRUCTURE}.${TEMP}.$L.${ITER}
fix aveP all ave/time 1 500 ${interval} v_efield v_Pz v_pe f_born file Pz.${MODEL}.${STRUCTURE}.${TEMP}.$L.${ITER}
fix aveP all ave/time 1 500 1000 v_efield v_Pz v_pe f_born file Pz.${MODEL}.${STRUCTURE}.${TEMP}.$L.${ITER}
fix aveP all ave/time 1 500 1000 v_efield v_Pz v_pe f_born file Pz.BaTiO3-E0.${STRUCTURE}.${TEMP}.$L.${ITER}
fix aveP all ave/time 1 500 1000 v_efield v_Pz v_pe f_born file Pz.BaTiO3-E0.BaTiO3-sc333.${TEMP}.$L.${ITER}
fix aveP all ave/time 1 500 1000 v_efield v_Pz v_pe f_born file Pz.BaTiO3-E0.BaTiO3-sc333.280.$L.${ITER}
fix aveP all ave/time 1 500 1000 v_efield v_Pz v_pe f_born file Pz.BaTiO3-E0.BaTiO3-sc333.280.2.${ITER}
fix aveP all ave/time 1 500 1000 v_efield v_Pz v_pe f_born file Pz.BaTiO3-E0.BaTiO3-sc333.280.2.7

thermo_style custom step time temp press pe f_born v_efield v_Pz spcpu cpuremain

# dump 4a all custom 1000 dump.hyst.${MODEL}.${STRUCTURE}.${TEMP}.$L.${ITER}.bin id type xu yu zu fx fy fz
# dump_modify 4a sort id

fix nvt all nvt temp ${TEMP} ${TEMP} $(100*dt)
fix nvt all nvt temp 280 ${TEMP} $(100*dt)
fix nvt all nvt temp 280 280 $(100*dt)
fix nvt all nvt temp 280 280 0.2000000000000000111

run $(v_PERIOD)
run 100000
WARNING: non-constant efield is experimental, strongly distrust scalar/vector output (src/fix_addbornforce.cpp:193)
Per MPI rank memory allocation (min/avg/max) = 3.516 | 3.516 | 3.516 Mbytes
   Step          Time           Temp          Press          PotEng         f_born        v_efield         v_Pz          S/CPU         CPULeft    
         0   0              281.34835      126108.31     -807642.37     -296.0113       0.3636         0.055671372    0              0            
        10   0.02           295.32058      132698.48     -807634.57     -305.85137      0.36359993     0.057522025    29.494119      3390.1862    
        20   0.04           286.5079       140543.47     -807625.39     -313.8025       0.36359971     0.059017443    29.524838      3388.0767    
        30   0.06           260.1239       143934.03     -807619.22     -316.3183       0.36359935     0.059490652    29.571761      3385.3536    
        40   0.08           279.95782      141719.11     -807623.76     -314.57539      0.36359885     0.059162941    29.543327      3384.6377    
        50   0.1            285.26832      134517.3      -807631.78     -307.33323      0.36359821     0.057800994    29.513367      3384.7593    
        60   0.12           282.72277      127199.96     -807640.8      -297.92278      0.36359742     0.056031267    29.53602       3384.2946    
        70   0.14           265.58494      122918.19     -807646.25     -289.98378      0.36359649     0.054538293    29.53038       3383.9586    
        80   0.16           273.55422      122492.03     -807646.69     -290.65289      0.36359541     0.054664297    29.485373      3384.2672    
        90   0.18           283.25384      127623.27     -807640.45     -298.28956      0.36359419     0.056100746    29.541383      3383.7187    
       100   0.2            288.23601      134733.8      -807632.55     -306.94447      0.36359283     0.057728731    29.56079       3382.9897    
       110   0.22           281.67997      141683.83     -807624.28     -314.19827      0.36359132     0.059093238    29.570021      3382.2354    
       120   0.24           265.64384      143719.9      -807619.12     -317.03085      0.36358968     0.059626251    29.584684      3381.4113    
       130   0.26           282.5501       141245.66     -807624.19     -314.37004      0.36358788     0.059126104    29.560558      3380.8744    
       140   0.28           296.17762      133561.43     -807634.68     -305.62236      0.36358595     0.057481165    29.56176       3380.3557    
       150   0.3            279.47665      127099.95     -807641.25     -296.60719      0.36358387     0.055785918    29.580437      3379.7185    
       160   0.32           270.15944      122830.46     -807646.74     -289.67145      0.36358165     0.054481776    29.525465      3379.5117    
       170   0.34           272.61012      123281.56     -807645.27     -291.38595      0.36357928     0.054804598    29.475606      3379.6256    
       180   0.36           285.32217      127892.24     -807640.14     -298.20679      0.36357677     0.056087867    29.494362      3379.57      
       190   0.38           280.3373       135874.7      -807629.72     -307.83098      0.36357412     0.057898443    29.556354      3379.1108    
       200   0.4            283.1403       142293.31     -807623.29     -314.46235      0.36357132     0.059146161    29.529734      3378.8159    
       210   0.42           265.83671      144187.47     -807618.31     -316.89782      0.36356838     0.059604721    29.534296      3378.4919    
       220   0.44           297.26088      139386.03     -807626.43     -312.81113      0.3635653      0.058836562    29.528248      3378.198     
       230   0.46           297.14925      132558.23     -807635.16     -303.81086      0.36356207     0.057144211    29.529503      3377.894     
       240   0.48           285.56606      126284.61     -807641.95     -295.14827      0.3635587      0.055515367    29.50875       3377.6864    
       250   0.5            273.71033      123461.58     -807644.76     -290.45059      0.36355519     0.054632294    29.532572      3377.3588    
       260   0.52           276.43635      124790.92     -807643.44     -291.91738      0.36355153     0.054908741    29.52485       3377.0645    
       270   0.54           284.71056      129833.07     -807637.03     -299.35372      0.36354773     0.056308082    29.512028      3376.8212    
       280   0.56           294.03581      136504.14     -807629.06     -308.52246      0.36354379     0.058033341    29.536526      3376.471     
       290   0.58           281.30477      142669.93     -807620.45     -315.18807      0.3635397      0.059287815    29.507181      3376.2374    
       300   0.6            286.64571      144228.03     -807619.87     -316.39036      0.36353547     0.059514662    29.526519      3375.9231    
       310   0.62           287.3891       138916.41     -807625.35     -310.95797      0.3635311      0.058493505    29.514322      3375.6521    
       320   0.64           299.505        132751.55     -807634.36     -303.50473      0.36352658     0.057092204    29.493809      3375.4503    
       330   0.66           286.8323       125187.67     -807642.4      -293.6496       0.36352192     0.055239067    29.50377       3375.2057    
       340   0.68           272.00149      124258.26     -807643.67     -290.19142      0.36351712     0.054589262    29.507303      3374.9437    
       350   0.7            281.01097      124239.02     -807643.11     -292.10464      0.36351217     0.054949914    29.452112      3374.8579    
       360   0.72           287.37643      131123.46     -807634.76     -301.37897      0.36350708     0.056695369    29.491513      3374.6325    
       370   0.74           310.46171      136674.97     -807630.1      -309.39179      0.36350185     0.058203577    29.513756      3374.3323    
       380   0.76           281.01163      143560.68     -807619.46     -316.0149       0.36349647     0.059450414    29.515435      3374.0249    
       390   0.78           292.0724       142151.37     -807621.78     -315.37967      0.36349095     0.059331812    29.52932       3373.6752    
       400   0.8            292.01545      139328.83     -807626.61     -310.69061      0.36348529     0.058450578    29.559026      3373.2413    
       410   0.82           289.90157      131105.34     -807636.15     -301.05498      0.36347948     0.056638721    29.551681      3372.8325    
       420   0.84           277.73303      125878.34     -807641.89     -293.74678      0.36347353     0.055264703    29.517449      3372.5201    
       430   0.86           269.15257      121783.77     -807645.4      -289.27896      0.36346744     0.054425053    29.534296      3372.1618    
       440   0.88           290.614        124715.37     -807644.3      -293.59718      0.3634612      0.055238433    29.486751      3371.9278    
       450   0.9            278.58979      130671.11     -807634.77     -301.83489      0.36345482     0.056789302    29.520565      3371.6033    
       460   0.92           285.25062      138645.37     -807627.01     -310.77497      0.3634483      0.058472399    29.483351      3371.3706    
       470   0.94           267.96955      142752.98     -807619.62     -316.00543      0.36344163     0.059457603    29.554499      3370.9606    
       480   0.96           286.38669      141831.6      -807623.78     -314.59615      0.36343482     0.059193551    29.539372      3370.5894    
       490   0.98           288.50861      137129.19     -807629.67     -309.19404      0.36342786     0.058178218    29.501867      3370.3071    
       500   1              281.74565      130780.5      -807637.44     -300.65866      0.36342077     0.056573298    29.476887      3370.0794    
       510   1.02           275.24812      124103.57     -807644.08     -9382.2935      0.36341353     0.055170315    29.381714      3370.062     
       520   1.04           268.91144      122387.59     -807646.71     -9271.3746      0.36340614     0.054519191    29.439359      3369.9044    
       530   1.06           275.38269      125390.26     -807642.96     -9425.7592      0.36339862     0.055428179    29.42808       3369.7645    
       540   1.08           281.27055      132110.75     -807634.5      -9727.6449      0.36339095     0.057204625    29.442531      3369.5865    
       550   1.1            277.96857      139419.33     -807626.25     -9978.7789      0.36338313     0.058682712    29.431196      3369.4263    
       560   1.12           275.38873      142541.03     -807622.89     -10074.662      0.36337518     0.059247872    29.493123      3369.133     
       570   1.14           280.36727      142031.18     -807623.56     -10074.486      0.36336707     0.059248157    29.472391      3368.8796    
       580   1.16           282.07249      135219.5      -807630.11     -9875.3594      0.36335883     0.058078412    29.47793       3368.6124    
       590   1.18           283.8099       128554.17     -807639.8      -9571.6755      0.36335044     0.056293702    29.462645      3368.3724    
       600   1.2            271.76406      123938        -807645.67     -9327.776       0.36334191     0.054860549    29.391551      3368.265     
       610   1.22           263.84649      123036.06     -807645.19     -9306.272       0.36333324     0.054735382    29.388668      3368.1555    
       620   1.24           268.4277       126856.24     -807639.87     -9495.9588      0.36332442     0.055852391    29.429205      3367.9635    
       630   1.26           286.93388      131871.15     -807635.45     -9721.4346      0.36331546     0.057179982    29.447545      3367.7332    
       640   1.28           282.77773      139605.74     -807626.26     -9994.5778      0.36330636     0.058788041    29.45868       3367.4797    
       650   1.3            272.19583      142527.48     -807621.03     -10114.982      0.36329711     0.059497773    29.460335      3367.2207    
       660   1.32           270.59079      142176.77     -807622.1      -10072.197      0.36328772     0.059247634    29.4303        3367.0113    
       670   1.34           297.78402      133798.48     -807634.64     -9790.813       0.36327819     0.057593964    29.452845      3366.7595    
       680   1.36           268.03162      128563.16     -807638.5      -9529.6991      0.36326851     0.056059468    29.395492      3366.6018    
       690   1.38           268.80724      123422.23     -807644.31     -9345.9383      0.36325869     0.054979961    29.408273      3366.4176    
       700   1.4            264.43169      123908.51     -807643.73     -9341.8633      0.36324873     0.054957496    29.44686       3366.1658    
       710   1.42           286.86107      126651.67     -807642.84     -9468.3695      0.36323863     0.055703273    29.470492      3365.8733    
       720   1.44           286.95983      134773.88     -807633.37     -9769.846       0.36322838     0.057478509    29.480103      3365.5643    
       730   1.46           277.17076      139638.31     -807624.22     -10018.104      0.36321798     0.058940758    29.442737      3365.3131    
       740   1.48           284.07188      142659.67     -807622.36     -10102.56       0.36320745     0.059439373    29.482477      3364.998     
       750   1.5            294.49891      138526.36     -807628.6      -9947.2717      0.36319677     0.058527442    29.435643      3364.7538    
       760   1.52           289.22805      133457.57     -807633.37     -9766.7451      0.36318595     0.057466978    29.418497      3364.5328    
       770   1.54           274.12333      128349.69     -807638.28     -9538.6154      0.36317498     0.056126371    29.342251      3364.4225    
       780   1.56           270.99841      123282.49     -807644.72     -9314.3066      0.36316387     0.054808186    29.319888      3364.3395    
       790   1.58           275.91316      124287.21     -807644.8      -9326.1717      0.36315262     0.054879705    29.310386      3364.2638    
       800   1.6            286.19592      126797.99     -807640.37     -9515.2018      0.36314122     0.055993806    29.363782      3364.1045    
       810   1.62           287.39439      136568.7      -807629.13     -9875.0582      0.36312968     0.058113288    29.410466      3363.8746    
       820   1.64           282.96299      139967.26     -807624.37     -10004.468      0.363118       0.05887674     29.380195      3363.6843    
       830   1.66           291.11486      142860.05     -807622.53     -10090.641      0.36310618     0.059385804    29.410442      3363.4487    
       840   1.68           280.42156      138746.41     -807624.69     -9971.2602      0.36309421     0.058685156    29.418938      3363.1988    
       850   1.7            296.115        134260.88     -807632.33     -9787.9887      0.3630821      0.057608446    29.40596       3362.9645    
       860   1.72           283.10044      126426.11     -807640.98     -9447.1896      0.36306984     0.055604507    29.440497      3362.6816    
       870   1.74           277.48587      124292.06     -807644.21     -9308.7293      0.36305745     0.054791425    29.447969      3362.3876    
       880   1.76           284.60208      123759.68     -807643.83     -9347.9432      0.3630449      0.05502414     29.457923      3362.0797    
       890   1.78           293.62338      130120.18     -807637.21     -9594.3688      0.36303222     0.05647663     29.503849      3361.7122    
       900   1.8            295.05951      136010.37     -807630.28     -9818.1991      0.36301939     0.057796235    29.525271      3361.3183    
       910   1.82           294.93506      140979.61     -807624.3      -10001.394      0.36300642     0.058876742    29.423363      3361.0533    
       920   1.84           282.37346      142976.52     -807620.19     -10069.581      0.36299331     0.059280292    29.413058      3360.7995    
       930   1.86           298.42804      138858.47     -807625.87     -9955.0428      0.36298005     0.058608136    29.410599      3360.5469    
       940   1.88           293.94214      132911.77     -807633.02     -9699.3894      0.36296665     0.057105141    29.361879      3360.3519    
       950   1.9            294.02487      125514.52     -807642.13     -9403.1394      0.36295311     0.055363035    29.333234      3360.1886    
       960   1.92           284.20535      124734.39     -807642.88     -9329.3485      0.36293942     0.054930647    29.380008      3359.9655    
       970   1.94           289.61082      124329.63     -807642.52     -9363.0235      0.36292559     0.055131024    29.439867      3359.6693    
       980   1.96           298.11815      131326.61     -807635.71     -9615.6802      0.36291162     0.056620888    29.425679      3359.3888    
       990   1.98           299.30389      135159.78     -807629.93     -9804.2607      0.3628975      0.057733569    29.435449      3359.0958    
      1000   2              304.66334      142536.09     -807621.97     -10078.08       0.36288325     0.05934832     29.358237      3358.8903    
      1010   2.02           284.73062      141127.96     -807620.44     -313.82682      0.36286884     0.059140895    29.534503      3358.4829    
      1020   2.04           303.82654      139748.45     -807626.98     -309.86569      0.3628543      0.058396758    29.475406      3358.1428    
      1030   2.06           297.59515      129951.15     -807635.5      -300.65713      0.36283961     0.056663622    29.4952        3357.7808    
      1040   2.08           291.71554      127721.1      -807639.64     -295.76249      0.36282478     0.055743427    29.527944      3357.3834    
      1050   2.1            275.93204      123117.26     -807643.54     -289.94006      0.3628098      0.054648309    29.548339      3356.9652    
      1060   2.12           281.84468      127416.47     -807640.5      -293.99106      0.36279469     0.055414157    29.523706      3356.5748    
      1070   2.14           291.69915      129508.17     -807636.91     -299.43812      0.36277943     0.056443242    29.525514      3356.1835    
      1080   2.16           298.95497      138441.06     -807627.06     -310.55879      0.36276402     0.058541944    29.537477      3355.7805    
      1090   2.18           281.00982      140750.17     -807622.47     -313.0902       0.36274848     0.059021656    29.499782      3355.418     
      1100   2.2            291.57724      142165.02     -807624.17     -313.16506      0.36273279     0.059038322    29.476292      3355.0802    
      1110   2.22           285.33681      135692.22     -807629.73     -307.16659      0.36271695     0.057910011    29.47486       3354.7439    
      1120   2.24           284.77935      131622.31     -807635.09     -301.96467      0.36270098     0.056931801    29.503192      3354.3787    
      1130   2.26           279.52552      124646.98     -807642.56     -294.01394      0.36268486     0.055435251    29.473537      3354.0438    
      1140   2.28           273.32435      124899.39     -807644.8      -290.99757      0.3626686      0.054868985    29.504445      3353.6781    
      1150   2.3            284.02344      125607        -807643.54     -293.95905      0.36265219     0.055429893    29.561889      3353.2562    
      1160   2.32           280.24821      131986.27     -807633.84     -303.28068      0.36263564     0.05719022     29.591251      3352.8071    
      1170   2.34           284.96935      137143.9      -807629.1      -308.79018      0.36261895     0.058231838    29.559344      3352.3908    
      1180   2.36           280.18834      140055.72     -807625.11     -312.19423      0.36260212     0.058876509    29.530514      3352.0034    
      1190   2.38           278.99986      140299.78     -807625.38     -311.82099      0.36258514     0.058808874    29.55356       3351.595     
      1200   2.4            283.69078      135487.43     -807630.52     -307.42202      0.36256802     0.057981973    29.563891      3351.1779    
      1210   2.42           285.57309      130150.46     -807638.03     -300.14286      0.36255076     0.056611767    29.566131      3350.7601    
      1220   2.44           271.90923      124490.9      -807644.62     -291.64679      0.36253335     0.055011913    29.552657      3350.3561    
      1230   2.46           266.08046      125610.8      -807643        -292.42773      0.3625158      0.055161888    29.512436      3349.9901    
      1240   2.48           277.71246      125833.59     -807641.39     -295.82897      0.36249811     0.055806202    29.497807      3349.638     
      1250   2.5            278.58823      134357.29     -807633.18     -304.1077       0.36248028     0.057370754    29.505296      3349.2793    
      1260   2.52           284.54037      136110.24     -807630.91     -307.36113      0.3624623      0.057987397    29.489727      3348.9349    
      1270   2.54           273.78023      141828.08     -807623.11     -313.53957      0.36244418     0.059155993    29.545053      3348.5413    
      1280   2.56           283.36038      137952.57     -807626.79     -311.34552      0.36242592     0.058744997    29.511292      3348.1783    
      1290   2.58           280.93928      136263.08     -807630.49     -307.1199       0.36240751     0.057950646    29.551291      3347.7807    
      1300   2.6            275.88833      127338.92     -807639.87     -297.1724       0.36238896     0.056076518    29.469255      3347.4555    
      1310   2.62           271.61984      127031.06     -807641.34     -294.94471      0.36237027     0.055659022    29.517285      3347.0884    
      1320   2.64           262.85697      123727.76     -807642.12     -293.00487      0.36235143     0.055295829    29.551742      3346.6923    
      1330   2.66           276.26316      129181.88     -807639.17     -297.69733      0.36233245     0.056184332    29.528382      3346.3169    
      1340   2.68           279.3481       130951.72     -807635.37     -301.97637      0.36231333     0.056994922    29.505028      3345.9618    
      1350   2.7            287.17948      138657.42     -807627.24     -311.05443      0.36229407     0.058711434    29.528041      3345.5876    
      1360   2.72           279.04123      138795.68     -807624.68     -312.52944      0.36227466     0.058993002    29.574034      3345.1757    
      1370   2.74           280.35215      139580.75     -807626.72     -310.45419      0.36225511     0.05860444     29.498992      3344.8269    
      1380   2.76           281.74353      132147.53     -807634.91     -302.42715      0.36223542     0.057092279    29.483521      3344.4909    
      1390   2.78           282.30328      129022.02     -807638.74     -298.49711      0.36221558     0.056353451    29.511268      3344.1322    
      1400   2.8            275.9107       124971.72     -807642.36     -293.85447      0.3621956      0.055480025    29.520273      3343.7666    
      1410   2.82           269.89327      125587.95     -807642.48     -292.69836      0.36217548     0.05526482     29.465682      3343.4451    
      1420   2.84           278.72351      128987.99     -807639.15     -297.17574      0.36215522     0.05611334     29.503071      3343.0937    
      1430   2.86           281.72155      134427.64     -807631.8      -304.84992      0.36213481     0.05756564     29.499965      3342.7448    
      1440   2.88           286.12235      139617        -807625.32     -311.70433      0.36211426     0.058863316    29.535667      3342.368     
      1450   2.9            279.54269      139276.59     -807624.92     -310.99719      0.36209357     0.058733133    29.537513      3341.9903    
      1460   2.92           292.30553      138485.55     -807628.79     -308.6733       0.36207273     0.058297612    29.529515      3341.6193    
      1470   2.94           286.94902      132084.54     -807633.43     -303.17681      0.36205176     0.057262835    29.531398      3341.2473    
      1480   2.96           286.75664      128857.55     -807637.98     -298.30948      0.36203064     0.056346799    29.538599      3340.8703    
      1490   2.98           270.03488      124401.88     -807642.65     -291.14242      0.36200937     0.054996264    29.544493      3340.4893    
      1500   3              273.91819      127568.07     -807640.96     -293.12246      0.36198796     0.055373564    29.537271      3340.1144    
      1510   3.02           278.48723      129138.79     -807635.44     -9575.6246      0.36196642     0.056532264    29.491447      3339.7742    
      1520   3.04           294.75529      136268.07     -807629.63     -9827.1874      0.36194472     0.058020909    29.485204      3339.4387    
      1530   3.06           289.79852      137766.61     -807627.16     -9880.0427      0.36192289     0.058336492    29.457379      3339.1237    
      1540   3.08           288.32858      141011.19     -807625.03     -9934.6511      0.36190091     0.058662489    29.450532      3338.8135    
      1550   3.1            288.56738      136823.84     -807627.46     -9856.3311      0.36187879     0.05820358     29.448867      3338.5041    
      1560   3.12           296.9381       133303.32     -807633.2      -9704.3521      0.36185653     0.057309639    29.378756      3338.2455    
      1570   3.14           286.46489      127120.41     -807640.63     -9417.0957      0.36183412     0.055616673    29.355259      3338.0029    
      1580   3.16           272.59501      127081.52     -807640.87     -9342.7239      0.36181157     0.055180877    29.393864      3337.7313    
      1590   3.18           280.15951      126330.54     -807639.22     -9429.6782      0.36178888     0.055697948    29.430157      3337.4327    
      1600   3.2            290.91163      132099.91     -807633.8      -9649.3842      0.36176605     0.056999275    29.455573      3337.1157    
      1610   3.22           295.18273      134769.26     -807631.39     -9746.7505      0.36174307     0.057578078    29.444676      3336.806     
      1620   3.24           286.24368      140579.93     -807624.84     -9914.6459      0.36171995     0.058573649    29.453137      3336.49      
      1630   3.26           284.39489      139424.36     -807623.23     -9961.3396      0.36169669     0.058853291    29.448854      3336.1767    
      1640   3.28           295.8989       136545.03     -807628.03     -9858.6952      0.36167329     0.058250619    29.403933      3335.8943    
      1650   3.3            289.31366      130357.87     -807636.06     -9575.6629      0.36164974     0.056581992    29.421055      3335.5993    
      1660   3.32           288.86041      127563.61     -807641.4      -9404.8076      0.36162605     0.055576059    29.39874       3335.3191    
      1670   3.34           274.32423      124910.89     -807640.42     -9380.6476      0.36160222     0.055436943    29.427743      3335.0184    
      1680   3.36           271.12882      127629.97     -807638.23     -9444.8304      0.36157824     0.055819946    29.408589      3334.7302    
      1690   3.38           283.76723      130489.4      -807636.59     -9565.403       0.36155413     0.056536314    29.406487      3334.4428    
      1700   3.4            281.35172      136306.61     -807628.77     -9814.454       0.36152987     0.058012222    29.469117      3334.1129    
      1710   3.42           284.55048      139968.98     -807624.94     -9964.4513      0.36150546     0.058902817    29.492784      3333.7674    
      1720   3.44           272.21689      139510.37     -807624.46     -9934.362       0.36148092     0.058728938    29.496277      3333.4196    
      1730   3.46           283.08154      135931.02     -807631.72     -9758.0326      0.36145623     0.057690472    29.513301      3333.0608    
      1740   3.48           283.70918      129932.37     -807638.28     -9560.3871      0.3614314      0.056525855    29.466551      3332.7326    
      1750   3.5            273.55534      126541.92     -807640.33     -9453.8397      0.36140643     0.055899755    29.440541      3332.4211    
      1760   3.52           267.03948      124405.94     -807643.1      -9341.6475      0.36138131     0.055240211    29.468304      3332.0914    
      1770   3.54           275.27795      127561.33     -807642.2      -9409.1906      0.36135605     0.055643504    29.468631      3331.7613    
      1780   3.56           279.49827      130926.16     -807636.68     -9611.0267      0.36133065     0.056841106    29.443053      3331.4475    
      1790   3.58           277.64474      138539.14     -807627.26     -9907.0162      0.36130511     0.058595776    29.474279      3331.1136    
      1800   3.6            266.34362      138274.54     -807625.62     -9911.9955      0.36127942     0.058629394    29.449745      3330.7951    
      1810   3.62           280.78425      139503.18     -807628.41     -9883.8144      0.3612536      0.058466883    29.444676      3330.4795    
      1820   3.64           271.20416      133400.43     -807631.97     -9731.5043      0.36122763     0.057570044    29.406119      3330.1877    
      1830   3.66           284.85137      131352.22     -807637.09     -9622.4585      0.36120151     0.056929062    29.397545      3329.9007    
      1840   3.68           268.14539      124188.43     -807643.19     -9355.1445      0.36117526     0.055351583    29.442169      3329.5856    
      1850   3.7            258.46055      127256.54     -807641.99     -9344.2639      0.36114886     0.055291247    29.411144      3329.2892    
      1860   3.72           281.32433      125179.72     -807642.9      -9418.9507      0.36112232     0.055737275    29.438265      3328.9759    
      1870   3.74           275.96661      133955        -807631.78     -9745.2697      0.36109564     0.057672551    29.454258      3328.6525    
      1880   3.76           279.1803       135322.36     -807630.91     -9789.1467      0.36106881     0.057936519    29.502379      3328.3001    
      1890   3.78           275.00883      140514.65     -807626.39     -9906.4514      0.36104184     0.05863516     29.503109      3327.9474    
      1900   3.8            273.85508      136750.12     -807627.54     -9865.3033      0.36101474     0.058395994    29.503401      3327.5947    
      1910   3.82           280.37524      135299.54     -807630.73     -9785.023       0.36098748     0.057925161    29.488247      3327.2511    
      1920   3.84           274.46436      128536.37     -807639.8      -9463.9226      0.36096009     0.056028569    29.5043        3326.8981    
      1930   3.86           274.4549       126573.07     -807643.78     -9327.5708      0.36093255     0.055225549    29.487858      3326.5548    
      1940   3.88           263.36069      125235.25     -807640.95     -9365.8094      0.36090487     0.0554562      29.449636      3326.2338    
      1950   3.9            289.0985       128637.37     -807639.79     -9510.6989      0.36087705     0.056318451    29.435463      3325.9209    
      1960   3.92           282.55427      132830.58     -807634.32     -9650.9177      0.36084909     0.057153199    29.417175      3325.6182    
      1970   3.94           290.73855      136969.88     -807630.14     -9816.1406      0.36082098     0.058136185    29.435493      3325.3047    
      1980   3.96           275.85966      140772.88     -807623.93     -9942.0855      0.36079273     0.058886705    29.434531      3324.9914    
      1990   3.98           282.25152      137519.22     -807627.32     -9856.3934      0.36076434     0.058383747    29.460579      3324.6631    
      2000   4              288.14697      133773.51     -807634.02     -9659.8793      0.36073581     0.057224234    29.388862      3324.3752    
      2010   4.02           281.43286      127466.97     -807640.52     -294.24359      0.36070713     0.055782735    29.507255      3324.0203    
      2020   4.04           283.64575      127195        -807640.94     -293.88369      0.36067831     0.055718956    29.534158      3323.6506    
      2030   4.06           273.25279      124796.35     -807640.99     -292.34999      0.36064935     0.055432624    29.494716      3323.303     
      2040   4.08           286.89898      131439.81     -807637.5      -297.48449      0.36062025     0.056410732    29.490743      3322.9577    
      2050   4.1            286.49023      132519.27     -807633.23     -301.70472      0.36059101     0.057215636    29.450738      3322.6344    
      2060   4.12           282.45269      140855.52     -807624.18     -309.96421      0.36056162     0.058786767    29.438126      3322.3179    
      2070   4.14           273.77352      138310.37     -807624.25     -308.69525      0.36053209     0.058550895    29.43352       3322.0038    
      2080   4.16           289.20994      138531.01     -807628.56     -306.25927      0.36050242     0.058093638    29.459452      3321.6752    
      2090   4.18           286.54834      130589.91     -807635.44     -299.01944      0.36047261     0.056725021    29.418474      3321.3687    
      2100   4.2            287.62524      129231.17     -807637.66     -296.7402       0.36044265     0.056297321    29.472871      3321.0327    
      2110   4.22           279.08951      124054.03     -807642.59     -290.67687      0.36041256     0.055151596    29.494181      3320.6853    
      2120   4.24           282.82748      127366.75     -807640.78     -292.8441       0.36038232     0.055567458    29.402864      3320.3865    
      2130   4.26           290.20072      129124.69     -807638.28     -296.47985      0.36035193     0.056262087    29.439391      3320.068     
      2140   4.28           290.38211      136076.3      -807629.02     -305.70927      0.36032141     0.058018441    29.511689      3319.7112    
      2150   4.3            283.57914      137936.79     -807626.15     -307.74645      0.36029075     0.058410035    29.558625      3319.3301    
      2160   4.32           286.33484      139557.83     -807625.98     -308.20175      0.36025994     0.058501453    29.489795      3318.9852    
      2170   4.34           289.47727      136269.74     -807629.25     -305.5158       0.36022899     0.057996601    29.526581      3318.6213    
      2180   4.36           287.80492      131460.35     -807633.73     -300.85731      0.36019789     0.057117201    29.489959      3318.2764    
      2190   4.38           283.34004      127816.59     -807639.35     -294.54191      0.36016666     0.055923083    29.483686      3317.9349    
      2200   4.4            271.33359      124995.94     -807642.53     -289.78063      0.36013528     0.055023878    29.455791      3317.6076    
      2210   4.42           277.99783      127788.17     -807639.74     -293.59437      0.36010377     0.055752915    29.45324       3317.2816    
      2220   4.44           288.05241      130015.33     -807636.65     -298.30156      0.36007211     0.05665178     29.479055      3316.9423    
      2230   4.46           297.78879      136052.98     -807632.15     -304.25136      0.3600403      0.057786838    29.460337      3316.6125    
      2240   4.48           277.94206      137515.83     -807628.16     -305.78851      0.36000836     0.058083944    29.423329      3316.3012    
      2250   4.5            274.24847      140100.09     -807625.79     -307.91766      0.35997627     0.058493584    29.441945      3315.9803    
      2260   4.52           282.96326      134722.14     -807630.46     -304.89679      0.35994404     0.057924912    29.457864      3315.6513    
      2270   4.54           278.75511      131206.87     -807636.09     -298.99516      0.35991167     0.056808816    29.451374      3315.3255    
      2280   4.56           267.21464      125902.93     -807642.49     -291.40144      0.35987916     0.055371019    29.455215      3314.9976    
      2290   4.58           262.11024      126988.32     -807641.08     -292.39846      0.35984651     0.055565509    29.433073      3314.6806    
      2300   4.6            270.58364      126578.35     -807640.55     -294.48652      0.35981371     0.055967412    29.470269      3314.3451    
      2310   4.62           283.60845      131780.11     -807636.95     -300.0555       0.35978077     0.057031022    29.49389       3313.9981    
      2320   4.64           270.24513      134418.08     -807632.64     -302.75038      0.35974769     0.057548525    29.531045      3313.6332    
      2330   4.66           272.18919      139755.25     -807627.56     -308.14008      0.35971447     0.058578439    29.52803       3313.27      
      2340   4.68           267.33253      137254.21     -807627.76     -307.38393      0.35968111     0.058440113    29.529072      3312.9065    
      2350   4.7            272.80487      134337.39     -807632.92     -302.8938       0.3596476      0.057591809    29.559943      3312.5285    
      2360   4.72           269.24606      129122.76     -807640.23     -295.08173      0.35961396     0.056111684    29.584331      3312.1393    
      2370   4.74           262.8795       127041.03     -807640.74     -293.57898      0.35958017     0.055831171    29.592855      3311.7465    
      2380   4.76           262.71147      125285.3      -807642.34     -291.94969      0.35954624     0.055526563    29.523105      3311.3869    
      2390   4.78           273.73865      128186.69     -807641.53     -294.13245      0.35951216     0.055947008    29.573271      3311.0041    
      2400   4.8            277.22616      130365.24     -807638.09     -297.99761      0.35947795     0.056687597    29.576961      3310.6199    
      2410   4.82           275.73161      136376.51     -807630.83     -304.87633      0.35944359     0.058001667    29.536314      3310.2549    
      2420   4.84           271.42621      138112.29     -807626.79     -308.22841      0.35940909     0.058645017    29.51773       3309.8987    
      2430   4.86           278.82256      137091.26     -807630.21     -305.60275      0.35937446     0.058151052    29.457627      3309.5704    
      2440   4.88           269.33396      133710.22     -807633.77     -300.50759      0.35933967     0.057187064    29.420735      3309.2591    
      2450   4.9            274.0422       129812.13     -807638.03     -296.71491      0.35930475     0.056470799    29.481058      3308.9198    
      2460   4.92           270.79964      126125.13     -807640.86     -293.19552      0.35926969     0.055806434    29.486176      3308.5782    
      2470   4.94           271.16847      125539.94     -807642.82     -291.05269      0.35923448     0.055404001    29.458918      3308.249     
      2480   4.96           278.41102      127863.71     -807641.09     -293.59014      0.35919913     0.055892523    29.458137      3307.9201    
      2490   4.98           282.74915      133126.06     -807634.18     -300.86961      0.35916364     0.057284018    29.477355      3307.5825    
      2500   5              281.76239      137062.66     -807628.6      -306.15554      0.35912801     0.058296215    29.56681       3307.2047    
[...]
     98740   197.48         274.6996       130574.28     -807635.66     -9585.5769      0.36236891     0.056528161    30.377889      43.297001    
     98750   197.5          288.39849      132982.74     -807635.17     -9662.7722      0.36238762     0.056980458    30.395927      42.953189    
     98760   197.52         284.71136      132290.32     -807634.1      -9686.1686      0.36240618     0.057115499    30.429854      42.609375    
     98770   197.54         283.00843      135562.6      -807631.91     -9750.1724      0.36242459     0.057489982    30.398321      42.265569    
     98780   197.56         274.67308      133070.87     -807632.04     -9713.4587      0.36244287     0.057270619    30.347775      41.921772    
     98790   197.58         277.76546      134690.57     -807631.57     -9741.7738      0.362461       0.057434692    30.298757      41.577985    
     98800   197.6          286.34702      131022.08     -807635.32     -9663.9841      0.36247899     0.056973239    30.322171      41.234197    
     98810   197.62         282.07748      132136.25     -807634.22     -9679.0702      0.36249683     0.057059369    30.304997      40.890414    
     98820   197.64         279.18292      130537.53     -807635.69     -9622.1473      0.36251453     0.056721031    30.360362      40.546627    
     98830   197.66         275.14883      131768.15     -807634.82     -9631.8682      0.36253209     0.056775584    30.412745      40.202837    
     98840   197.68         283.73188      131489.21     -807635.31     -9657.193       0.36254951     0.056922128    30.431051      39.859047    
     98850   197.7          276.1851       132978.98     -807632.92     -9702.4078      0.36256678     0.057185912    30.45395       39.515257    
     98860   197.72         283.59099      134360.6      -807632.44     -9750.7248      0.36258391     0.057467977    30.4207        39.171474    
     98870   197.74         278.26243      133101.06     -807632.71     -9721.6797      0.3626009      0.057294109    30.439623      38.827692    
     98880   197.76         276.59997      134427.56     -807632.08     -9733.1495      0.36261774     0.057359041    30.415013      38.483916    
     98890   197.78         287.36495      131299.59     -807635.14     -9687.5608      0.36263445     0.05708775     30.428897      38.140142    
     98900   197.8          282.31429      133053.29     -807633.94     -9701.5792      0.362651       0.057167749    30.429369      37.796371    
     98910   197.82         278.83739      130329.46     -807636.28     -9615.6545      0.36266742     0.056658862    30.3595        37.452611    
     98920   197.84         279.78427      133556.94     -807634.76     -9666.389       0.36268369     0.056955252    30.446341      37.108843    
     98930   197.86         279.9703       130770.74     -807635.12     -9662.2325      0.36269982     0.05692823     30.451742      36.765078    
     98940   197.88         282.54471      134168.56     -807632.23     -9763.6996      0.36271581     0.057523522    30.459516      36.421316    
     98950   197.9          276.28469      131977.34     -807633.41     -9702.9566      0.36273165     0.057163153    30.392843      36.077564    
     98960   197.92         285.53447      134664.9      -807632.51     -9771.2583      0.36274735     0.057563048    30.311213      35.733824    
     98970   197.94         275.01231      132621.49     -807632.84     -9719.2532      0.36276291     0.057254228    30.373707      35.39008     
     98980   197.96         277.65095      134735.43     -807632.62     -9737.2372      0.36277832     0.057357731    30.461285      35.046329    
     98990   197.98         285.47373      130240.51     -807637.69     -9613.631       0.36279359     0.056627238    30.471443      34.70258     
     99000   198            274.4893       132840.34     -807634.61     -9661.7332      0.36280872     0.056908202    30.501484      34.358832    
     99010   198.02         281.3687       129989.9      -807636.55     -301.15169      0.3628237      0.056759319    30.468253      34.01509     
     99020   198.04         279.22376      133049.2      -807633.58     -303.76375      0.36283855     0.057249283    30.534229      33.671344    
     99030   198.06         282.28137      131589.94     -807634.79     -303.14849      0.36285324     0.057131011    30.530498      33.327601    
     99040   198.08         274.40239      135157.15     -807631.59     -305.1908       0.3628678      0.057513596    30.526046      32.983863    
     99050   198.1          278.45833      133688.79     -807632.09     -305.40266      0.36288221     0.057551236    30.550686      32.640125    
     99060   198.12         277.95031      133962.58     -807631.94     -305.444        0.36289648     0.057556763    30.520866      32.296393    
     99070   198.14         281.49739      131568.91     -807636.1      -301.8329       0.36291061     0.056874087    30.499834      31.952667    
     99080   198.16         282.876        131163.7      -807636.45     -301.68292      0.36292459     0.056843636    30.523339      31.608942    
     99090   198.18         279.17058      131012.36     -807635.44     -302.26769      0.36293843     0.056951647    30.540286      31.265218    
     99100   198.2          282.85351      131432.12     -807635.73     -302.52301      0.36295213     0.056997602    30.540331      30.921498    
     99110   198.22         277.67013      132387.88     -807635.36     -302.18358      0.36296568     0.056931526    30.521608      30.577783    
     99120   198.24         272.82181      133366.55     -807633.1      -303.81659      0.36297909     0.057237071    30.479752      30.234075    
     99130   198.26         273.97384      133982.18     -807631.26     -305.90768      0.36299236     0.057628911    30.499685      29.890368    
     99140   198.28         278.72832      133807.06     -807632.97     -304.86918      0.36300548     0.057431196    30.480213      29.546666    
     99150   198.3          273.80085      133957.99     -807632.87     -304.25472      0.36301846     0.057313395    30.452759      29.20297     
     99160   198.32         278.74398      131678.48     -807635.6      -302.29283      0.3630313      0.056941813    30.482445      28.859274    
     99170   198.34         287.9662       131392.87     -807635.73     -303.38617      0.36304399     0.057145764    30.511774      28.515579    
     99180   198.36         275.41493      130070.1      -807635.94     -301.50669      0.36305655     0.056789781    30.542676      28.171884    
     99190   198.38         267.39728      132927.42     -807634.19     -302.03012      0.36306895     0.056886427    30.50038       27.828197    
     99200   198.4          280.5216       130416.02     -807636.18     -301.97693      0.36308122     0.056874488    30.530439      27.484509    
     99210   198.42         278.6272       133949        -807632.17     -305.59576      0.36309334     0.057554139    30.567272      27.140822    
     99220   198.44         278.81253      133233.8      -807632.63     -305.19753      0.36310532     0.057477242    30.531286      26.797142    
     99230   198.46         281.12566      135079.72     -807632.37     -305.6312       0.36311715     0.057557038    30.560323      26.453462    
     99240   198.48         284.5555       132459.1      -807634.52     -303.94374      0.36312885     0.05723741     30.546273      26.109787    
     99250   198.5          283.38587      132990.94     -807632.99     -305.1946       0.3631404      0.057471138    30.541328      25.766115    
     99260   198.52         277.63781      131362.53     -807634.98     -302.39728      0.3631518      0.056942587    30.560212      25.422445    
     99270   198.54         280.89443      131249.72     -807636.31     -301.34014      0.36316306     0.056741764    30.544331      25.07878     
     99280   198.56         270.31793      131320.09     -807634.41     -301.6952       0.36317418     0.056806882    30.545393      24.735118    
     99290   198.58         281.15589      132550.95     -807633.95     -303.56998      0.36318516     0.057158161    30.549936      24.391458    
     99300   198.6          280.7267       133472.43     -807632.34     -304.97239      0.36319599     0.057420503    30.568387      24.047801    
     99310   198.62         287.02528      133504.98     -807633.68     -304.3873       0.36320668     0.057308655    30.535069      23.704149    
     99320   198.64         289.88349      134384.59     -807632.91     -305.39059      0.36321723     0.057495881    30.440373      23.360508    
     99330   198.66         272.85221      134053.66     -807630.45     -305.37515      0.36322763     0.057491327    30.443299      23.01687     
     99340   198.68         281.00516      133302.1      -807632.53     -304.24685      0.36323789     0.05727729     30.486054      22.673231    
     99350   198.7          286.08877      130363.36     -807636.46     -300.89883      0.36324801     0.056645417    30.530563      22.329593    
     99360   198.72         284.86405      131776.92     -807635.1      -301.89664      0.36325798     0.056831697    30.496157      21.98596     
     99370   198.74         279.32375      131838.11     -807633.78     -302.40974      0.36326781     0.056926749    30.485742      21.642331    
     99380   198.76         289.79098      133006.62     -807633.62     -303.85195      0.3632775      0.05719671     30.506021      21.298704    
     99390   198.78         283.66566      133005.72     -807632.95     -303.59252      0.36328704     0.057146375    30.508822      20.95508     
     99400   198.8          288.81962      134597.05     -807631.86     -305.32537      0.36329644     0.057471068    30.516079      20.611458    
     99410   198.82         285.30908      135035.72     -807630.47     -306.18468      0.3633057      0.057631346    30.522239      20.26784     
     99420   198.84         281.19206      134859.52     -807631        -304.96805      0.36331481     0.057400908    30.51615       19.924225    
     99430   198.86         292.44447      132508.29     -807635.48     -301.95569      0.36332378     0.05683252     30.537153      19.580611    
     99440   198.88         279.54775      132147.18     -807633.74     -301.79808      0.36333261     0.056801475    30.537211      19.237002    
     99450   198.9          290.00204      130938.03     -807634.43     -302.61949      0.36334129     0.056954712    30.553913      18.893394    
     99460   198.92         288.7632       132177.06     -807634.39     -302.40032      0.36334983     0.056912125    30.578944      18.549788    
     99470   198.94         291.07769      132959.28     -807634.63     -302.52188      0.36335823     0.056933687    30.543806      18.206188    
     99480   198.96         281.43945      134496.19     -807631.05     -304.82723      0.36336648     0.057366243    30.58733       17.862588    
     99490   198.98         290.84575      134352.28     -807630.93     -306.37255      0.3633746      0.057655775    30.5724        17.518993    
     99500   199            280.04372      134185.43     -807629.98     -305.84101      0.36338256     0.057554482    30.45323       17.175407    
     99510   199.02         288.30531      132544.31     -807634.4      -9686.0686      0.36339039     0.056960218    30.398622      16.831827    
     99520   199.04         279.76002      133184.3      -807632.23     -9720.695       0.36339807     0.057162635    30.415205      16.488249    
     99530   199.06         278.22369      132739.84     -807632.81     -9704.7796      0.3634056      0.057067861    30.361023      16.144677    
     99540   199.08         283.79128      131694.47     -807634.95     -9666.4736      0.363413       0.05684145     30.417382      15.801106    
     99550   199.1          283.47564      131333.59     -807635.81     -9644.6691      0.36342025     0.056712103    30.410592      15.457537    
     99560   199.12         282.94925      132453.32     -807633.47     -9728.0624      0.36342736     0.057201349    30.445168      15.11397     
     99570   199.14         283.02582      133807.21     -807630.95     -9819.1567      0.36343432     0.057735881    30.464342      14.770404    
     99580   199.16         282.87585      133518.16     -807632.98     -9763.5469      0.36344114     0.057407821    30.452582      14.426843    
     99590   199.18         273.82511      134371.97     -807632.42     -9750.6357      0.36344782     0.057330853    30.426632      14.083286    
     99600   199.2          277.9727       133142.83     -807633.66     -9740.1597      0.36345435     0.057268228    30.426018      13.739731    
     99610   199.22         273.2084       133026.83     -807632.88     -9750.0686      0.36346074     0.05732548     30.400513      13.396181    
     99620   199.24         276.51644      130805.68     -807636.95     -9641.9943      0.36346699     0.056689083    30.419159      13.052633    
     99630   199.26         270.02364      131930.24     -807636.04     -9646.6689      0.3634731      0.056715615    30.463233      12.709086    
     99640   199.28         279.34563      130829.74     -807636.31     -9686.4638      0.36347906     0.056948646    30.439737      12.365543    
     99650   199.3          280.13791      133105.05     -807633.68     -9775.8644      0.36348487     0.057473331    30.460097      12.022002    
     99660   199.32         268.65504      132621.59     -807633.21     -9743.2284      0.36349055     0.057280566    30.484475      11.678464    
     99670   199.34         273.73063      134438.2      -807632.88     -9777.4594      0.36349608     0.057480936    30.448657      11.33493     
     99680   199.36         267.52473      133631.41     -807632.21     -9773.1875      0.36350147     0.05745497     30.389918      10.991401    
     99690   199.38         274.69214      134135.94     -807632.51     -9797.0779      0.36350671     0.057594587    30.43286       10.647873    
     99700   199.4          261.71418      131911.31     -807634.2      -9684.6831      0.36351181     0.056933047    30.425985      10.304349    
     99710   199.42         273.55516      132141.06     -807636.2      -9670.6122      0.36351677     0.056849554    30.43156       9.9608274    
     99720   199.44         274.05775      130258.3      -807636.19     -9674.9157      0.36352158     0.056874099    30.460939      9.6173079    
     99730   199.46         271.206        132708.46     -807633.95     -9730.763       0.36352625     0.057201663    30.456967      9.2737916    
     99740   199.48         274.6078       131790.87     -807634.9      -9714.2585      0.36353078     0.057103932    30.42563       8.9302793    
     99750   199.5          270.21426      134379.42     -807632.65     -9764.1982      0.36353516     0.057396803    30.415437      8.5867702    
     99760   199.52         277.14776      133874.3      -807632.88     -9788.2882      0.3635394      0.05753774     30.482379      8.2432623    
     99770   199.54         269.18162      135039.87     -807630.86     -9811.8139      0.3635435      0.057675379    30.48847       7.8997573    
     99780   199.56         277.9065       132660.62     -807634.79     -9723.1064      0.36354745     0.057153321    30.444128      7.5562566    
     99790   199.58         278.34794      132412.3      -807635.88     -9685.9914      0.36355126     0.056934559    30.448427      7.2127587    
     99800   199.6          274.7643       131434.19     -807635.05     -9692.7006      0.36355493     0.056973421    30.410815      6.8692647    
     99810   199.62         281.06944      131283.3      -807635.89     -9689.6383      0.36355845     0.056954869    30.459121      6.5257726    
     99820   199.64         273.71029      131442.53     -807634.9      -9685.8541      0.36356183     0.056932096    30.456925      6.1822836    
     99830   199.66         291.42428      132093.93     -807636.08     -9722.0315      0.36356507     0.057144234    30.476431      5.8387973    
     99840   199.68         271.39133      134346.86     -807630.81     -9797.1485      0.36356816     0.057585267    30.46021       5.4953143    
     99850   199.7          283.80625      134138.25     -807632.15     -9805.7142      0.36357111     0.057635146    30.408341      5.1518352    
     99860   199.72         277.754        133491        -807632.31     -9769.2062      0.36357392     0.057420119    30.431355      4.8083587    
     99870   199.74         280.1982       133183.77     -807633.68     -9730.3671      0.36357658     0.057191417    30.480253      4.4648845    
     99880   199.76         280.45995      131711.62     -807634.24     -9710.3999      0.3635791      0.057073662    30.425962      4.1214141    
     99890   199.78         272.55582      131978.33     -807632.93     -9711.6838      0.36358148     0.057080835    30.421043      3.7779467    
     99900   199.8          279.63319      131804.95     -807635.62     -9651.7315      0.36358371     0.056728115    30.446478      3.434482     
     99910   199.82         279.39387      132257.58     -807634.65     -9677.5338      0.3635858      0.056879441    30.422251      3.0910205    
     99920   199.84         290.70678      133205.92     -807633.56     -9760.1699      0.36358775     0.057364825    30.367111      2.7475625    
     99930   199.86         280.06212      134157.79     -807630.87     -9795.9215      0.36358955     0.057574668    30.371111      2.4041072    
     99940   199.88         282.06366      135203.39     -807631.55     -9779.0173      0.36359121     0.057475052    30.371021      2.0606548    
     99950   199.9          277.26815      133418.42     -807632.19     -9735.5798      0.36359273     0.057219515    30.368689      1.7172053    
     99960   199.92         285.40668      133514.99     -807632.16     -9770.934       0.3635941      0.057427088    30.434091      1.3737583    
     99970   199.94         280.23011      132131.51     -807633.91     -9692.0539      0.36359533     0.05696329     30.450693      1.0303142    
     99980   199.96         286.24978      132644.43     -807634.75     -9687.5852      0.36359641     0.056936856    30.446446      0.68687313   
     99990   199.98         290.45494      130936.36     -807636.74     -9644.1565      0.36359736     0.056681466    30.429648      0.34343508   
    100000   200            282.05505      133541.14     -807631.94     -9759.2031      0.36359816     0.057357501    30.460397      0            
Loop time of 3434.34 on 32 procs for 100000 steps with 1080 atoms

Performance: 5.032 ns/day, 4.770 hours/ns, 29.118 timesteps/s, 31.447 katom-step/s
61.6% CPU use with 32 MPI tasks x 1 OpenMP threads

MPI task timing breakdown:
Section |  min time  |  avg time  |  max time  |%varavg| %total
---------------------------------------------------------------
Pair    | 2516.8     | 2802.5     | 3130.7     | 270.7 | 81.60
Neigh   | 0.0012397  | 0.0013387  | 0.0015268  |   0.2 |  0.00
Comm    | 223.52     | 551.36     | 836.9      | 610.1 | 16.05
Output  | 2.9973     | 3.0475     | 3.083      |   0.7 |  0.09
Modify  | 70.067     | 70.678     | 71.319     |   4.7 |  2.06
Other   |            | 6.746      |            |       |  0.20

Nlocal:          33.75 ave          40 max          22 min
Histogram: 1 0 1 2 3 5 5 4 7 4
Nghost:        1038.59 ave        1058 max        1017 min
Histogram: 2 1 2 4 4 6 5 4 1 3
Neighs:              0 ave           0 max           0 min
Histogram: 32 0 0 0 0 0 0 0 0 0
FullNghs:      5358.12 ave        6364 max        3465 min
Histogram: 1 0 1 2 5 5 4 4 6 4

Total # of neighbors = 171460
Ave neighs/atom = 158.75926
Neighbor list builds = 3
Dangerous builds = 0

Total wall time: 1:00:48
