
units		metal
atom_style	atomic

read_data ${STRUCTURE}.data
read_data BaTiO3-sc333.data
Reading data file ...
  orthogonal box = (0 0 0) to (11.898253 11.898253 12.912076)
  2 by 4 by 4 MPI processor grid
  reading atoms ...
  135 atoms
  read_data CPU = 0.126 seconds
replicate $L $L $L
replicate 2 $L $L
replicate 2 2 $L
replicate 2 2 2
Replication is creating a 2x2x2 = 8 times larger system...
  orthogonal box = (0 0 0) to (23.796507 23.796507 25.824152)
  2 by 4 by 4 MPI processor grid
  1080 atoms
  replicate CPU = 0.004 seconds

pair_style allegro
pair_coeff	* * ${MODEL}.pth Ba Ti O
pair_coeff	* * BaTiO3-E0.pth Ba Ti O
mass 1 137.3
mass 2 47.9
mass 3 15.9994

timestep 0.002
compute polarization all allegro polarization 3
compute allegro will evaluate the quantity polarization of length 3 (src/compute_allegro.cpp:53)
compute polarizability all allegro polarizability 9
compute allegro will evaluate the quantity polarizability of length 9 (src/compute_allegro.cpp:53)

thermo_style custom pe fmax fnorm spcpu cpuremain

variable efield equal 1e-2*36.36
fix born all addbornforce 0.0 0.0 ${efield}
fix born all addbornforce 0.0 0.0 0.3636

thermo 10
min_style fire
#minimize 0.0 1e-6 100 100
velocity all create ${TEMP} ${SEED} dist gaussian rot yes mom yes
velocity all create 300 ${SEED} dist gaussian rot yes mom yes
velocity all create 300 6779 dist gaussian rot yes mom yes
fix nvt all nvt temp ${TEMP} ${TEMP} $(100*dt)
fix nvt all nvt temp 300 ${TEMP} $(100*dt)
fix nvt all nvt temp 300 300 $(100*dt)
fix nvt all nvt temp 300 300 0.2000000000000000111
run 5000
Neighbor list info ...
  update: every = 1 steps, delay = 0 steps, check = yes
  max neighbors/atom: 2000, page size: 100000
  master list distance cutoff = 8
  ghost atom cutoff = 8
  binsize = 8, bins = 3 3 4
  1 neighbor lists, perpetual/occasional/extra = 1 0 0
  (1) pair allegro/kk, perpetual
      attributes: full, newton on, kokkos_device
      pair build: full/bin/kk/device
      stencil: full/bin/3d
      bin: kk/device
Per MPI rank memory allocation (min/avg/max) = 3.516 | 3.516 | 3.516 Mbytes
    PotEng          Fmax          Fnorm          S/CPU         CPULeft    
-807708.29      1.5958807      37.042543      0              0            
-807645.64      3.4400248      45.62833       2.3979771      2080.9216    
-807636         2.5071917      35.151174      25.905778      1134.4933    
-807608.25      3.1188665      36.675118      25.927239      818.70686    
-807603.9       4.5969738      49.957355      25.851987      660.76004    
-807568.47      3.5910236      40.474214      25.764912      565.96664    
-807605.19      2.9133736      38.266872      25.91372       502.45817    
-807649.77      3.5725688      33.275515      25.901916      456.9971     
-807685.77      2.5068572      33.365416      25.878887      422.8259     
-807668.12      3.2765521      34.214106      25.832547      396.20026    
-807654.27      3.2643939      34.200147      25.931169      374.75018    
-807661.91      2.4595306      27.227699      25.921864      357.13615    
-807626.64      4.2339501      31.366943      25.922911      342.39286    
-807585.17      3.7149013      40.278875      25.833531      329.90844    
-807570.29      4.118489       38.556391      25.908131      319.11351    
-807636.6       3.7217651      34.235863      25.898486      309.71108    
-807654.96      3.3490907      31.597517      25.881062      301.44353    
-807664.93      3.0513408      34.847479      25.905299      294.09293    
-807648.88      4.7458949      44.823446      25.925939      287.50794    
-807681.47      2.9971598      36.891924      25.843346      281.60671    
-807641.52      4.7202623      39.483813      25.819997      276.26531    
-807614.64      3.2179334      38.958773      25.906035      271.36638    
-807563.64      4.7698534      45.91053       25.933104      266.86899    
-807607.71      4.1309635      49.620213      25.867031      262.74954    
-807614.91      4.9911245      39.751422      25.854508      258.94489    
-807643.05      3.5253147      35.470745      25.919607      255.39521    
-807646.17      4.9166745      44.808658      25.925835      252.08721    
-807683.44      3.0126191      37.426217      25.869573      249.01038    
-807664.24      3.1483027      33.916163      25.83093       246.13546    
-807637.02      2.7192519      31.633302      25.906945      243.41366    
-807609.36      3.1850019      32.950454      25.923962      240.84361    
-807606.19      3.9139551      41.96836       25.885302      238.4232     
-807599.95      3.398022       35.845957      25.830785      236.14184    
-807610.39      3.4369461      33.289206      25.913153      233.95788    
-807648.08      4.0005594      30.090723      25.931216      231.87599    
-807675.22      2.5928738      31.903435      25.906809      229.89586    
-807678.66      2.712249       32.868739      25.844796      228.01623    
-807643.2       3.9302368      38.793762      25.923995      226.2025     
-807651.24      2.6825245      30.057818      25.920363      224.46459    
-807619.55      3.3713703      34.265229      25.893887      222.80067    
-807601.46      3.577336       43.197496      25.860901      221.2063     
-807570.07      3.9293365      41.646212      25.932841      219.65884    
-807630.72      2.8585877      35.045968      25.91379       218.16979    
-807651.36      3.8722797      36.737775      25.924662      216.73034    
-807674.7       3.0665109      35.078561      25.913579      215.34049    
-807641.97      5.2422333      47.49429       25.908229      213.99606    
-807670.29      2.9385554      34.678501      25.919025      212.69173    
-807644.65      3.820147       35.765046      25.869438      211.4336     
-807621.32      4.0144104      37.036698      25.906724      210.20655    
-807565.83      4.0066268      42.211813      25.915085      209.01268    
-807607.65      3.4635789      42.282203      25.910352      207.85177    
-807629.5       3.4943172      33.772335      25.858416      206.72808    
-807655.9       2.6333689      32.24456       25.920202      205.62478    
-807646.4       4.2322097      40.366671      25.924369      204.54804    
-807675.57      3.0477756      34.179958      25.89819       203.50011    
-807667.59      3.4254478      32.579603      25.823457      202.48529    
-807638.64      4.3304839      31.287832      25.923445      201.48104    
-807601.31      3.2226315      34.41363       25.928529      200.49791    
-807598.35      4.1773724      38.249546      25.906859      199.53783    
-807610.33      4.098734       38.632669      25.853018      198.60322    
-807621.63      3.6605464      31.552573      25.909855      197.68065    
-807643.14      3.34849        32.173443      25.925538      196.774      
-807666.17      3.8783964      34.151666      25.884725      195.88844    
-807677.34      2.9627804      35.475111      25.819061      195.02555    
-807644.15      3.9733342      39.126806      25.892303      194.17006    
-807634.97      3.5360214      33.399821      25.911529      193.32708    
-807612.32      3.2628808      36.409508      25.915351      192.49759    
-807603.72      3.794577       45.182398      25.845337      191.68809    
-807582.3       3.5494483      40.819994      25.883228      190.88742    
-807622.34      3.4415641      35.715965      25.915665      190.09574    
-807650.7       3.3790793      36.468064      25.923295      189.31496    
-807675.08      2.9153912      36.421024      25.872943      188.54984    
-807649.83      4.1503711      41.575799      25.866292      187.79583    
-807654.5       4.3200094      35.62713       25.934207      187.04597    
-807643.7       3.2953611      33.902059      25.927904      186.30649    
-807620.88      3.6190161      37.784217      25.916003      185.57744    
-807575.45      3.2318006      39.373837      25.931055      184.85618    
-807596.98      3.1947169      38.189119      25.927036      184.14396    
-807635.01      3.6151632      31.604541      25.879083      183.44399    
-807661.03      4.0015584      31.763769      25.873162      182.75242    
-807651.7       3.7563447      36.689415      25.920962      182.06474    
-807661.18      3.8762153      35.008352      25.813512      181.39282    
-807668.33      3.0609537      32.279746      25.893989      180.7217     
-807640.35      3.264022       32.75715       25.900654      180.05694    
-807599.05      2.8574864      36.653586      25.935621      179.39625    
-807587.09      4.0762708      39.310906      25.923013      178.74294    
-807612.35      4.141719       39.738076      25.887594      178.0984     
-807630.73      3.893376       32.975985      25.853112      177.46224    
-807641.66      3.2224153      34.103573      25.928228      176.8265     
-807657.22      5.1017098      36.165485      25.92368       176.19669    
-807675.71      2.9883215      34.562234      25.872564      175.57577    
-807650.75      4.129004       35.157087      25.872901      174.95999    
-807627.34      2.7873075      33.276842      25.930482      174.34538    
-807605.5       3.2099272      35.453634      25.923999      173.73612    
-807606.05      3.3520719      42.98882       25.881244      173.13437    
-807597.63      3.3545258      38.317573      25.830976      172.54036    
-807621.44      3.2934954      35.541339      25.937688      171.94396    
-807647.76      4.3181918      36.191095      25.911196      171.35354    
-807672.72      3.3121896      35.265657      25.903967      170.76773    
-807658         4.2785483      36.613606      25.877249      170.18758    
-807644.6       4.0655665      33.891498      25.92529       169.60843    
-807636.59      2.8961015      31.048538      25.896481      169.03481    
-807619.19      3.2293342      36.04637       25.909292      168.46412    
-807591.32      2.762223       36.810695      25.859261      167.8999     
-807595.38      3.0497965      36.80109       25.89235       167.33721    
-807636.45      2.815301       31.061095      25.895876      166.77768    
-807661.15      2.4888306      31.700531      25.86261       166.22327    
-807659.76      3.7778633      34.509086      25.907905      165.66951    
-807652.66      3.1979514      36.175644      25.914638      165.1185     
-807659.9       2.9267719      31.737577      25.908064      164.57086    
-807637.91      3.8781693      32.184971      25.897403      164.02673    
-807606.35      2.9766091      35.713241      25.87348       163.4867     
-807582.26      3.6239851      38.19716       25.917518      162.94713    
-807615.3       3.4014536      36.63324       25.851464      162.41366    
-807638.66      3.8889468      32.467787      25.840607      161.88332    
-807649.44      4.0185621      34.633957      25.875898      161.3537     
-807650.6       4.5697248      38.286984      25.888485      160.82592    
-807669.01      2.5306442      34.983952      25.846929      160.3026     
-807651.57      3.0039329      34.477955      25.825666      159.78262    
-807627.17      2.6366889      33.407246      25.835671      159.2644     
-807596.13      3.3537832      36.410286      25.933434      158.74373    
-807605.52      3.4502406      39.905125      25.893157      158.22718    
-807612.44      3.5174203      34.538643      25.864181      157.71411    
-807631.07      3.3655645      31.426581      25.924038      157.20036    
-807644.68      4.4377188      34.522729      25.913697      156.68914    
-807669.76      2.4165455      32.989338      25.851829      156.18269    
-807662.28      3.2959577      33.71785       25.77811       155.68143    
-807642.46      3.2600078      33.204283      25.882935      155.17733    
-807625.27      2.9147793      32.916456      25.924578      154.67327    
-807615.33      3.9568914      36.528646      25.912914      154.17155    
-807600.48      3.7646879      38.571499      25.888522      153.67264    
-807602.59      3.4928783      35.994441      25.887998      153.17548    
-807632.97      3.168592       32.987231      25.901233      152.67944    
-807658.94      3.171704       32.923522      25.885958      152.18569    
-807663.82      2.4311458      34.244812      25.859996      151.6946     
-807646.99      3.5272932      37.004097      25.858604      151.20511    
-807648.59      3.331642       31.82618       25.810103      150.71908    
-807633.38      3.3069034      32.779774      25.799258      150.23492    
-807609.86      3.3232686      36.69526       25.858445      149.74983    
-807584.13      3.556233       38.531607      25.899911      149.26455    
-807615.12      3.1591261      35.343088      25.928615      148.77959    
-807640.82      3.1542942      33.075799      25.92225       148.29628    
-807658.15      2.8266173      33.36838       25.913139      147.81468    
-807648.05      3.6906303      38.176589      25.874777      147.33585    
-807660         2.8593245      33.608631      25.830409      146.85994    
-807650.75      2.7628976      32.697354      25.905778      146.3825     
-807627         2.7485254      33.74022       25.900511      145.9065     
-807592.42      3.7525302      37.264121      25.860444      145.43316    
-807599.74      3.9563036      38.571432      25.872538      144.96056    
-807619.51      3.5272888      34.58598       25.887905      144.48858    
-807638.84      2.6729586      32.104353      25.828345      144.01982    
-807644.02      3.8655166      35.982806      25.907447      143.54941    
-807659.93      3.3356556      35.183744      25.890947      143.08067    
-807661.59      3.1916009      34.139163      25.835857      142.61488    
-807642.44      3.2687276      33.164279      25.865218      142.14912    
-807616.53      3.3468359      34.070794      25.868606      141.68427    
-807604.92      3.3565138      36.339558      25.854995      141.22088    
-807605.49      3.3392827      38.394811      25.829761      140.75928    
-807612.93      3.7389528      34.252912      25.868803      140.29736    
-807632.94      3.3693319      32.549709      25.91638       139.83487    
-807654.15      3.4683787      34.573399      25.916709      139.37333    
-807664.89      2.6638659      33.87605       25.806484      138.9162     
-807650.87      3.4856976      34.837026      25.854593      138.45842    
-807637.89      2.9256442      33.435036      25.882368      138.00065    
-807624.93      3.213392       32.889903      25.863387      137.54434    
-807609.98      3.4954698      38.760622      25.851965      137.08922    
-807593.6       3.2307747      37.537686      25.885864      136.6339     
-807613.64      2.9096249      35.435912      25.874768      136.17974    
-807639.39      3.8806589      33.144096      25.877359      135.72631    
-807660.47      3.1447802      33.459741      25.855667      135.2743     
-807652.47      4.6805099      36.144255      25.870527      134.82263    
-807650.4       3.2655947      34.111017      25.917849      134.37037    
-807645.41      3.7166141      32.202526      25.922226      133.91875    
-807628.33      3.3509383      33.557984      25.892469      133.46874    
-807598.53      3.4617382      36.1936        25.88555       133.01965    
-807598.77      3.2616179      37.028387      25.910654      132.57058    
-807624.75      3.4975064      33.330076      25.917314      132.12205    
-807646.43      3.5294743      32.315067      25.921569      131.67411    
-807649.67      4.1849877      34.417193      25.892099      131.22766    
-807654.54      4.0187116      35.22175       25.912905      130.78133    
-807657.15      3.6356195      33.949255      25.793128      130.33886    
-807643.28      4.170365       32.361667      25.86655       129.89505    
-807615.78      4.2090093      34.626521      25.870827      129.45176    
-807600.13      3.726677       36.537425      25.909135      129.0081     
-807610.51      4.440859       36.983126      25.851475      128.56654    
-807625.48      3.1585722      32.152844      25.853841      128.12552    
-807638.73      4.7052538      32.575604      25.878696      127.68445    
-807651.95      2.9815349      33.374097      25.921124      127.24291    
-807662.3       3.0691785      33.520115      25.903913      126.80239    
-807652.02      2.8638926      33.084259      25.866433      126.36336    
-807634.27      3.1933324      32.711226      25.90876       125.92386    
-807617.04      3.3307873      33.444685      25.922776      125.48458    
-807610.88      3.6586126      36.580895      25.891729      125.04659    
-807607.01      3.3749143      35.64044       25.866003      124.60976    
-807621.11      4.8193492      33.504758      25.869308      124.17336    
-807640.09      2.6511892      32.674867      25.89039       123.73699    
-807659.07      3.1333007      33.537545      25.856563      123.30191    
-807654.4       3.427979       34.706113      25.810717      122.86837    
-807642.81      3.6383302      34.042637      25.803568      122.43547    
-807635.75      3.1892273      33.094876      25.837251      122.00226    
-807623.39      2.9563289      35.296824      25.900413      121.56809    
-807603.59      3.0735734      36.993202      25.876554      121.13493    
-807602.13      3.0849693      36.38201       25.849038      120.70284    
-807625.66      3.7153771      33.336297      25.904667      120.26998    
-807647.42      3.0906339      32.587199      25.886561      119.83798    
-807651.34      3.5129097      33.994655      25.852721      119.40714    
-807648.85      3.1567574      34.802321      25.897831      118.97577    
-807649.8       3.536404       32.844184      25.880549      118.54521    
-807638.64      2.6808028      32.492493      25.852464      118.11565    
-807615.14      3.4154126      34.063802      25.864947      117.68625    
-807597         2.9193971      36.322862      25.894342      117.25665    
-807610.43      2.8180939      35.768788      25.880329      116.82774    
-807630.22      2.7647884      33.917003      25.861439      116.39962    
-807642.77      3.4959173      33.469389      25.843902      115.97225    
-807647.63      3.5515239      34.824959      25.844242      115.54524    
-807656.06      3.4854776      34.311954      25.8054        115.11938    
-807650.2       3.0523619      33.258323      25.825397      114.69348    
-807631.2       3.0398419      33.202842      25.881276      114.26684    
-807607.71      3.5668359      35.518751      25.891072      113.84039    
-807607.66      2.8794724      36.57741       25.92222       113.41371    
-807614.09      3.247872       35.112516      25.900748      112.9878     
-807627.84      3.3919457      33.006289      25.904384      112.56219    
-807640.99      3.3610433      33.668795      25.913597      112.13676    
-807657.11      3.4740668      33.885612      25.882287      111.71227    
-807656.99      3.306718       33.208732      25.82865       111.28911    
-807642.09      4.4644053      33.836898      25.887275      110.86519    
-807626.65      3.417787       33.034095      25.893123      110.44151    
-807617.81      3.2119863      35.057757      25.899446      110.01803    
-807608.32      3.32624        36.042022      25.883171      109.59518    
-807610.48      3.0007904      34.993951      25.888099      109.17256    
-807627.86      3.7110781      32.867348      25.911871      108.74984    
-807651.26      2.9771611      32.092522      25.899614      108.32765    
-807655.11      3.164133       33.589556      25.888909      107.90595    
-807649.01      3.1985821      33.880521      25.869623      107.48489    
-807643.33      3.4049433      32.885852      25.863651      107.06423    
-807632.39      3.5312591      33.420511      25.875397      106.64365    
-807615.31      3.4592819      35.936235      25.864301      106.22355    
-807601.67      3.7762258      36.420051      25.884524      105.8034     
-807614.94      3.6425699      34.285071      25.879826      105.38361    
-807635.89      3.1828012      32.669922      25.878245      104.96413    
-807648.79      2.6763064      32.952326      25.88385       104.54483    
-807648.23      3.3610373      34.406359      25.867403      104.12607    
-807652.31      2.6934602      33.180339      25.878428      103.70739    
-807645.64      3.6696946      32.851719      25.842332      103.28956    
-807630.84      2.7557237      32.645365      25.872503      102.8715     
-807608.06      3.9187471      34.859266      25.890313      102.45343    
-807606         3.34523        36.507342      25.883279      102.03572    
-807618.21      3.5598279      34.413324      25.861769      101.61859    
-807636.89      2.9885689      32.128901      25.873826      101.20153    
-807642.13      4.2467366      34.501239      25.921197      100.784      
-807652.84      3.1673829      33.420347      25.893329      100.36714    
-807652.68      3.5809845      33.902587      25.830952      99.951451    
-807644.5       3.0185261      32.507614      25.845164      99.535778    
-807621.85      3.2402318      33.938266      25.906948      99.119431    
-807610.64      2.85515        35.434767      25.918935      98.70315     
-807610.28      3.4168266      35.960815      25.874976      98.287738    
-807616.81      2.8454268      34.459031      25.891671      97.872314    
-807629.95      3.1918078      33.500446      25.871848      97.457398    
-807645.23      3.7106659      33.97928       25.823903      97.043375    
-807654.47      2.6984435      34.179897      25.824532      96.62955     
-807647.93      3.7201486      34.795985      25.858056      96.215466    
-807636.9       2.8589395      34.070788      25.899595      95.801023    
-807622.07      3.151061       34.357661      25.890262      95.386924    
-807613.44      3.5204072      36.465435      25.878821      94.97319     
-807605.97      3.5640092      36.75412       25.908622      94.559266    
-807616.01      4.1180052      34.616713      25.85877       94.146212    
-807632.79      3.216292       33.798657      25.875673      93.733134    
-807651.6       3.0331467      33.620614      25.847945      93.320618    
-807650.1       3.2520091      34.598754      25.84258       92.908362    
-807646.17      3.0012042      33.462444      25.856216      92.496119    
-807636.32      3.7079774      33.575339      25.873008      92.083852    
-807627.96      3.3301623      33.820955      25.870455      91.671806    
-807607.64      3.5017409      35.975648      25.914117      91.259402    
-807605.42      3.7162437      36.083222      25.868754      90.847755    
-807620.89      3.3838539      34.077618      25.896424      90.435951    
-807638.83      3.4214991      33.725704      25.851921      90.024876    
-807647.14      2.7248387      33.290029      25.860746      89.613871    
-807646.81      3.4892875      34.652447      25.862105      89.203025    
-807648.6       3.3576884      33.518577      25.862782      88.792344    
-807640.15      3.8419486      32.416797      25.88684       88.381551    
-807622.15      2.8265263      33.513895      25.927947      87.970453    
-807606.93      4.0988321      35.663905      25.92053       87.55962     
-807612.19      3.2716234      35.154999      25.854689      87.149725    
-807626.83      3.3623816      32.790488      25.828441      86.740295    
-807636.52      3.3660617      32.485859      25.857234      86.330693    
-807644.84      3.2795603      33.443038      25.876201      85.921039    
-807652.51      2.6017224      33.318943      25.874902      85.511561    
-807649.13      3.731762       32.849193      25.884879      85.102132    
-807635.52      2.9235092      32.695338      25.729103      84.694586    
-807615.76      4.2902324      34.702241      25.889527      84.285412    
-807614.14      3.5198885      35.761313      25.921844      83.876047    
-807613.31      4.1984109      35.264696      25.868782      83.467413    
-807623.56      2.7864189      33.518522      25.888029      83.058726    
-807636.12      4.1251131      33.451151      25.923665      82.649816    
-807652.01      3.1187794      32.697363      25.931191      82.240985    
-807651.53      2.5831778      32.976008      25.918996      81.832438    
-807645.5       2.6505462      32.465689      25.839744      81.42486     
-807631.33      3.0301953      32.327231      25.846615      81.01735     
-807623.54      4.0105955      34.152006      25.884201      80.609597    
-807611.24      2.8695487      34.867312      25.847361      80.202358    
-807612.94      3.5919691      34.959857      25.849326      79.795235    
-807623.44      3.6778271      33.611963      25.871914      79.388024    
-807644.37      2.9082662      32.251358      25.874986      78.980919    
-807649.66      2.7889861      33.113529      25.886681      78.573837    
-807649.26      2.6413454      32.943771      25.872587      78.167027    
-807642.68      2.4956435      32.606684      25.864605      77.760427    
-807634.36      2.9394347      32.426494      25.892612      77.353692    
-807619.81      3.3119755      33.303757      25.888034      76.947134    
-807606.68      3.5149423      35.211507      25.885689      76.540729    
-807614.66      2.9206255      33.733836      25.922239      76.134118    
-807629.41      3.2134505      33.111656      25.905669      75.727792    
-807645.38      3.0456785      32.000328      25.885684      75.321778    
-807646.04      3.9166958      33.981683      25.897366      74.915786    
-807650.4       3.0656043      32.636043      25.89383       74.509951    
-807643.97      3.6407074      32.988596      25.866796      74.104481    
-807631.41      2.9762733      32.764606      25.874219      73.699066    
-807611.58      3.2983151      34.650454      25.859265      73.2939      
-807609.96      2.8980272      34.614012      25.860522      72.888841    
-807615.41      2.640935       34.409831      25.854049      72.483952    
-807630.81      2.9241012      33.334495      25.877567      72.078977    
-807638.52      2.5685593      33.535695      25.876225      71.674129    
-807650.06      2.6199487      33.191875      25.886424      71.269311    
-807650.14      2.9593629      33.537074      25.827052      70.865099    
-807641.57      3.5918323      33.445447      25.845187      70.460843    
-807624.54      2.6496257      33.668487      25.855796      70.056608    
-807613.59      3.599545       35.399843      25.905017      69.652086    
-807609.53      3.5851666      36.106527      25.874892      69.247916    
-807615.96      3.2709821      34.116062      25.879358      68.843819    
-807627.4       2.969961       33.684834      25.909733      68.439593    
-807642.99      2.4524065      33.698446      25.907403      68.035495    
-807650.42      2.8294096      33.683194      25.843144      67.632002    
-807649.06      2.8811256      33.393844      25.838928      67.228641    
-807637.2       3.3904074      33.473471      25.872531      66.825125    
-807626.66      2.9359213      33.211416      25.849489      66.421883    
-807615.8       3.0533661      34.866611      25.879901      66.018513    
-807609.03      3.5892421      35.12658       25.909686      65.615026    
-807615.04      3.5908195      34.191717      25.925909      65.211525    
-807632.99      3.3396947      33.098087      25.911594      64.808233    
-807646.42      3.1205978      32.614221      25.858042      64.405427    
-807647.86      3.4874703      33.161595      25.8351        64.002879    
-807646.14      3.4569173      33.742808      25.853951      63.600289    
-807638.22      3.2668719      33.103984      25.864315      63.197719    
-807630.4       3.019302       32.193728      25.932957      62.79477     
-807611.81      3.0793076      34.585254      25.879012      62.39229     
-807611.23      2.8334313      34.233689      25.863142      61.990011    
-807619.03      2.9869233      33.78084       25.847819      61.587925    
-807637.69      2.8975113      32.149831      25.889213      61.185652    
-807641.8       3.122039       33.386819      25.822152      60.783913    
-807648.42      3.7874014      33.777754      25.917392      60.381636    
-807646.91      2.9670823      33.284277      25.86218       59.97981     
-807640.61      3.1134072      32.709658      25.937951      59.577586    
-807624.4       2.7882611      32.034809      25.934991      59.175476    
-807613.18      3.5294658      34.548209      25.961109      58.773297    
-807613.29      2.9682341      33.827481      25.983562      58.371075    
-807623.21      2.7188822      33.258347      25.936678      57.969239    
-807634.39      3.0846687      32.266647      25.943793      57.567451    
-807644.05      3.0153388      32.566054      25.976925      57.165556    
-807650.3       3.5430136      32.890066      25.866469      56.764414    
-807647.26      2.8816023      32.494176      25.841208      56.363504    
-807635.24      4.4920469      32.667623      25.939596      55.962094    
-807624.12      3.440315       32.635228      25.92966       55.56083     
-807614.21      3.4943599      34.674976      25.927134      55.159668    
-807613.9       3.2781765      33.95907       25.969142      54.758352    
-807622.33      3.3915255      33.098535      25.94636       54.357254    
-807635.83      2.5177322      32.039607      25.924125      53.956366    
-807646.92      2.6865451      32.972516      25.884102      53.555781    
-807648.51      3.5296302      33.667915      25.81697       53.155642    
-807644.83      2.6050157      32.668536      25.905101      52.755095    
-807633.51      3.2513653      32.783615      25.91947       52.354551    
-807624.96      2.9891633      33.366272      25.909377      51.954139    
-807613.01      2.8604307      34.556575      25.971516      51.553481    
-807614.77      2.8675165      34.251962      25.988047      51.152823    
-807624.25      3.4332733      33.27368       25.98834       50.752248    
-807638.99      3.13858        32.597864      26.024901      50.351573    
-807646.16      3.6770556      33.193981      26.002489      49.951098    
-807647.89      2.715029       33.260494      25.987019      49.550784    
-807641.52      2.7139221      32.936365      25.979329      49.15059     
-807635.3       3.693973       32.942678      25.973749      48.750505    
-807620.8       3.0609744      33.386655      26.021704      48.35027     
-807611.89      2.7142431      35.693011      26.03401       47.950061    
-807613.17      3.2028589      35.392459      25.982756      47.550176    
-807628.3       2.8257307      33.354746      26.026756      47.150166    
-807638         3.0220034      33.53046       26.008899      46.750321    
-807645.35      3.5710242      33.708872      26.010666      46.350548    
-807645.45      3.5646621      34.268613      25.987662      45.950958    
-807642.46      2.8028303      33.295104      25.985233      45.551455    
-807631.04      2.9281512      33.956151      25.976945      45.152065    
-807617.48      2.6748387      33.737747      25.989426      44.752695    
-807610.66      3.3509111      35.180153      25.983974      44.353423    
-807617.01      3.6540019      34.800232      25.92088       43.954494    
-807626.84      3.5248445      33.956141      25.899453      43.555721    
-807638.42      3.2930472      33.800911      25.967773      43.15673     
-807647.32      3.2468702      33.568904      25.952626      42.757872    
-807645.27      3.4714603      34.555553      25.959929      42.359053    
-807641.28      2.7167507      33.010339      25.984715      41.960205    
-807628.53      3.2248555      33.283403      26.00506       41.561347    
-807617.83      3.1227931      34.176562      26.035308      41.162445    
-807612.6       3.2830778      35.393586      26.023909      40.76366     
-807615.85      3.1228961      34.60336       25.986648      40.36509     
-807626.23      2.7267907      33.390855      25.997175      39.96655     
-807641.54      3.219193       32.9473        26.019525      39.567996    
-807647.98      2.6834268      33.004976      26.069676      39.16933     
-807645.44      3.1526072      33.847163      26.057606      38.770783    
-807639.83      2.9545579      32.818121      26.031351      38.372403    
-807630.05      4.1173487      33.572193      26.044889      37.974045    
-807618.81      3.3874848      33.294244      25.951229      37.576084    
-807614.49      3.4106045      34.82381       25.944632      37.178207    
-807616.89      3.0000694      33.939165      25.910499      36.780508    
-807630.89      3.2735361      33.328176      25.890643      36.382933    
-807642.32      3.5009591      32.839277      25.889927      35.985416    
-807648         3.3734264      33.11466       25.975687      35.587674    
-807643.79      3.7739253      34.178747      25.953915      35.190064    
-807640.5       2.7810945      33.305273      25.97687       34.792441    
-807629.96      4.1857868      33.252813      25.967702      34.394908    
-807617.76      3.442982       34.575474      25.99725       33.997344    
-807613.98      3.3916583      34.7383        26.000975      33.599831    
-807621.9       2.8837094      34.477677      25.993592      33.202402    
-807633.29      3.7353942      32.894933      26.013129      32.804976    
-807641.4       3.0728322      32.737344      26.004573      32.407638    
-807645.91      4.1644112      32.755612      26.02075       32.010315    
-807645.86      2.9947917      32.81967       25.999559      31.613113    
-807637.86      2.6379887      32.639086      25.951003      31.216106    
-807626.95      2.6160873      33.2023        25.910757      30.819264    
-807617.05      2.864754       34.111833      25.981843      30.422283    
-807616.77      3.4701391      33.938454      25.92064       30.025521    
-807621.79      3.5368875      33.702577      25.921058      29.62881     
-807633.38      2.8812215      32.932479      25.95122       29.232072    
-807641.12      3.2574357      33.133544      25.970245      28.835339    
-807646.37      2.4991177      33.3565        25.982413      28.43863     
-807643.45      3.4965039      33.881958      25.943498      28.042072    
-807636.65      2.9032603      33.011089      25.910663      27.645646    
-807626.3       3.9102546      33.734622      25.967019      27.249134    
-807617.28      2.9119512      34.951048      25.964975      26.852679    
-807617.59      3.2489655      35.039957      26.002056      26.456192    
-807620.6       4.0294869      34.449909      26.010469      26.05974     
-807633.77      2.7123158      33.515725      25.995258      25.663378    
-807643.65      3.7063589      33.387834      26.036322      25.26698     
-807644.79      3.8693207      34.298358      25.982385      24.870753    
-807640.77      3.6149382      34.202077      25.986252      24.47457     
-807636.55      3.0761244      33.346176      25.932419      24.07855     
-807625.07      2.7886898      34.175345      25.974556      23.682492    
-807617.3       2.7520046      35.323568      25.966039      23.2865      
-807614.94      3.4572895      35.770889      26.002637      22.890487    
-807623.4       3.102449       34.913535      26.014131      22.494504    
-807635.33      2.7690068      34.128261      26.029464      22.098544    
-807640.44      3.0842437      34.60123       26.00857       21.702676    
-807643.23      3.6563258      33.974666      26.026979      21.306825    
-807641.22      2.9751851      33.772018      25.970989      20.911125    
-807633.21      3.5372712      33.431569      25.951078      20.515506    
-807623.37      2.8377026      33.876619      26.009151      20.119836    
-807615.25      3.1954374      35.136722      26.032639      19.724177    
-807619.13      3.572649       35.376583      26.003506      19.328615    
-807625.35      3.7572161      34.879735      25.980372      18.933139    
-807634.3       3.603148       34.981446      25.955402      18.537748    
-807641.5       4.2173945      34.828735      25.977492      18.142368    
-807642.22      3.6261474      35.24056       25.92768       17.747107    
-807639.66      3.4894351      34.754478      25.937976      17.351874    
-807629.4       3.4904899      35.34992       25.971852      16.956635    
-807620.32      4.831847       35.829894      26.029317      16.561363    
-807615.5       3.568196       36.453261      26.044672      16.166119    
-807619.62      5.0579033      35.727011      26.008976      15.77097     
-807624.99      3.2242848      34.854387      25.995584      15.375885    
-807636.23      4.3160853      34.98473       25.988153      14.980853    
-807643.8       3.6537682      34.339533      26.014831      14.585834    
-807642.9       3.3984307      34.558476      26.012128      14.190864    
-807638.57      2.9166553      33.66544       26.02058       13.795929    
-807630.16      3.288677       33.606206      25.966713      13.401099    
-807622.33      3.3283195      33.337321      25.965352      13.006311    
-807618.31      2.8619808      34.100792      25.995962      12.611534    
-807617.94      2.9783826      34.962743      25.962268      12.216833    
-807629.32      3.4191455      33.932836      25.946032      11.822188    
-807638.44      3.6696178      33.181719      25.885274      11.427638    
-807643.1       3.020665       33.872392      25.910306      11.0331      
-807642.68      3.9359136      33.982643      25.952155      10.638563    
-807639.09      3.0511459      33.513678      25.940368      10.244075    
-807631.31      3.6692131      34.020346      25.96434       9.8496059    
-807622.11      3.0720482      34.184129      26.008815      9.4551427    
-807617.4       4.4354355      35.063038      26.028181      9.0607075    
-807621.26      3.5385044      34.993979      25.991535      8.6663402    
-807631.84      4.1267147      34.260805      26.021526      8.2719935    
-807637.99      3.486341       33.670778      26.040423      7.8776771    
-807643.63      3.6965866      34.351313      26.032672      7.4834081    
-807642.67      2.8871712      33.728883      26.016901      7.0891898    
-807637.94      2.9859786      33.264601      26.016991      6.6950123    
-807629.75      2.4784581      33.142806      26.041522      6.3008633    
-807622.08      3.1554412      34.112143      26.031243      5.9067609    
-807618.71      3.0254354      34.807552      26.023233      5.5127029    
-807623.44      3.9657974      33.757674      26.032128      5.1186815    
-807631.8       3.5309009      33.395746      26.003657      4.7247109    
-807640.23      4.6772165      32.879282      25.948233      4.3307973    
-807643.94      3.5086805      33.107646      25.990082      3.9369059    
-807641.83      4.6442549      33.500733      25.972525      3.5430564    
-807637.04      3.1314504      33.047095      25.981664      3.1492406    
-807628.45      4.8617808      33.465336      25.967989      2.7554639    
-807621.54      3.1812892      34.845965      25.965926      2.3617228    
-807616.33      3.5223142      35.210747      26.008669      1.96801      
-807624.71      3.1622201      34.430883      26.011802      1.5743342    
-807632.37      3.0386338      34.412952      25.985964      1.1806977    
-807641.46      4.3438925      34.212609      25.955872      0.78709851   
-807641.87      3.7606943      34.698327      26.045998      0.39352999   
-807640.49      3.3197903      34.818173      25.972219      0            
Loop time of 196.757 on 32 procs for 5000 steps with 1080 atoms

Performance: 4.391 ns/day, 5.465 hours/ns, 25.412 timesteps/s, 27.445 katom-step/s
67.2% CPU use with 32 MPI tasks x 1 OpenMP threads

MPI task timing breakdown:
Section |  min time  |  avg time  |  max time  |%varavg| %total
---------------------------------------------------------------
Pair    | 100.67     | 144.96     | 192.37     | 308.2 | 73.67
Neigh   | 0          | 0          | 0          |   0.0 |  0.00
Comm    | 2.0798     | 49.494     | 93.785     | 527.5 | 25.15
Output  | 0.026334   | 0.026842   | 0.027852   |   0.2 |  0.01
Modify  | 1.9559     | 1.9646     | 1.9742     |   0.3 |  1.00
Other   |            | 0.3159     |            |       |  0.16

Nlocal:          33.75 ave          48 max          21 min
Histogram: 8 8 0 0 0 0 0 8 0 8
Nghost:        1106.25 ave        1119 max        1092 min
Histogram: 8 0 8 0 0 0 0 0 8 8
Neighs:              0 ave           0 max           0 min
Histogram: 32 0 0 0 0 0 0 0 0 0
FullNghs:       5494.5 ave        7896 max        3378 min
Histogram: 8 8 0 0 0 0 0 8 0 8

Total # of neighbors = 175824
Ave neighs/atom = 162.8
Neighbor list builds = 0
Dangerous builds = 0

reset_timestep 0


variable interval equal 1000
thermo 10

variable nintervals equal $(v_PERIOD/v_interval)
variable nintervals equal 100
variable efield equal 1e-2*36.36*cos((step/${PERIOD})*2*3.14)
variable efield equal 1e-2*36.36*cos((step/100000)*2*3.14)
fix born all addbornforce 0.0 0.0 v_efield

variable Px equal f_born[1]+c_polarization[1]
variable Py equal f_born[2]+c_polarization[2]
variable Pz equal (f_born[3]+c_polarization[3])/vol
variable pe equal pe

fix aveP all ave/time 1 $(v_interval/2) ${interval} v_efield v_Pz v_pe f_born file Pz.${MODEL}.${STRUCTURE}.${TEMP}.$L.${ITER}
fix aveP all ave/time 1 500 ${interval} v_efield v_Pz v_pe f_born file Pz.${MODEL}.${STRUCTURE}.${TEMP}.$L.${ITER}
fix aveP all ave/time 1 500 1000 v_efield v_Pz v_pe f_born file Pz.${MODEL}.${STRUCTURE}.${TEMP}.$L.${ITER}
fix aveP all ave/time 1 500 1000 v_efield v_Pz v_pe f_born file Pz.BaTiO3-E0.${STRUCTURE}.${TEMP}.$L.${ITER}
fix aveP all ave/time 1 500 1000 v_efield v_Pz v_pe f_born file Pz.BaTiO3-E0.BaTiO3-sc333.${TEMP}.$L.${ITER}
fix aveP all ave/time 1 500 1000 v_efield v_Pz v_pe f_born file Pz.BaTiO3-E0.BaTiO3-sc333.300.$L.${ITER}
fix aveP all ave/time 1 500 1000 v_efield v_Pz v_pe f_born file Pz.BaTiO3-E0.BaTiO3-sc333.300.2.${ITER}
fix aveP all ave/time 1 500 1000 v_efield v_Pz v_pe f_born file Pz.BaTiO3-E0.BaTiO3-sc333.300.2.0

thermo_style custom step time temp press pe f_born v_efield v_Pz spcpu cpuremain

# dump 4a all custom 1000 dump.hyst.${MODEL}.${STRUCTURE}.${TEMP}.$L.${ITER}.bin id type xu yu zu fx fy fz
# dump_modify 4a sort id

fix nvt all nvt temp ${TEMP} ${TEMP} $(100*dt)
fix nvt all nvt temp 300 ${TEMP} $(100*dt)
fix nvt all nvt temp 300 300 $(100*dt)
fix nvt all nvt temp 300 300 0.2000000000000000111

run $(v_PERIOD)
run 100000
WARNING: non-constant efield is experimental, strongly distrust scalar/vector output (src/fix_addbornforce.cpp:193)
Per MPI rank memory allocation (min/avg/max) = 3.516 | 3.516 | 3.516 Mbytes
   Step          Time           Temp          Press          PotEng         f_born        v_efield         v_Pz          S/CPU         CPULeft    
         0   0              283.48244      124314        -807640.49     -291.74378      0.3636         0.054868773    0              0            
        10   0.02           313.93038      130821.23     -807636.54     -299.99272      0.36359993     0.056420178    28.625655      3493.0449    
        20   0.04           309.73696      136733.81     -807626.61     -309.44272      0.36359971     0.058197489    28.645035      3491.4991    
        30   0.06           294.28233      143876.91     -807617.86     -316.04077      0.36359935     0.059438456    28.632032      3491.2831    
        40   0.08           300.69469      142367.71     -807620.65     -314.19751      0.36359885     0.059091872    28.580914      3492.5586    
        50   0.1            310.39557      139634.12     -807625.83     -310.35997      0.36359821     0.058370242    28.616232      3492.3222    
        60   0.12           310.92696      131861.88     -807633.42     -302.92499      0.36359742     0.056972047    28.689621      3490.5589    
        70   0.14           301.50848      126801.13     -807639.51     -295.48207      0.36359649     0.055572376    28.625712      3490.3108    
        80   0.16           281.54757      123788.18     -807643.01     -289.24841      0.36359541     0.054400151    28.570147      3490.8859    
        90   0.18           297.19617      126270.51     -807641.1      -293.39904      0.36359419     0.055180963    28.569987      3491.2576    
       100   0.2            311.43193      130646.57     -807634.25     -302.40639      0.36359283     0.056875231    28.598451      3491.137     
       110   0.22           306.89999      138976.02     -807624.85     -311.18955      0.36359132     0.05852737     28.578997      3491.1908    
       120   0.24           297.56212      141847.48     -807621.08     -313.72382      0.36358968     0.059004273    28.537933      3491.5969    
       130   0.26           304.75816      142837.21     -807622.01     -313.86943      0.36358788     0.059031951    28.525471      3492.0034    
       140   0.28           303.1347       137308.86     -807625.62     -310.15992      0.36358595     0.058334584    28.562031      3491.9824    
       150   0.3            298.71632      131231.17     -807633.65     -301.59065      0.36358387     0.056723209    28.590822      3491.6822    
       160   0.32           290.81498      125612.77     -807641.57     -292.64805      0.36358165     0.055041618    28.634678      3491.0418    
       170   0.34           293.23014      123502.48     -807644.25     -290.47606      0.36357928     0.054633463    28.626359      3490.4955    
       180   0.36           292.58194      127081.03     -807638.93     -295.87819      0.36357677     0.055649895    28.565558      3490.3829    
       190   0.38           302.16573      131805.99     -807632.65     -303.73355      0.36357412     0.057127777    28.551608      3490.3355    
       200   0.4            304.62516      138727.7      -807627.13     -309.80671      0.36357132     0.058270496    28.587305      3490.0395    
       210   0.42           281.01423      142265.21     -807619.61     -314.26708      0.36356838     0.05910991     28.558926      3489.9036    
       220   0.44           295.43664      142014.55     -807620.27     -315.82357      0.3635653      0.059403172    28.614471      3489.4399    
       230   0.46           299.8836       136281.78     -807628.92     -308.06632      0.36356207     0.057944627    28.637449      3488.8647    
       240   0.48           290.68004      131009.34     -807635.85     -299.96833      0.3635587      0.056421988    28.546411      3488.7709    
       250   0.5            289.23047      124302.26     -807643.44     -292.37269      0.36355519     0.054993832    28.591284      3488.4373    
       260   0.52           280.36923      124647.23     -807642.35     -292.34696      0.36355153     0.054989545    28.645299      3487.8495    
       270   0.54           286.4835       126177.71     -807640.45     -295.30666      0.36354773     0.055546836    28.642227      3487.2933    
       280   0.56           300.79432      133416.87     -807634.62     -303.27373      0.36354379     0.05704605     28.60397       3486.9181    
       290   0.58           300.72373      138400.99     -807627.76     -310.32997      0.3635397      0.058373992    28.604947      3486.5407    
       300   0.6            285.20707      143846.43     -807619.64     -316.30139      0.36353547     0.059497925    28.608262      3486.1514    
       310   0.62           285.59972      139794.54     -807623.65     -312.43114      0.3635311      0.058770619    28.632622      3485.6692    
       320   0.64           304.38215      135875.66     -807631.94     -306.68663      0.36352658     0.057690751    28.651082      3485.1252    
       330   0.66           294.41507      127927.35     -807638.31     -298.95202      0.36352192     0.056236516    28.614871      3484.7265    
       340   0.68           283.61201      125143.53     -807641.11     -294.5471       0.36351712     0.055408629    28.619624      3484.3136    
       350   0.7            275.72315      125009.95     -807642.5      -292.00627      0.36351217     0.054931409    28.561444      3484.107     
       360   0.72           285.41625      128502.7      -807639.77     -296.0148       0.36350708     0.055686262    28.548642      3483.9358    
       370   0.74           307.81557      133621.85     -807633.4      -305.36226      0.36350185     0.057445533    28.585542      3483.6331    
       380   0.76           289.82089      139720.64     -807623.18     -312.89478      0.36349647     0.058863439    28.601553      3483.2769    
       390   0.78           301.16518      141661.1      -807622.91     -314.47424      0.36349095     0.059161475    28.612281      3482.8873    
       400   0.8            287.0112       139936.89     -807625.04     -310.09688      0.36348529     0.058338879    28.57651       3482.6087    
       410   0.82           301.1041       134838.98     -807630.35     -306.4482       0.36347948     0.057653369    28.606547      3482.2374    
       420   0.84           293.07978      128849.53     -807636.3      -298.98818      0.36347353     0.056250807    28.630515      3481.7978    
       430   0.86           283.33591      126065.65     -807641.08     -292.49602      0.36346744     0.055030311    28.619745      3481.3927    
       440   0.88           282.19191      126288.46     -807641.56     -291.51507      0.3634612      0.054846695    28.590764      3481.0704    
       450   0.9            290.37847      129737.69     -807635.38     -298.61284      0.36345482     0.056183083    28.577605      3480.7824    
       460   0.92           315.93339      135403.02     -807630.05     -307.22244      0.3634483      0.05780399     28.594402      3480.4473    
       470   0.94           309.75495      139962.78     -807624.23     -311.98737      0.36344163     0.05870159     28.593739      3480.1133    
       480   0.96           300.11238      142349.57     -807621.53     -313.12931      0.36343482     0.058917555    28.560498      3479.863     
       490   0.98           304.2635       139918.08     -807623.68     -311.43708      0.36342786     0.058600269    28.566818      3479.5929    
       500   1              308.36712      133890.07     -807630.3      -305.33673      0.36342077     0.057453545    28.592751      3479.2565    
       510   1.02           309.47804      128141.03     -807638.57     -9504.5338      0.36341353     0.05588912     28.445734      3479.272     
       520   1.04           286.31206      125498.74     -807640.97     -9323.1973      0.36340614     0.054823928    28.441892      3479.2826    
       530   1.06           294.29165      126747.79     -807639.38     -9406.0541      0.36339862     0.055312303    28.480175      3479.1908    
       540   1.08           307.21736      129668.19     -807635.41     -9591.4286      0.36339095     0.056403589    28.500663      3479.043     
       550   1.1            310.35302      136424.65     -807628.28     -9831.9547      0.36338313     0.057819276    28.448701      3479.0035    
       560   1.12           305.67865      139523.67     -807623.53     -9962.9945      0.36337518     0.058591171    28.463854      3478.9199    
       570   1.14           302.48916      142707.3      -807619.52     -10074.09       0.36336707     0.059245828    28.485145      3478.7809    
       580   1.16           303.5664       138609.52     -807624.42     -9925.1261      0.36335883     0.058371096    28.552929      3478.4918    
       590   1.18           300.90195      135204.48     -807630.42     -9717.5276      0.36335044     0.057151499    28.52188       3478.2649    
       600   1.2            310.2747       126575.03     -807640.58     -9435.7016      0.36334191     0.055495304    28.51453       3478.0487    
       610   1.22           292.53306      125771.29     -807639.66     -9384.1325      0.36333324     0.055193323    28.519511      3477.8182    
       620   1.24           291.1222       126482.45     -807638.82     -9406.4209      0.36332442     0.055325756    28.555657      3477.5127    
       630   1.26           307.81286      131292.26     -807635.01     -9602.4435      0.36331546     0.056480095    28.52134       3477.2722    
       640   1.28           315.46406      135807.85     -807629.43     -9819.7336      0.36330636     0.057759609    28.471562      3477.1234    
       650   1.3            298.07903      142215.01     -807620.37     -10033.257      0.36329711     0.059017054    28.5243        3476.8692    
       660   1.32           295.57839      142322.72     -807620.13     -10030.718      0.36328772     0.059003643    28.554164      3476.5569    
       670   1.34           307.99051      138906.16     -807626.54     -9881.2704      0.36327819     0.058126075    28.526744      3476.2934    
       680   1.36           307.28325      132042.46     -807633.42     -9659.8418      0.36326851     0.056825046    28.545534      3475.9935    
       690   1.38           294.38502      127722.78     -807637.79     -9463.9731      0.36325869     0.055674332    28.562253      3475.6627    
       700   1.4            296.20694      125932.22     -807641.05     -9369.0891      0.36324873     0.055117664    28.553259      3475.347     
       710   1.42           292.87035      126228.48     -807639.46     -9408.8139      0.36323863     0.055352902    28.505004      3475.1132    
       720   1.44           311.66955      131513.45     -807634.94     -9641.8164      0.36322838     0.056725277    28.497952      3474.8882    
       730   1.46           297.19422      138424.35     -807625.05     -9900.5797      0.36321798     0.058249315    28.514087      3474.6326    
       740   1.48           296.25025      142039.78     -807620.63     -10039.287      0.36320745     0.059067104    28.489673      3474.4149    
       750   1.5            291.96582      141516.38     -807622.16     -9975.5375      0.36319677     0.058693752    28.474172      3474.2188    
       760   1.52           307.86596      137620.36     -807628.17     -9857.2574      0.36318595     0.057999547    28.483688      3474.0035    
       770   1.54           298.46589      131203.9      -807633.43     -9651.0365      0.36317498     0.05678787     28.565638      3473.6547    
       780   1.56           295.59744      127402.69     -807639.58     -9444.2614      0.36316387     0.05557288     28.532878      3473.357     
       790   1.58           283.30654      124617.92     -807641.97     -9317.7304      0.36315262     0.054830032    28.533293      3473.0574    
       800   1.6            291.53513      127505.11     -807638.92     -9456.958       0.36314122     0.055651061    28.54924       3472.7322    
       810   1.62           296.56155      132066.41     -807632.84     -9682.7281      0.36312968     0.056981454    28.496959      3472.4851    
       820   1.64           302.0744       138965.74     -807625.95     -9930.1191      0.363118       0.058439194    28.532713      3472.1822    
       830   1.66           301.95786      140388.12     -807624.6      -9980.0324      0.36310618     0.058734848    28.562031      3471.8353    
       840   1.68           288.67507      141910.76     -807621.9      -10008.531      0.36309421     0.058904508    28.617484      3471.4081    
       850   1.7            292.36158      135748.13     -807628.68     -9816.7342      0.3630821      0.057777632    28.588486      3471.0242    
       860   1.72           300.20378      131883.88     -807635.09     -9647.5463      0.36306984     0.056783771    28.569069      3470.6685    
       870   1.74           276.08652      125805.56     -807640.45     -9375.389       0.36305745     0.055183786    28.562851      3470.3215    
       880   1.76           282.8028       126683.6      -807641.53     -9371.7528      0.3630449      0.055164288    28.53418       3470.0141    
       890   1.78           279.06935      126994.23     -807638.14     -9469.2715      0.36303222     0.055740253    28.51282       3469.7351    
       900   1.8            299.06881      133533.92     -807632.68     -9735.1999      0.36301939     0.057307648    28.495457      3469.4779    
       910   1.82           298.89522      136651.36     -807628.28     -9880.7198      0.36300642     0.05816635     28.517131      3469.1896    
       920   1.84           281.02687      142028.31     -807621.73     -10010.367      0.36299331     0.058931695    28.571737      3468.8278    
       930   1.86           291.8292       138925.86     -807624.58     -9971.4157      0.36298005     0.058704528    28.528028      3468.5233    
       940   1.88           293.77171      136302.62     -807628.89     -9841.7588      0.36296665     0.057943341    28.490631      3468.2664    
       950   1.9            291.52268      129747.8      -807637.21     -9566.8435      0.36295311     0.056326879    28.483904      3468.0162    
       960   1.92           286.86974      127143.4      -807641.76     -9396.2683      0.36293942     0.055324667    28.480391      3467.7683    
       970   1.94           286.44599      125656.12     -807641.87     -9389.2603      0.36292559     0.05528551     28.460877      3467.5429    
       980   1.96           294.76481      127599.58     -807638.38     -9536.4424      0.36291162     0.056154305    28.478565      3467.2927    
       990   1.98           301.0349       134168.78     -807633.64     -9712.3421      0.3628975      0.057192296    28.506909      3467.0057    
      1000   2              293.34079      137658.9      -807626.85     -9892.3972      0.36288325     0.058254861    28.466737      3466.7664    
      1010   2.02           291.53218      142116.52     -807621.91     -313.50832      0.36286884     0.059080873    28.613057      3466.3489    
      1020   2.04           287.57033      139769.42     -807623.87     -310.75557      0.3628543      0.058564463    28.593652      3465.9557    
      1030   2.06           300.66723      135034.83     -807630.74     -305.31609      0.36283961     0.057541676    28.627199      3465.5239    
      1040   2.08           305.52986      128262.96     -807639.58     -296.78608      0.36282478     0.055936347    28.628103      3465.0927    
      1050   2.1            281.84402      127820.85     -807637.37     -295.25261      0.3628098      0.055649626    28.641079      3464.6481    
      1060   2.12           282.36115      125304.64     -807639.53     -292.89254      0.36279469     0.055207097    28.662809      3464.1806    
      1070   2.14           300.03914      130501.84     -807636.82     -297.65951      0.36277943     0.056107979    28.586516      3463.8014    
      1080   2.16           303.15399      133041.35     -807631.55     -303.19342      0.36276402     0.057153532    28.597324      3463.4107    
      1090   2.18           295.29063      141773.69     -807620.88     -312.42178      0.36274848     0.058895651    28.633496      3462.9806    
      1100   2.2            297.13205      140550.06     -807621.29     -312.11206      0.36273279     0.05883981     28.602677      3462.5858    
      1110   2.22           311.63561      139909.16     -807625.35     -309.75915      0.36271695     0.058398784    28.584016      3462.2122    
      1120   2.24           308.82013      133081.48     -807631.52     -303.13655      0.36270098     0.057152746    28.604579      3461.8168    
      1130   2.26           298.92501      130884.21     -807633.13     -299.93415      0.36268486     0.056551484    28.582327      3461.4461    
      1140   2.28           294.64363      124858.09     -807639.53     -292.84715      0.3626686      0.055217733    28.57413       3461.0843    
      1150   2.3            292.60358      128069.5      -807638.7      -293.21643      0.36265219     0.055289863    28.576383      3460.7205    
      1160   2.32           301.78406      130278.44     -807635.42     -297.79585      0.36263564     0.056155936    28.559477      3460.3745    
      1170   2.34           312.9249       136008.03     -807627.69     -306.97055      0.36261895     0.057888692    28.560571      3460.0273    
      1180   2.36           307.33685      138755.09     -807623.74     -310.09139      0.36260212     0.058479935    28.55504       3459.6858    
      1190   2.38           316.48879      140201.21     -807625.04     -310.01012      0.36258514     0.058467346    28.558264      3459.3408    
      1200   2.4            305.97126      138633.33     -807625.28     -308.30991      0.36256802     0.058149436    28.614418      3458.9391    
      1210   2.42           305.71331      134504.99     -807630        -303.5568       0.36255076     0.057255691    28.618467      3458.5343    
      1220   2.44           302.28602      128582.54     -807636.63     -296.36164      0.36253335     0.055901252    28.654366      3458.0949    
      1230   2.46           295.98942      126770.04     -807640.12     -291.93721      0.3625158      0.055069359    28.656883      3457.6546    
      1240   2.48           289.66683      128046.49     -807636.29     -294.96341      0.36249811     0.055642919    28.646105      3457.2262    
      1250   2.5            309.68923      130896.97     -807634.08     -300.02454      0.36248028     0.056600454    28.585973      3456.857     
      1260   2.52           302.855        136765.03     -807627.15     -306.05795      0.3624623      0.057741537    28.572157      3456.5015    
      1270   2.54           304.98142      139208.39     -807624.45     -309.1653       0.36244418     0.058330692    28.581831      3456.1367    
      1280   2.56           304.13185      141624.65     -807621.53     -311.99604      0.36242592     0.058867739    28.575607      3455.7781    
      1290   2.58           299.87207      137113.06     -807625.21     -307.93999      0.36240751     0.058105389    28.578442      3455.417     
      1300   2.6            305.27725      133949.98     -807631.86     -301.98833      0.36238896     0.056985284    28.609106      3455.0276    
      1310   2.62           300.44646      127212.51     -807638.91     -294.42226      0.36237027     0.05556043     28.631755      3454.618     
      1320   2.64           292.16194      128142.77     -807638.37     -293.88727      0.36235143     0.055462356    28.548157      3454.2857    
      1330   2.66           296.30539      126609.32     -807638.93     -294.15687      0.36233245     0.055516142    28.574016      3453.9297    
      1340   2.68           309.63467      132409.94     -807634.78     -300.24209      0.36231333     0.056667594    28.556845      3453.5892    
      1350   2.7            302.63425      135936.86     -807628.89     -305.43242      0.36229407     0.05765028     28.590848      3453.2182    
      1360   2.72           299.84196      141036.06     -807622.47     -311.61367      0.36227466     0.05882014     28.628773      3452.8138    
      1370   2.74           294.68379      139574.72     -807622.07     -311.5298       0.36225511     0.058807482    28.608912      3452.4277    
      1380   2.76           307.56933      137279.14     -807628.22     -307.28747      0.36223542     0.058009811    28.618633      3452.0337    
      1390   2.78           300.27191      131475.95     -807634.29     -300.39545      0.36221558     0.056711841    28.660222      3451.6043    
      1400   2.8            292.3956       127748.97     -807637.75     -295.98438      0.3621956      0.055882154    28.649848      3451.185     
      1410   2.82           291.45185      126087.38     -807640.66     -293.09329      0.36217548     0.055339388    28.651579      3450.7652    
      1420   2.84           293.03982      127613.6      -807639.65     -294.4618       0.36215522     0.055600889    28.624961      3450.369     
      1430   2.86           300.85966      131651.31     -807635.08     -300.24842      0.36213481     0.056696725    28.610238      3449.9858    
      1440   2.88           294.42033      136354.01     -807627.48     -307.20815      0.36211426     0.058014242    28.657612      3449.5635    
      1450   2.9            285.91263      140757.82     -807621.99     -311.58301      0.36209357     0.058843768    28.605322      3449.1855    
      1460   2.92           291.63626      139320.35     -807624.92     -309.49318      0.36207273     0.058452457    28.602831      3448.81      
      1470   2.94           298.55626      136280.55     -807629.12     -306.35535      0.36205176     0.057863185    28.599066      3448.438     
      1480   2.96           292.21263      130904.46     -807633.43     -301.23983      0.36203064     0.056900304    28.613577      3448.0544    
      1490   2.98           293.07011      128217.39     -807639.42     -295.32167      0.36200937     0.055785717    28.622895      3447.6639    
      1500   3              284.73727      125527.16     -807641.73     -291.87705      0.36198796     0.055138296    28.684498      3447.2245    
      1510   3.02           290.4048       129026.17     -807638.19     -9479.5202      0.36196642     0.055964885    28.537107      3446.9038    
      1520   3.04           289.04963      131984.63     -807633.37     -9630.8135      0.36194472     0.056861494    28.594902      3446.5368    
      1530   3.06           295.26362      138161.96     -807626.82     -9863.2022      0.36192289     0.058237058    28.577986      3446.1834    
      1540   3.08           292.55911      138088.14     -807625.74     -9886.2321      0.36190091     0.058376582    28.530545      3445.8672    
      1550   3.1            298.5694       140195.53     -807625.36     -9917.656       0.36187879     0.058565715    28.491786      3445.5809    
      1560   3.12           298.64908      134289.9      -807629.93     -9770.6726      0.36185653     0.057701299    28.524037      3445.2687    
      1570   3.14           293.11278      132361.21     -807633.72     -9614.796       0.36183412     0.056784276    28.528021      3444.9529    
      1580   3.16           298.67037      125617.54     -807642.02     -9366.0833      0.36181157     0.055318845    28.485534      3444.6693    
      1590   3.18           291.86131      127387.79     -807639.6      -9398.615       0.36178888     0.055514468    28.49698       3444.3761    
      1600   3.2            303.52487      127636.84     -807638.15     -9487.673       0.36176605     0.056044041    28.453737      3444.115     
      1610   3.22           298.76039      134617.95     -807630.59     -9691.4816      0.36174307     0.057251582    28.443902      3443.8601    
      1620   3.24           303.77293      137068.69     -807628.08     -9779.2558      0.36171995     0.057773793    28.466697      3443.587     
      1630   3.26           301.29294      140690.11     -807622.35     -9935.8035      0.36169669     0.058702419    28.464417      3443.3146    
      1640   3.28           305.7101       139245.19     -807624        -9892.2697      0.36167329     0.058448996    28.459019      3443.0453    
      1650   3.3            300.62499      136319.82     -807628.1      -9727.4069      0.36164974     0.057478637    28.498704      3442.7458    
      1660   3.32           307.41076      131002.34     -807635.94     -9496.7072      0.36162605     0.056119123    28.512069      3442.4359    
      1670   3.34           290.71423      127296.31     -807636.58     -9397.2365      0.36160222     0.055534979    28.553639      3442.0955    
      1680   3.36           309.05335      127956.05     -807637.93     -9430.1145      0.36157824     0.055732974    28.570789      3441.7426    
      1690   3.38           306.841        128840.84     -807636.56     -9459.5122      0.36155413     0.055910446    28.608643      3441.3629    
      1700   3.4            303.51976      135584.19     -807629.4      -9670.7904      0.36152987     0.057163042    28.604968      3440.9861    
      1710   3.42           303.36823      137453.03     -807624.94     -9816.0628      0.36150546     0.058025648    28.543126      3440.6532    
      1720   3.44           309.85549      142537.75     -807621.34     -9954.2883      0.36148092     0.058846736    28.507284      3440.3452    
      1730   3.46           309.84081      137252.25     -807626.2      -9801.279       0.36145623     0.057946149    28.530005      3440.0209    
      1740   3.48           310.7465       136246.81     -807629.07     -9708.2055      0.3614314      0.057399832    28.526191      3439.6988    
      1750   3.5            312.97344      128592.62     -807637.23     -9461.2461      0.36140643     0.055943548    28.538034      3439.3683    
      1760   3.52           305.89765      128543.92     -807637.42     -9419.4688      0.36138131     0.055700394    28.524094      3439.0472    
      1770   3.54           303.83247      125042.57     -807640.56     -9315.1232      0.36135605     0.055087214    28.50082       3438.7416    
      1780   3.56           304.67656      131622.77     -807634.39     -9515.858       0.36133065     0.056278263    28.520804      3438.4219    
      1790   3.58           316.4863       133240.55     -807631.35     -9672.015       0.36130511     0.057205844    28.545174      3438.0855    
      1800   3.6            301.62722      140495.79     -807622.13     -9901.577       0.36127942     0.058567769    28.508583      3437.7734    
      1810   3.62           314.43903      138381.33     -807626        -9841.5862      0.3612536      0.058217085    28.469805      3437.4868    
      1820   3.64           309.45591      138965.35     -807625.34     -9842.0022      0.36122763     0.058223732    28.510474      3437.1725    
      1830   3.66           299.45868      133343.61     -807629.52     -9672.0681      0.36120151     0.057222566    28.522099      3436.8501    
      1840   3.68           303.37017      131031.48     -807634.63     -9527.9686      0.36117526     0.056374131    28.508169      3436.5366    
      1850   3.7            291.24591      125957.55     -807639.08     -9336.92        0.36114886     0.055247792    28.531432      3436.2074    
      1860   3.72           306.27687      128483.69     -807639.85     -9382.8931      0.36112232     0.055523902    28.53316       3435.877     
      1870   3.74           294.42089      130097.3      -807634.15     -9521.9708      0.36109564     0.056351067    28.557626      3435.5305    
      1880   3.76           299.97637      136072.22     -807628.97     -9716.1631      0.36106881     0.05750457     28.546557      3435.1911    
      1890   3.78           306.35514      137375.01     -807627.51     -9797.1833      0.36104184     0.057988414    28.497071      3434.8832    
      1900   3.8            296.17164      139298.87     -807624.19     -9862.7067      0.36101474     0.058380623    28.515726      3434.5629    
      1910   3.82           298.5999       137377.77     -807626.03     -9821.7439      0.36098748     0.05814254     28.555581      3434.2172    
      1920   3.84           297.59731      133125.73     -807631.61     -9641.4522      0.36096009     0.057079585    28.516686      3433.8959    
      1930   3.86           293.18441      129181.64     -807636.8      -9458.108       0.36093255     0.055998418    28.51856       3433.5731    
      1940   3.88           301.31438      126217.12     -807640.61     -9376.5107      0.36090487     0.055519564    28.501444      3433.2606    
      1950   3.9            292.58179      128139.53     -807637.12     -9452.9408      0.36087705     0.055976432    28.512892      3432.9407    
      1960   3.92           297.03798      130632.45     -807635.27     -9533.9067      0.36084909     0.056460254    28.581266      3432.5785    
      1970   3.94           299.91033      135393.16     -807630.75     -9692.5411      0.36082098     0.057404166    28.540839      3432.241     
      1980   3.96           299.35292      137803.43     -807626.63     -9825.9733      0.36079273     0.058198975    28.541112      3431.9033    
      1990   3.98           302.2516       140305.87     -807624.74     -9896.6041      0.36076434     0.058621933    28.586687      3431.5379    
      2000   4              306.18516      135328.43     -807630.24     -9740.5592      0.36073581     0.057702174    28.585591      3431.1734    
      2010   4.02           294.07938      133491.81     -807632.98     -299.90927      0.36070713     0.056856834    28.642002      3430.7754    
      2020   4.04           296.10926      126945.72     -807638.79     -294.43842      0.36067831     0.055824129    28.605682      3430.3994    
      2030   4.06           294.90245      127946.79     -807638.82     -294.09991      0.36064935     0.055764428    28.569358      3430.045     
      2040   4.08           278.31227      127135.18     -807637.33     -293.36439      0.36062025     0.055629454    28.598546      3429.6736    
      2050   4.1            288.64855      132266.77     -807633.77     -298.25507      0.36059101     0.05656144     28.612697      3429.2942    
      2060   4.12           303.02785      133394.02     -807631.71     -302.30184      0.36056162     0.057333546    28.626758      3428.9068    
      2070   4.14           298.93017      139245.26     -807624.22     -309.10443      0.36053209     0.058628505    28.57409       3428.5503    
      2080   4.16           298.20328      137138.66     -807626.72     -306.41761      0.36050242     0.058123674    28.621528      3428.1666    
      2090   4.18           296.23495      137054.06     -807628.31     -304.25979      0.36047261     0.057719134    28.649561      3427.7672    
      2100   4.2            295.7991       130914.27     -807633.58     -298.92405      0.36044265     0.056711638    28.622048      3427.3838    
      2110   4.22           301.26825      130276.99     -807635.67     -297.32756      0.36041256     0.056413465    28.61992       3427.002     
      2120   4.24           289.42079      126675.82     -807638.87     -292.32907      0.36038232     0.055469729    28.614086      3426.6238    
      2130   4.26           295.34727      129897.16     -807638.16     -293.5334       0.36035193     0.055702948    28.621133      3426.2419    
      2140   4.28           299.78761      130908.3      -807633.72     -298.37054      0.36032141     0.056625674    28.63955       3425.8501    
      2150   4.3            310.30842      136304.22     -807628.16     -305.05487      0.36029075     0.057899175    28.651281      3425.4521    
      2160   4.32           296.72383      137520.42     -807625.25     -305.68633      0.36025994     0.058023988    28.645681      3425.0577    
      2170   4.34           302.46841      138146.21     -807626.25     -305.00951      0.36022899     0.057900491    28.674255      3424.648     
      2180   4.36           308.80397      135736.44     -807628.26     -303.48403      0.36019789     0.057615878    28.626918      3424.2648    
      2190   4.38           306.78879      132147.71     -807631.71     -299.31227      0.36016666     0.056828806    28.616728      3423.8874    
      2200   4.4            310.84737      128653.86     -807636.66     -294.4653       0.36013528     0.055913409    28.637785      3423.4989    
      2210   4.42           311.10392      127158.1      -807639.38     -291.5316       0.36010377     0.055361199    28.636984      3423.1111    
      2220   4.44           309.43235      129898.29     -807635.07     -295.43774      0.36007211     0.0561079      28.551333      3422.7698    
      2230   4.46           316.1839       132967.22     -807631.1      -300.23383      0.3600403      0.057023783    28.538057      3422.4356    
      2240   4.48           300.98092      137441.48     -807624.98     -304.07606      0.36000836     0.057758667    28.555507      3422.0919    
      2250   4.5            311.5334       137861.8      -807626.25     -304.22825      0.35997627     0.057792726    28.620206      3421.7138    
      2260   4.52           308.53006      139260.87     -807623.92     -306.08334      0.35994404     0.058150335    28.621436      3421.3352    
      2270   4.54           310.68136      135939.89     -807626.95     -303.37385      0.35991167     0.057640763    28.581351      3420.978     
      2280   4.56           308.01339      132371.06     -807632.19     -297.67876      0.35987916     0.056563812    28.594109      3420.6142    
      2290   4.58           317.23068      127609.39     -807639.2      -291.92864      0.35984651     0.055476229    28.605963      3420.2443    
      2300   4.6            300.51843      128602.27     -807635.77     -293.08564      0.35981371     0.055701174    28.63558       3419.8593    
      2310   4.62           302.02307      130356.45     -807633.01     -296.1829       0.35978077     0.056294964    28.650977      3419.4666    
      2320   4.64           307.89141      133014.39     -807630.91     -299.19197      0.35974769     0.056872122    28.63865       3419.0806    
      2330   4.66           308.94626      136606.22     -807627.58     -302.7176       0.35971447     0.057547608    28.635328      3418.6966    
      2340   4.68           310.56329      138456.2      -807624.93     -305.78108      0.35968111     0.058135378    28.659625      3418.3006    
      2350   4.7            310.48669      137889.04     -807624.08     -306.75461      0.3596476      0.058325899    28.661541      3417.904     
      2360   4.72           310.99392      133808.7      -807630.65     -300.33729      0.35961396     0.057111063    28.656138      3417.5105    
      2370   4.74           301.96229      130462.81     -807634.65     -295.20575      0.35958017     0.056140542    28.631068      3417.13      
      2380   4.76           309.75815      127935.76     -807637.62     -293.49485      0.35954624     0.05582044     28.662173      3416.7342    
      2390   4.78           293.165        128621.29     -807635.29     -293.73912      0.35951216     0.055872193    28.615729      3416.3619    
      2400   4.8            297.97448      130654.08     -807635.33     -294.44486      0.35947795     0.056011762    28.608315      3415.9935    
      2410   4.82           302.14829      132956        -807632.61     -297.95501      0.35944359     0.056684911    28.566249      3415.6461    
      2420   4.84           302.61415      137095.88     -807626.15     -304.64224      0.35940909     0.057962696    28.523972      3415.3196    
      2430   4.86           304.71705      137387.53     -807625.52     -305.73509      0.35937446     0.058176234    28.544085      3414.983     
      2440   4.88           296.81677      138482.17     -807626.03     -304.09813      0.35933967     0.057870349    28.555658      3414.6406    
      2450   4.9            299.77924      132728.28     -807632.31     -298.41505      0.35930475     0.056794369    28.552737      3414.2995    
      2460   4.92           305.62283      131800.11     -807633.82     -297.79586      0.35926969     0.056682056    28.588739      3413.9409    
      2470   4.94           298.05877      127779.43     -807636.65     -294.05751      0.35923448     0.05597599     28.650934      3413.5524    
      2480   4.96           295.10183      129148.19     -807637.13     -293.13464      0.35919913     0.055805806    28.613763      3413.182     
      2490   4.98           288.83253      129490.83     -807635.9      -293.65634      0.35916364     0.055910649    28.585605      3412.8253    
      2500   5              311.77946      134102.46     -807632.1      -300.75752      0.35912801     0.057268358    28.580693      3412.471     
[...]
     98740   197.48         292.86096      136084.45     -807628.28     -9759.0212      0.36236891     0.057550999    29.35316       42.907868    
     98750   197.5          301.2133       131584.37     -807633.25     -9644.5153      0.36238762     0.056872799    29.380789      42.567327    
     98760   197.52         290.34571      135024.07     -807630.52     -9683.802       0.36240618     0.057101544    29.394572      42.226784    
     98770   197.54         296.02877      131855.86     -807633.41     -9624.3572      0.36242459     0.056748138    29.387356      41.886242    
     98780   197.56         293.14749      134548.12     -807630.93     -9692.2767      0.36244287     0.05714573     29.421831      41.545696    
     98790   197.58         297.86135      132152.86     -807633.63     -9633.6914      0.362461       0.056797469    29.434829      41.205147    
     98800   197.6          304.45917      134620.88     -807632        -9717.344       0.36247899     0.057287818    29.39103       40.864605    
     98810   197.62         300.93087      132416.2      -807631.91     -9710.8926      0.36249683     0.057246966    29.395465      40.524063    
     98820   197.64         292.30111      135444.76     -807629.62     -9746.9183      0.36251453     0.057456536    29.389691      40.183521    
     98830   197.66         296.20755      132918.83     -807632.44     -9678.3549      0.36253209     0.057049603    29.363526      39.842983    
     98840   197.68         296.29653      132679.07     -807632.4      -9682.3684      0.36254951     0.057070519    29.362623      39.502445    
     98850   197.7          304.61352      132218.16     -807634.2      -9666.3458      0.36256678     0.056973363    29.402467      39.161901    
     98860   197.72         284.04379      132882.89     -807631.53     -9662.784       0.36258391     0.056949679    29.390125      38.82136     
     98870   197.74         302.09199      132299.73     -807634.3      -9656.9065      0.3626009      0.056912372    29.402509      38.480817    
     98880   197.76         295.16493      132612.5      -807633.3      -9663.1652      0.36261774     0.056946612    29.342152      38.140282    
     98890   197.78         294.5934       134135.38     -807630.62     -9747.0345      0.36263445     0.057438222    29.303065      37.799751    
     98900   197.8          290.70407      133551.05     -807631.04     -9718.8624      0.362651       0.057269592    29.37892       37.459211    
     98910   197.82         297.70303      134540        -807631.47     -9735.8033      0.36266742     0.057366822    29.37434       37.118672    
     98920   197.84         287.77812      132690.78     -807631.48     -9693.1355      0.36268369     0.057112845    29.383852      36.778131    
     98930   197.86         297.08058      134261.78     -807631.32     -9738.6392      0.36269982     0.057378406    29.40288       36.437588    
     98940   197.88         298.04993      131382.94     -807634.32     -9647.3474      0.36271581     0.056838025    29.39556       36.097046    
     98950   197.9          297.52753      134100.96     -807633.02     -9679.9669      0.36273165     0.057027713    29.398228      35.756504    
     98960   197.92         303.99253      130587.88     -807635.44     -9632.8937      0.36274735     0.056747935    29.413797      35.41596     
     98970   197.94         289.55094      135476.31     -807629.76     -9743.2847      0.36276291     0.057395793    29.394432      35.075419    
     98980   197.96         288.00903      132235.62     -807631.29     -9687.9094      0.36277832     0.057067163    29.345368      34.734883    
     98990   197.98         296.77004      136337.61     -807630.01     -9759.2823      0.36279359     0.057485169    29.375706      34.394344    
     99000   198            291.13582      132560.19     -807630.8      -9706.2842      0.36280872     0.05717061     29.351288      34.053807    
     99010   198.02         299.96905      136316.03     -807629.5      -305.51203      0.3628237      0.05758113     29.450254      33.713259    
     99020   198.04         300.23452      132031.87     -807633.32     -301.63067      0.36283855     0.056847268    29.514725      33.372704    
     99030   198.06         301.71734      134379.81     -807632.29     -302.47945      0.36285324     0.057004925    29.529961      33.032148    
     99040   198.08         307.67847      129996.18     -807634.86     -300.60467      0.3628678      0.056649334    29.488417      32.691596    
     99050   198.1          299.74613      134540.27     -807630.7      -303.29093      0.36288221     0.057153294    29.450236      32.35105     
     99060   198.12         292.23522      131493.88     -807631.26     -301.58419      0.36289648     0.056829434    29.451956      32.010503    
     99070   198.14         301.91919      136256.4      -807629.4      -304.45814      0.36291061     0.057368758    29.467546      31.669954    
     99080   198.16         296.56293      134070.69     -807629.59     -303.44353      0.36292459     0.057175372    29.439748      31.329409    
     99090   198.18         303.45451      136520.22     -807627.37     -306.30299      0.36293843     0.057711957    29.429818      30.988865    
     99100   198.2          305.73459      133069.99     -807630.6      -303.32684      0.36295213     0.05714905     29.447741      30.64832     
     99110   198.22         315.856        134552.67     -807631.12     -303.99554      0.36296568     0.057272899    29.429697      30.307776    
     99120   198.24         308.31297      132218.69     -807631.59     -302.49064      0.36297909     0.05698727     29.441928      29.967231    
     99130   198.26         301.98995      134039.13     -807630.27     -302.79046      0.36299236     0.057041669    29.391517      29.626692    
     99140   198.28         308.25287      132830.61     -807632.21     -301.69221      0.36300548     0.056832719    29.444289      29.286147    
     99150   198.3          309.57855      133271.95     -807632.15     -301.91576      0.36301846     0.056872797    29.462095      28.945601    
     99160   198.32         307.53225      133884.48     -807629.94     -303.84545      0.3630313      0.057234275    29.432698      28.605058    
     99170   198.34         304.56607      134641.84     -807629.46     -303.92862      0.36304399     0.057247939    29.518096      28.264507    
     99180   198.36         310.96658      134904.96     -807630.39     -303.83634      0.36305655     0.057228579    29.44349       27.923963    
     99190   198.38         311.55345      133227.73     -807631.48     -302.90598      0.36306895     0.057051392    29.441044      27.58342     
     99200   198.4          317.01398      134972.84     -807630.67     -304.50166      0.36308122     0.057349997    29.454065      27.242876    
     99210   198.42         294.05464      132674.46     -807629.53     -302.52664      0.36309334     0.056976119    29.448528      26.902332    
     99220   198.44         305.01861      133927.79     -807631.04     -302.57454      0.36310532     0.05698326     29.457767      26.561788    
     99230   198.46         299.02865      131682.22     -807632.09     -300.89834      0.36311715     0.056665737    29.435233      26.221246    
     99240   198.48         305.51247      135651.87     -807628.89     -305.05606      0.36312885     0.057446878    29.479941      25.8807      
     99250   198.5          304.2564       132659.29     -807630.57     -303.43838      0.3631404      0.057140425    29.529645      25.54015     
     99260   198.52         302.87103      136711.29     -807629.34     -304.42376      0.3631518      0.057324181    29.542025      25.1996      
     99270   198.54         303.96707      133521.21     -807631.14     -303.11253      0.36316306     0.057075502    29.527081      24.859051    
     99280   198.56         305.68399      137175.19     -807628.25     -306.29732      0.36317418     0.057673425    29.480051      24.518506    
     99290   198.58         299.53906      131822.84     -807631.63     -302.27897      0.36318516     0.05691508     29.469366      24.177963    
     99300   198.6          307.3854       133824.74     -807633.1      -301.95021      0.36319599     0.056851484    29.462477      23.83742     
     99310   198.62         300.3111       130795.63     -807633.7      -300.63667      0.36320668     0.056602504    29.458931      23.496878    
     99320   198.64         310.33756      134456.86     -807631.87     -303.93586      0.36321723     0.057221998    29.472029      23.156336    
     99330   198.66         305.40139      131172.75     -807633.34     -302.05942      0.36322763     0.056867093    29.47647       22.815793    
     99340   198.68         296.91209      136436.25     -807629.99     -304.22526      0.36323789     0.057273227    29.532739      22.475246    
     99350   198.7          305.43661      132941.13     -807632.01     -303.70677      0.36324801     0.057174024    29.530899      22.134699    
     99360   198.72         299.5906       136781        -807628.16     -306.71331      0.36325798     0.05773843     29.48793       21.794156    
     99370   198.74         297.6802       132734.55     -807631.82     -302.99966      0.36326781     0.057037796    29.427663      21.453618    
     99380   198.76         301.47234      133742.33     -807632.54     -302.78268      0.3632775      0.056995433    29.369173      21.113084    
     99390   198.78         304.91866      131200.48     -807634.35     -301.58162      0.36328704     0.056767855    29.340225      20.772552    
     99400   198.8          301.58805      133337.5      -807631.59     -303.95177      0.36329644     0.057212517    29.368239      20.432018    
     99410   198.82         302.1905       132745.63     -807633.11     -302.57328      0.3633057      0.056951593    29.404058      20.091482    
     99420   198.84         291.7689       134452.83     -807631.3      -302.95658      0.36331481     0.057022309    29.432956      19.750944    
     99430   198.86         299.23618      134191.72     -807630.86     -304.53284      0.36332378     0.057317576    29.455742      19.410404    
     99440   198.88         295.36057      135067.27     -807629.17     -305.72554      0.36333261     0.057540663    29.383921      19.06987     
     99450   198.9          295.654        134291.82     -807629.95     -304.90803      0.36334129     0.057385428    29.459487      18.72933     
     99460   198.92         307.26071      132625.13     -807634.1      -302.35801      0.36334983     0.056904161    29.452591      18.388792    
     99470   198.94         302.45239      133594.91     -807632.92     -302.86974      0.36335823     0.056999154    29.442325      18.048254    
     99480   198.96         300.19025      132299.3      -807632        -303.55984      0.36336648     0.05712773     29.487869      17.707713    
     99490   198.98         296.79319      133715.28     -807631.46     -303.55251      0.3633746      0.057125074    29.521953      17.367171    
     99500   199            294.7624       132912.77     -807633.26     -301.46733      0.36338256     0.056731425    29.4794        17.026632    
     99510   199.02         297.7801       134795.84     -807630.48     -9747.6679      0.36339039     0.057322461    29.462033      16.686094    
     99520   199.04         292.35527      134055.36     -807628.82     -9777.9914      0.36339807     0.057499568    29.414412      16.345558    
     99530   199.06         305.99533      134699.72     -807630.94     -9768.2684      0.3634056      0.0574412      29.390152      16.005025    
     99540   199.08         291.7824       132875.95     -807631.85     -9675.2142      0.363413       0.056892848    29.366601      15.664492    
     99550   199.1          300.5042       134441.41     -807631        -9739.1447      0.36342025     0.057267633    29.3755        15.323959    
     99560   199.12         297.97323      132704.33     -807631.28     -9721.9925      0.36342736     0.057165658    29.386521      14.983426    
     99570   199.14         295.78922      133861.97     -807631.24     -9709.8132      0.36343432     0.057092949    29.443022      14.642889    
     99580   199.16         298.06273      131651.8      -807634.43     -9616.8982      0.36344114     0.056545555    29.418177      14.302355    
     99590   199.18         297.56942      134207.56     -807631.25     -9714.8296      0.36344782     0.057120324    29.387112      13.961821    
     99600   199.2          306.14595      133158.08     -807630.8      -9769.4597      0.36345435     0.0574405      29.363294      13.621289    
     99610   199.22         299.08021      135778.63     -807629.57     -9771.7292      0.36346074     0.057452833    29.38365       13.280756    
     99620   199.24         310.50743      133258.29     -807633.55     -9694.8021      0.36346699     0.056999561    29.352315      12.940225    
     99630   199.26         294.66199      136144.35     -807629.03     -9767.7434      0.3634731      0.057427447    29.356461      12.599693    
     99640   199.28         288.2924       133118.62     -807628.85     -9746.8293      0.36347906     0.057303547    29.363126      12.259161    
     99650   199.3          301.79416      133024.64     -807632.35     -9689.4404      0.36348487     0.056965235    29.370107      11.918628    
     99660   199.32         290.0812       130817.43     -807633.37     -9604.0499      0.36349055     0.056462334    29.393096      11.578095    
     99670   199.34         306.39277      133343.19     -807631.78     -9724.079       0.36349608     0.057167117    29.40209       11.237561    
     99680   199.36         307.58669      132378.65     -807631.96     -9724.2873      0.36350147     0.057167494    29.431238      10.897027    
     99690   199.38         300.58444      134637.76     -807630.94     -9720.0311      0.36350671     0.057141648    29.418183      10.556493    
     99700   199.4          301.34361      134015.84     -807631.48     -9705.3663      0.36351181     0.057054637    29.36633       10.215961    
     99710   199.42         296.87521      135478.9      -807627.56     -9807.0974      0.36351677     0.057651894    29.335512      9.8754297    
     99720   199.44         295.00834      135313.57     -807627.97     -9785.8308      0.36352158     0.057526115    29.387455      9.5348969    
     99730   199.46         286.49145      134631.5      -807629.65     -9690.3593      0.36352625     0.056964152    29.392626      9.1943641    
     99740   199.48         303.63736      132798.5      -807633.15     -9649.938       0.36353078     0.056725832    29.440243      8.8538298    
     99750   199.5          301.85773      131894.17     -807631.54     -9691.7987      0.36353516     0.056971218    29.409904      8.5132966    
     99760   199.52         309.74133      132479.63     -807631.69     -9716.4506      0.3635394      0.057115463    29.431867      8.1727629    
     99770   199.54         307.27582      133080.91     -807633.01     -9659.342       0.3635435      0.056779126    29.399687      7.8322302    
     99780   199.56         297.16606      135788.82     -807629.63     -9718.0144      0.36354745     0.05712339     29.452482      7.4916963    
     99790   199.58         299.43851      135414.09     -807627.8      -9784.6941      0.36355126     0.057514737    29.432049      7.151163     
     99800   199.6          310.06688      135499.02     -807627.73     -9827.8126      0.36355493     0.057767606    29.351755      6.8106318    
     99810   199.62         295.85349      134386.62     -807628.95     -9721.7131      0.36355845     0.057143402    29.370335      6.4701001    
     99820   199.64         296.93514      134487.77     -807629.66     -9696.34        0.36356183     0.056993731    29.440013      6.1295669    
     99830   199.66         307.12493      132242.11     -807631.47     -9680.606       0.36356507     0.056900742    29.430137      5.7890342    
     99840   199.68         313.75838      133424.19     -807631.2      -9711.6941      0.36356816     0.057082987    29.425607      5.4485017    
     99850   199.7          309.60113      132447.8      -807632.88     -9632.7857      0.36357111     0.056618723    29.360693      5.1079704    
     99860   199.72         303.73428      134909.23     -807630.34     -9682.0576      0.36357392     0.056907889    29.305137      4.76744      
     99870   199.74         309.30725      135011.35     -807628.78     -9754.5248      0.36357658     0.057333407    29.366071      4.4269086    
     99880   199.76         299.46701      136782.65     -807625.19     -9822.2094      0.3635791      0.057730832    29.383047      4.0863769    
     99890   199.78         318.67264      135122.37     -807630.72     -9727.622       0.36358148     0.057174513    29.378977      3.7458453    
     99900   199.8          301.54343      135571.22     -807628.11     -9729.3502      0.36358371     0.057184319    29.440533      3.4053131    
     99910   199.82         307.74732      133796.52     -807628.85     -9735.7461      0.3635858      0.057221583    29.45476       3.0647808    
     99920   199.84         318.29844      133141.42     -807631.33     -9699.1716      0.36358775     0.057006311    29.441538      2.7242489    
     99930   199.86         307.39313      132071.53     -807632.38     -9618.1411      0.36358955     0.056529779    29.4468        2.3837172    
     99940   199.88         308.6008       133076.4      -807631.13     -9664.6665      0.36359121     0.056802969    29.399934      2.0431859    
     99950   199.9          313.45791      133837        -807629.88     -9729.4123      0.36359273     0.057183267    29.411644      1.7026547    
     99960   199.92         310.6869       134591.38     -807629.33     -9739.0749      0.3635941      0.057239841    29.420214      1.3621235    
     99970   199.94         316.40498      134763.04     -807630.13     -9743.2689      0.36359533     0.057264297    29.386014      1.0215925    
     99980   199.96         305.16956      134288.7      -807628.09     -9766.6201      0.36359641     0.057401368    29.392239      0.68106163   
     99990   199.98         306.14683      135467.99     -807628.14     -9775.1745      0.36359736     0.057451496    29.416394      0.34053076   
    100000   200            306.24038      133776.47     -807630.74     -9703.3824      0.36359816     0.057029428    29.30819       0            
Loop time of 3405.31 on 32 procs for 100000 steps with 1080 atoms

Performance: 5.074 ns/day, 4.730 hours/ns, 29.366 timesteps/s, 31.715 katom-step/s
61.4% CPU use with 32 MPI tasks x 1 OpenMP threads

MPI task timing breakdown:
Section |  min time  |  avg time  |  max time  |%varavg| %total
---------------------------------------------------------------
Pair    | 2484.3     | 2801.4     | 3049.2     | 242.6 | 82.27
Neigh   | 0.0016612  | 0.023277   | 0.052368   |  10.4 |  0.00
Comm    | 280.95     | 528.84     | 845.84     | 558.3 | 15.53
Output  | 2.4212     | 2.4263     | 2.4335     |   0.2 |  0.07
Modify  | 66.011     | 66.357     | 66.768     |   2.3 |  1.95
Other   |            | 6.243      |            |       |  0.18

Nlocal:          33.75 ave          41 max          27 min
Histogram: 4 2 4 3 3 4 2 6 0 4
Nghost:           1044 ave        1057 max        1025 min
Histogram: 1 1 0 3 6 5 5 6 3 2
Neighs:              0 ave           0 max           0 min
Histogram: 32 0 0 0 0 0 0 0 0 0
FullNghs:      5328.81 ave        6532 max        4265 min
Histogram: 4 3 3 4 3 3 3 5 1 3

Total # of neighbors = 170522
Ave neighs/atom = 157.89074
Neighbor list builds = 4
Dangerous builds = 0

Total wall time: 1:00:16
