
units		metal
atom_style	atomic

read_data ${STRUCTURE}.data
read_data BaTiO3-sc333.data
Reading data file ...
  orthogonal box = (0 0 0) to (11.898253 11.898253 12.912076)
  2 by 4 by 4 MPI processor grid
  reading atoms ...
  135 atoms
  read_data CPU = 0.030 seconds
replicate $L $L $L
replicate 2 $L $L
replicate 2 2 $L
replicate 2 2 2
Replication is creating a 2x2x2 = 8 times larger system...
  orthogonal box = (0 0 0) to (23.796507 23.796507 25.824152)
  2 by 4 by 4 MPI processor grid
  1080 atoms
  replicate CPU = 0.004 seconds

pair_style allegro
pair_coeff	* * ${MODEL}.pth Ba Ti O
pair_coeff	* * BaTiO3-E0.pth Ba Ti O
mass 1 137.3
mass 2 47.9
mass 3 15.9994

timestep 0.002
compute polarization all allegro polarization 3
compute allegro will evaluate the quantity polarization of length 3 (src/compute_allegro.cpp:53)
compute polarizability all allegro polarizability 9
compute allegro will evaluate the quantity polarizability of length 9 (src/compute_allegro.cpp:53)

thermo_style custom pe fmax fnorm spcpu cpuremain

variable efield equal 1e-2*36.36
fix born all addbornforce 0.0 0.0 ${efield}
fix born all addbornforce 0.0 0.0 0.3636

thermo 10
min_style fire
#minimize 0.0 1e-6 100 100
velocity all create ${TEMP} ${SEED} dist gaussian rot yes mom yes
velocity all create 300 ${SEED} dist gaussian rot yes mom yes
velocity all create 300 12935 dist gaussian rot yes mom yes
fix nvt all nvt temp ${TEMP} ${TEMP} $(100*dt)
fix nvt all nvt temp 300 ${TEMP} $(100*dt)
fix nvt all nvt temp 300 300 $(100*dt)
fix nvt all nvt temp 300 300 0.2000000000000000111
run 5000
Neighbor list info ...
  update: every = 1 steps, delay = 0 steps, check = yes
  max neighbors/atom: 2000, page size: 100000
  master list distance cutoff = 8
  ghost atom cutoff = 8
  binsize = 8, bins = 3 3 4
  1 neighbor lists, perpetual/occasional/extra = 1 0 0
  (1) pair allegro/kk, perpetual
      attributes: full, newton on, kokkos_device
      pair build: full/bin/kk/device
      stencil: full/bin/3d
      bin: kk/device
Per MPI rank memory allocation (min/avg/max) = 3.516 | 3.516 | 3.516 Mbytes
    PotEng          Fmax          Fnorm          S/CPU         CPULeft    
-807708.29      1.595454       37.041568      0              0            
-807647.94      3.293669       45.078728      2.2630612      2204.9789    
-807635.6       2.6241136      35.648135      25.92355       1196.3317    
-807602.11      3.4868864      39.701819      25.920161      859.86718    
-807604.18      4.3058623      51.406395      25.852072      691.568      
-807569.03      4.2350382      41.325388      25.810252      590.49582    
-807603.72      3.0382626      39.087219      25.912407      522.85946    
-807644.08      3.8203329      36.076801      25.921574      474.4279     
-807686.2       2.6997423      34.88893       25.890952      438.03585    
-807668.99      3.1614097      34.209861      25.887633      409.64779    
-807653.58      3.4032458      34.271725      25.940688      386.82137    
-807658.24      2.6557716      26.041368      25.921583      368.08776    
-807631.13      2.8205455      30.66431       25.919537      352.41335    
-807587.65      3.321028       38.686292      25.886584      339.10943    
-807571.76      2.8347628      37.142722      25.9041        327.64184    
-807632.36      3.0069494      31.21884       25.905862      317.6509     
-807658.43      3.5662357      29.590391      25.900319      308.86309    
-807667.67      2.7716243      33.366642      25.877709      301.07332    
-807648.63      4.3027294      43.260166      25.917065      294.09041    
-807679.67      2.9320724      34.876738      25.906945      287.80575    
-807643.76      4.7611778      38.056963      25.868289      282.1248     
-807618.92      3.3536562      38.622347      25.893995      276.93932    
-807562.1       4.4206461      44.561698      25.930263      272.17841    
-807606.36      4.0150812      48.189907      25.89356       267.80929    
-807617.07      3.7094317      37.604582      25.859477      263.78218    
-807646.6       3.0242055      34.630969      25.910166      260.03192    
-807642.44      5.0339221      45.723504      25.929826      256.53512    
-807683.54      2.7872901      37.204582      25.89555       253.27772    
-807662.41      3.383426       35.929584      25.833182      250.24113    
-807641.11      3.1085364      32.152691      25.914649      247.3675     
-807603.91      3.5321617      35.76374       25.920025      244.65845    
-807606.34      3.4623959      42.880364      25.86848       242.11093    
-807599.11      3.2659149      35.63216       25.800364      239.7134     
-807614.12      3.7380903      33.377666      25.903767      237.41577    
-807641.39      3.902373       31.447007      25.961581      235.21882    
-807675.63      2.6899015      31.504647      25.948529      233.12796    
-807677.61      2.9476616      31.927216      25.891045      231.14289    
-807648.04      3.5827578      36.385546      25.940185      229.23508    
-807645.2       2.8420583      29.924347      25.950072      227.40561    
-807624.21      2.8240421      32.990237      25.947824      225.65059    
-807603.26      3.8232541      42.456379      25.901556      223.97197    
-807575.27      3.6846303      39.528417      25.953553      222.34774    
-807624.49      2.7869091      34.319621      25.980329      220.77819    
-807653.29      3.4306104      33.48259       25.938291      219.27035    
-807676.52      2.8945212      33.817631      25.899738      217.81948    
-807643.91      4.37599        44.834998      25.987808      216.4027     
-807665.97      2.7493236      34.223315      25.990247      215.03043    
-807645.47      3.660964       35.80099       25.999332      213.69889    
-807626.91      3.0876406      37.430481      25.992748      212.40772    
-807566.9       3.7355498      42.890878      26.007774      211.15151    
-807603.09      3.7747947      42.540838      25.988023      209.93279    
-807625.53      4.4224079      35.838255      25.939694      208.75308    
-807658.91      2.9107696      32.77246       25.92788       207.60544    
-807641.88      4.6656907      42.378456      25.991268      206.47862    
-807673.36      2.6125913      34.081847      25.959456      205.38317    
-807665.5       3.3491579      33.198306      25.924814      204.31772    
-807646.02      4.0086633      30.329315      25.965726      203.27172    
-807600.26      3.0281273      33.839997      26.010239      202.24379    
-807600.31      3.8962604      37.377814      25.983674      201.24104    
-807608.82      3.5567842      37.246822      25.898583      200.26869    
-807625.51      3.3095326      30.762937      25.969545      199.30815    
-807638.04      3.3522659      32.391407      25.98317       198.36502    
-807666.11      2.879127       32.657658      25.937748      197.44465    
-807675.8       2.5752298      34.808299      25.851118      196.55023    
-807650.07      3.8633056      36.457024      25.908232      195.66586    
-807632.81      3.3462572      34.330262      25.996242      194.78809    
-807615.98      3.8617012      34.916099      25.963598      193.92843    
-807606.15      4.2988208      44.41535       25.875317      193.09143    
-807586.05      3.9564037      39.419291      25.962798      192.25941    
-807616.83      2.9002402      35.145102      25.946091      191.44189    
-807646.19      3.8134136      35.806711      25.965641      190.63494    
-807675.48      3.3839575      35.432746      25.917109      189.84422    
-807649.46      3.9595248      42.139006      25.956345      189.06128    
-807653.98      3.5510893      34.836618      25.995067      188.28589    
-807642.2       3.562001       34.597915      25.950488      187.52485    
-807628.02      3.4447376      37.827065      25.930002      186.77556    
-807579.14      3.3864594      39.173046      25.938129      186.03517    
-807592.21      3.2295104      40.280499      25.949326      185.30308    
-807627.97      3.3642752      33.073812      25.897346      184.58406    
-807661.16      2.5991339      32.974588      25.932581      183.87067    
-807651.82      3.8580908      37.462583      25.984438      183.16144    
-807659         4.5948466      35.599329      25.844515      182.471      
-807663.76      3.167378       33.368691      25.921731      181.78208    
-807646.98      3.4930953      32.216001      25.915134      181.10096    
-807604.41      3.4534769      35.823996      25.953771      180.42403    
-807587.76      3.8811101      38.378746      25.933403      179.75543    
-807607.79      4.0615312      39.017089      25.910112      179.09509    
-807632.52      3.0700165      31.602415      25.934309      178.43934    
-807642.59      3.40294        33.15325       25.956288      177.78821    
-807654.19      3.8121575      36.009318      25.953371      177.14325    
-807673.32      3.1085136      34.664486      25.952412      176.50412    
-807654.18      4.127228       35.765671      25.938542      175.8715     
-807632.48      3.0461401      33.072007      26.012498      175.23939    
-807606.49      4.0719651      36.452373      26.006961      174.61297    
-807606.36      4.0738533      42.977095      25.946651      173.99555    
-807598.66      4.7846987      38.398834      25.88771       173.38676    
-807618.96      3.3032317      35.417862      25.939294      172.77936    
-807639.62      4.7623087      37.086606      25.953625      172.17566    
-807671.57      2.6781651      35.032227      25.896793      171.57989    
-807658.58      3.3196463      36.620509      25.943548      170.98553    
-807647.96      3.8234552      34.550798      26.005591      170.39167    
-807635.44      3.560245       33.142282      25.982477      169.80331    
-807627.36      3.6587431      36.099592      25.956006      169.22047    
-807594.89      3.8677219      37.13238       25.905968      168.64434    
-807593.41      2.9597715      37.240206      25.934398      168.07024    
-807625.92      3.598889       32.043063      25.911096      167.50105    
-807659.66      2.9443168      31.482325      25.889456      166.93651    
-807659.81      2.6513359      33.163179      25.923603      166.37343    
-807651.5       3.9547615      35.292896      25.970954      165.81109    
-807657.37      2.5929983      31.60421       25.957389      165.25272    
-807645.03      2.768095       31.181372      25.943487      164.69823    
-807613.58      3.193223       34.261355      25.934187      164.14727    
-807583.4       3.2390867      38.496107      25.943101      163.59881    
-807609.3       3.4426907      36.243268      25.923153      163.05424    
-807635.69      4.2247841      33.704214      25.913408      162.51295    
-807649.94      3.2974955      33.593102      25.942043      161.97294    
-807647.41      3.9489364      38.323151      25.972056      161.43412    
-807666.98      3.3234818      34.234735      25.955728      160.89872    
-807653.7       3.4293326      34.362503      25.909362      160.3681     
-807634.34      2.9237571      32.219593      25.89021       159.84082    
-807597.38      3.5785186      35.868782      25.993609      159.31103    
-807605.35      3.3416559      38.958521      25.936503      158.78629    
-807610.38      2.9991629      34.982174      25.872171      158.2668     
-807631.84      2.5299293      31.932619      25.914435      157.74754    
-807637.74      3.9442078      35.875509      25.917888      157.23028    
-807667.08      3.0044035      33.366714      25.956062      156.71341    
-807661.73      3.197918       34.767102      25.924922      156.20001    
-807647.08      3.6300284      33.535392      25.947375      155.68764    
-807622.34      4.4038996      34.814966      25.955493      155.17691    
-807619.18      4.1018369      35.952448      25.909099      154.6701     
-807601.83      4.8574023      38.662392      25.870469      154.16679    
-807602.87      3.8768061      36.848044      25.913014      153.66348    
-807624.32      3.7250006      32.911244      25.905701      153.16225    
-807655.71      3.7365347      32.630579      25.983986      152.65954    
-807662.94      3.3298454      34.091427      25.912864      152.16148    
-807651.48      2.871599       34.650892      25.865851      151.66697    
-807645.8       3.4903077      33.039028      25.90175       151.17262    
-807637.08      3.4413226      31.961428      25.951969      150.67787    
-807616.66      3.3777986      36.032963      25.868352      150.18797    
-807589         3.6620873      37.435997      25.810022      149.70183    
-807607.93      3.3987051      36.198405      25.865552      149.21496    
-807636.14      3.7574645      33.635291      25.91816       148.72751    
-807656.38      2.7847077      33.781405      25.874924      148.24312    
-807647.92      4.7742023      38.108739      25.923956      147.75827    
-807656.07      2.7859108      35.026872      25.86845       147.27685    
-807650.77      3.158472       34.040353      25.890374      146.79593    
-807634.24      3.1941788      34.338279      25.846031      146.31792    
-807595.78      4.141074       37.866101      25.90301       145.8391     
-807598.81      3.0170284      38.752104      25.899332      145.36167    
-807613.33      3.7524386      36.431521      25.849535      144.88721    
-807640.78      3.3156353      33.207361      25.938481      144.41083    
-807640.6       4.1638034      36.545997      25.961079      143.93488    
-807659.75      3.3100225      33.721769      25.953818      143.46036    
-807658.19      3.3802675      35.098087      25.947121      142.98724    
-807649.65      4.6240505      32.881829      25.87708       142.5176     
-807618.82      4.249143       34.644648      25.967619      142.04604    
-807606.39      2.9084153      36.21401       25.991065      141.57481    
-807604.85      3.6014556      38.237218      25.897843      141.10772    
-807616.05      3.2434914      34.795784      25.875322      140.64238    
-807628.56      3.3249286      33.544125      25.931256      140.17624    
-807650.02      2.7636075      33.612343      25.919967      139.71146    
-807662.95      3.6085311      34.903478      25.869286      139.24926    
-807654.66      3.2367858      34.044195      25.856566      138.78839    
-807639.58      3.538781       33.710102      25.872713      138.32793    
-807623.26      3.7562586      34.447392      25.909263      137.86725    
-807614.6       3.9380859      37.820621      25.84891       137.40931    
-807598.89      4.1302358      37.186766      25.880831      136.95126    
-807611.61      2.7648322      34.929474      25.933196      136.49252    
-807633.97      3.8107324      33.648033      25.874878      136.03637    
-807660.05      3.1883041      32.73607       25.84084       135.58203    
-807653.58      3.1871106      34.934281      25.885351      135.1272     
-807651.02      3.3392015      33.540234      25.880813      134.6733     
-807642.39      4.0201092      32.213531      25.929829      134.21879    
-807634.26      3.2280995      33.661711      25.905813      133.76576    
-807603.27      3.4870758      35.940411      25.956251      133.31209    
-807598.62      3.6125159      37.782019      25.919483      132.86021    
-807619.06      2.8456826      34.458728      25.911997      132.40929    
-807647.41      3.5582934      32.778698      25.934868      131.95849    
-807648.72      3.417588       34.604002      25.948489      131.50805    
-807653.19      3.4414579      34.575993      25.934906      131.0587     
-807654.31      4.4909488      34.161864      25.919375      130.61047    
-807647.78      2.6612425      31.544576      25.944041      130.16228    
-807621.08      3.1857832      32.564987      26.007674      129.71313    
-807598.8       3.1547478      36.179101      25.915768      129.26706    
-807609.99      2.8487136      35.60161       25.940789      128.821      
-807626.31      2.7923703      33.054627      25.926373      128.37595    
-807640.02      3.2008216      32.095257      25.930247      127.93145    
-807645.96      3.0630737      34.461716      25.955874      127.48694    
-807661.69      3.1807932      33.549057      25.949072      127.04323    
-807653.29      2.977091       33.957517      25.937546      126.60042    
-807636.92      2.8750961      33.200341      25.9302        126.15839    
-807614.01      3.0668861      34.574705      25.955281      125.71634    
-807611.63      2.9078524      37.082077      25.868338      125.27697    
-807608.84      3.1463497      34.995422      25.833687      124.83897    
-807622.63      3.0474681      32.966041      25.887654      124.40021    
-807635.06      3.2416587      33.246772      25.963598      123.96023    
-807657.31      3.9899983      33.778968      25.9268        123.52166    
-807653.13      4.1570467      35.352522      25.88757       123.08452    
-807646.94      3.2826527      34.021958      25.895323      122.64772    
-807629.6       3.8699205      34.575883      25.906132      122.21119    
-807624.81      3.205146       34.97714       25.9302        121.77462    
-807608.63      3.8383142      35.107182      25.905377      121.33911    
-807606.16      3.1908324      35.676948      25.935136      120.90344    
-807621.81      3.1224822      32.354414      25.962661      120.46766    
-807646.12      3.0334176      32.611634      25.91233       120.03346    
-807651.76      3.2514237      33.838016      25.906352      119.59986    
-807648.49      3.2177506      35.019693      25.89892       119.16689    
-807644.42      4.0682048      34.385678      25.922519      118.73386    
-807638.72      2.9909506      33.93219       25.935517      118.30102    
-807618.5       3.0500703      35.385016      25.921646      117.86892    
-807599.59      3.6240195      38.164136      25.928331      117.43713    
-807607.12      3.5326015      36.973528      25.959324      117.00514    
-807631.32      3.738752       34.288164      25.879096      116.57521    
-807643.53      3.1141414      32.996727      25.911528      116.14504    
-807644.94      4.3087352      35.505137      25.945057      115.71462    
-807654.01      2.6758062      34.268254      25.97314       115.28407    
-807649.57      3.636051       32.790288      25.960458      114.85418    
-807636.16      2.4719825      31.594816      25.962029      114.42467    
-807609.3       3.0283274      34.341732      25.940637      113.99599    
-807608         3.059637       36.234588      25.966219      113.5672     
-807615.13      3.4389808      35.237077      25.906117      113.13996    
-807630         3.0029101      32.985245      25.898793      112.71322    
-807635.92      3.8600797      35.094718      25.939321      112.2861     
-807653.61      3.434683       34.556786      25.923086      111.85964    
-807653.41      2.9492868      34.895869      25.923386      111.43355    
-807646.06      2.9817688      33.683015      25.934125      111.00762    
-807624.71      3.2261062      34.337664      25.993334      110.58098    
-807617.85      3.57227        34.959397      25.981033      110.15493    
-807608.88      3.2722107      36.72086       25.961384      109.72959    
-807615.27      3.6904833      35.318364      25.941347      109.30495    
-807623.51      3.1815273      33.820966      25.983956      108.87991    
-807646.8       3.0125211      33.539088      25.943011      108.45592    
-807653.66      3.7672054      34.036909      25.924198      108.03259    
-807649.94      2.7928854      34.23971       25.936126      107.60938    
-807638.82      2.7489138      33.279228      25.972017      107.18589    
-807633.04      3.4568009      32.659695      25.948399      106.76311    
-807618.01      2.8772754      34.666627      25.947571      106.34067    
-807605.8       3.4720006      35.665102      25.949137      105.91852    
-807614.77      2.8982049      34.138165      25.925827      105.49705    
-807634.08      3.0446074      33.00534       25.90016       105.07631    
-807649.83      2.6642571      32.496186      25.898526      104.65587    
-807648.68      3.6537122      34.723531      25.929175      104.23524    
-807648.7       3.12997        34.019019      25.905638      103.81526    
-807642.29      4.2929967      33.901709      25.942663      103.39498    
-807631.44      3.4643852      33.915248      25.914364      102.97543    
-807608.06      5.7352001      35.806265      26.035371      102.55429    
-807607.25      3.8349741      36.439795      25.993924      102.13408    
-807618.65      5.1240665      35.547827      25.96476       101.7146     
-807638.76      3.5370134      32.978271      25.956795      101.29551    
-807642.75      5.0048698      33.799107      25.985442      100.87627    
-807651.23      3.0670901      33.239644      25.939641      100.45799    
-807651.42      3.8685104      33.219438      25.973294      100.03947    
-807644.09      4.1080964      32.238424      25.951253      99.621538    
-807620.92      2.7459982      33.390357      25.943044      99.203983    
-807610.58      3.1671026      35.155609      25.974138      98.786235    
-807609.9       3.1957875      36.708675      25.899462      98.369809    
-807620.48      3.3355089      35.488228      25.888486      97.953777    
-807629.93      3.1281281      33.653043      25.907073      97.537714    
-807644.43      3.191821       34.21741       25.949325      97.121294    
-807652.86      3.7746993      34.839197      25.926517      96.705431    
-807647.67      3.6208541      35.342426      25.950336      96.289471    
-807634.14      3.0998302      33.882308      26.012558      95.872903    
-807622.63      3.2697516      34.278546      26.025911      95.4564      
-807614.88      3.3719689      36.089433      25.939265      95.0413      
-807610.19      3.1419836      35.86596       25.964534      94.626089    
-807617.29      3.1663184      34.641022      25.977766      94.21093     
-807634.02      3.689028       33.955494      25.938663      93.796509    
-807650.94      3.4699072      33.597558      25.927729      93.382447    
-807648.72      2.8746841      34.784776      25.915654      92.968751    
-807643.09      3.1573518      34.034614      25.922162      92.55518     
-807634.87      3.5557304      33.14386       25.941441      92.14157     
-807628         3.0385593      33.831296      25.923175      91.728397    
-807609.38      3.3906605      35.935324      25.92732       91.315374    
-807608.59      3.0857326      36.114034      25.952368      90.902242    
-807619.5       3.354902       35.394273      25.892025      90.490054    
-807642.9       3.1092211      33.579529      25.929856      90.077593    
-807644.85      3.7609103      35.380772      25.958146      89.664985    
-807647.99      3.0101672      34.711704      25.951126      89.25266     
-807644.47      3.1192621      35.130521      25.966318      88.840348    
-807641         2.4277025      32.596005      25.924579      88.428722    
-807619.35      3.1886402      34.420649      25.928827      88.017231    
-807608.87      3.8775723      35.580684      25.883113      87.606456    
-807610.08      2.8794577      35.298627      25.880175      87.195887    
-807630.15      2.9596691      33.374274      25.945074      86.784748    
-807639.74      3.0811938      32.897056      25.922307      86.374047    
-807644.55      2.7516894      34.090174      25.893898      85.963841    
-807650.92      3.1077179      33.508384      25.927189      85.553432    
-807648.3       3.6506907      32.991655      25.915096      85.143328    
-807633.52      2.939223       32.91293       25.961775      84.732882    
-807614.94      3.198961       34.23207       25.953224      84.322704    
-807613.68      3.4201193      34.523324      25.972908      83.912485    
-807615.4       3.4715369      35.347881      25.90831       83.503129    
-807627.83      3.1315383      32.967109      25.941173      83.093585    
-807636.47      4.0947839      33.438622      26.002171      82.683567    
-807652.93      3.1296639      32.260361      26.017904      82.273559    
-807649.64      3.1663315      33.63683       25.988814      81.864023    
-807644.71      3.1375351      32.56716       25.925489      81.455302    
-807627.47      3.7605583      34.230366      25.979991      81.046183    
-807622.14      3.1154338      34.988985      25.922528      80.637805    
-807611.11      3.4264697      35.438551      25.901683      80.229787    
-807615.57      4.3380803      35.669114      25.935722      79.821578    
-807625.8       2.7589828      33.576708      25.995009      79.412937    
-807645.65      2.9316227      32.433187      25.98904       79.004513    
-807649.61      3.8643356      33.664285      25.97648       78.596366    
-807647.81      3.1752377      33.473807      25.931513      78.188802    
-807638.82      3.1716609      33.994741      25.926297      77.781432    
-807633.63      2.9804063      32.670455      25.876022      77.374678    
-807619.01      2.9884376      34.00157       25.892442      76.967902    
-807607.04      3.1680843      36.004199      25.867836      76.561489    
-807615.25      3.0484544      34.465778      25.927311      76.154656    
-807632.67      3.0820119      33.310955      25.933298      75.747905    
-807645.77      3.3429783      32.852027      25.938085      75.341246    
-807644.92      3.3467715      34.032793      25.905737      74.935014    
-807648.03      3.2021542      33.148714      25.921772      74.528767    
-807643.53      3.2237019      33.376011      25.886586      74.122962    
-807631.81      2.7123472      32.852905      25.910256      73.717073    
-807611.36      3.0517849      34.638847      25.998511      73.310547    
-807610.68      3.0407104      35.863596      25.947181      72.904599    
-807619.87      3.1277074      34.528948      25.95825       72.498686    
-807633.47      3.0830649      33.057179      25.931147      72.093132    
-807637.48      3.4603219      34.159076      25.956212      71.687492    
-807649.21      2.8983323      33.81639       25.978907      71.281791    
-807646.85      3.4282254      34.258086      25.929766      70.876623    
-807641.35      3.1667889      33.214689      25.923372      70.471628    
-807622.44      4.309434       34.725667      25.930504      70.066694    
-807613.72      2.9407044      35.395619      25.92333       69.661936    
-807610.28      3.3702409      36.9784        25.92932       69.257247    
-807620.88      3.0513259      34.545549      25.91117       68.852817    
-807626.79      3.1558575      34.528454      25.916709      68.448457    
-807643.53      2.8711915      32.749433      25.942527      68.04401     
-807649.89      2.8623576      33.417292      25.954927      67.639583    
-807645.82      2.6918628      33.562985      25.928588      67.235471    
-807634.01      3.0007223      33.464765      25.925851      66.831491    
-807625.97      2.7976636      33.36696       25.934003      66.42756     
-807615.47      3.4880493      34.970456      25.972635      66.023454    
-807609.42      2.6790428      36.064971      25.933693      65.619746    
-807617.82      3.1681789      33.860564      25.945639      65.21606     
-807634.23      3.2330506      33.201816      25.929255      64.8126      
-807645.55      2.7893455      33.587134      25.89958       64.409457    
-807647.06      3.3405871      34.453656      25.952124      64.006043    
-807644.81      3.6371166      34.01961       25.938941      63.602827    
-807637.55      2.7829833      32.978452      25.922434      63.19983     
-807625.9       3.065572       33.659681      25.944195      62.796784    
-807611.39      3.3611857      35.024072      25.862729      62.394397    
-807610.96      3.1798735      35.129328      25.929081      61.991652    
-807621.14      2.8533469      33.54875       25.896483      61.589225    
-807636.39      4.7245559      33.846809      25.911588      61.186791    
-807644.35      3.021039       33.002425      25.948526      60.78421     
-807648.63      4.5102557      33.304378      25.962905      60.381635    
-807646.81      2.9640531      32.915582      25.973478      59.979092    
-807638.59      4.2167177      32.74162       26.003195      59.57646     
-807620.69      2.8098638      33.266883      25.988479      59.174024    
-807612.12      2.77973        34.698343      25.9568        58.771886    
-807614.68      2.8471573      34.555547      25.970147      58.369761    
-807625.98      3.2672756      33.628421      25.907438      57.968116    
-807636.22      2.6603971      32.189678      25.899954      57.566605    
-807645.06      4.2203129      33.723073      25.929288      57.165005    
-807649.33      3.0267296      33.224178      25.912216      56.763595    
-807644.27      3.0620885      33.780395      25.939993      56.362108    
-807632.01      2.8288664      32.878784      25.960485      55.96059     
-807620.12      2.9349763      33.377559      25.911391      55.559447    
-807615.44      3.2219853      34.470931      25.933998      55.158259    
-807618.23      3.3110595      34.045721      25.921781      54.757226    
-807624.89      2.5620756      32.572009      25.917127      54.356303    
-807639.31      2.8957141      32.304804      25.935901      53.955359    
-807646.49      3.4118378      33.534677      25.966822      53.554329    
-807648.77      2.735057       32.817987      25.981052      53.153309    
-807640.69      3.3356207      32.956698      25.971537      52.752428    
-807630.18      3.2850747      32.63468       25.930973      52.351849    
-807621.57      3.0906006      34.470178      25.895205      51.951541    
-807613.51      3.0170743      34.186258      25.916292      51.551198    
-807617.21      2.9462577      34.010818      25.903858      51.150997    
-807626.62      3.5573144      33.553712      25.920191      50.75079     
-807641.8       3.1489325      32.323506      25.93966       50.35056     
-807646.26      3.7565887      33.561577      25.9301        49.950458    
-807647.41      2.9404332      33.123689      25.919965      49.550482    
-807639.62      3.1681556      33.530867      25.965857      49.150358    
-807632.06      2.8974432      32.805464      25.954819      48.750366    
-807618.57      3.5615523      34.397174      25.957944      48.350437    
-807611.75      3.8105697      34.818506      25.955379      47.950598    
-807615.4       3.343077       34.486573      25.936455      47.550924    
-807631.86      3.337012       33.207999      26.002699      47.151018    
-807640.59      3.152761       33.710952      26.00592       46.751177    
-807645.12      3.5753457      34.127437      25.988517      46.351494    
-807643.65      2.9322689      34.417764      25.934402      45.952132    
-807641.37      3.0653115      33.011308      25.941224      45.552811    
-807628.74      3.6152273      34.142775      25.929216      45.153615    
-807616.25      2.8162873      34.432576      25.933987      44.754467    
-807611.03      3.2260963      35.364132      25.931404      44.355401    
-807620.26      3.1830484      34.226118      25.906603      43.956509    
-807631.58      2.9353843      32.625116      25.908267      43.557676    
-807637.27      3.5204328      33.938009      25.981885      43.158604    
-807645.58      2.9059924      33.227417      25.933748      42.759802    
-807647.86      4.57386        33.980341      25.91055       42.36116     
-807636.9       3.3930727      33.89797       25.895526      41.962643    
-807624.98      4.9089481      34.69236       25.917693      41.564101    
-807616.15      3.1795661      34.81091       25.922385      41.165605    
-807613.78      3.4406241      35.493357      25.947941      40.767074    
-807619.06      3.1389303      34.820312      25.951619      40.368596    
-807629.06      2.9394369      33.425879      25.925084      39.970282    
-807641.56      2.912006       32.747261      25.932254      39.572006    
-807647.77      3.1032843      33.52268       25.923479      39.173825    
-807644.33      2.8713666      33.021226      25.910311      38.775753    
-807635.55      3.1096269      32.953335      25.934908      38.377653    
-807625.82      3.1578517      33.129983      25.926863      37.979644    
-807618.43      2.9754255      35.113496      25.928032      37.581692    
-807613.35      3.4313824      35.593576      25.932104      37.183785    
-807619.11      3.3400399      34.600407      25.931968      36.78594     
-807634.28      2.9824144      33.311771      25.999176      36.38793     
-807645.75      3.4478537      33.603097      25.971112      35.990078    
-807646.03      3.1404313      33.825173      25.929281      35.592424    
-807643.23      3.0076059      33.242568      25.973076      35.194689    
-807636.78      3.3024114      33.748435      25.946267      34.797099    
-807628.32      3.9059036      33.715705      25.922399      34.399644    
-807614.93      3.4320754      34.744285      25.945877      34.002173    
-807612.4       3.5148561      35.221161      25.961072      33.604713    
-807625.14      3.4784988      34.090275      25.936731      33.207385    
-807636.92      3.2411649      34.082188      25.925023      32.810149    
-807644.37      2.6336156      33.323021      25.90619       32.413023    
-807645.08      3.3829534      34.011135      25.864401      32.01607     
-807644.97      3.0389836      33.425763      25.859426      31.61918     
-807636.7       3.2271559      33.326714      25.874987      31.222296    
-807622.96      3.136591       33.602336      25.918144      30.825341    
-807612.38      2.9564526      34.575691      25.865756      30.428582    
-807615.52      2.7686502      34.101825      25.872944      30.031851    
-807628.4       3.2879864      32.305411      25.886182      29.635133    
-807635.87      2.8849535      32.434108      25.883702      29.238471    
-807642.85      3.1581612      32.742609      25.909115      28.841792    
-807648.1       2.9588697      32.705756      25.912707      28.445155    
-807644.23      3.2320156      32.763986      25.861098      28.048694    
-807632.29      2.553399       33.481725      25.938676      27.652091    
-807620.54      3.0625482      34.218861      25.926136      27.25557     
-807616.58      2.5372792      34.4506        25.955458      26.859029    
-807618.91      2.7911954      33.912982      25.954926      26.462542    
-807625.56      3.3761749      33.694359      25.921508      26.066183    
-807635.02      3.5982767      33.096598      25.935768      25.66984     
-807645.12      3.5258734      33.701075      25.91342       25.273595    
-807644.94      3.0629414      34.235647      25.88321       24.877463    
-807640.16      3.7297136      33.57051       25.913603      24.481311    
-807630.06      3.7952898      34.120243      25.917172      24.085198    
-807624.62      2.8922794      33.398958      25.935735      23.689095    
-807615.45      4.0196015      35.273303      25.956592      23.292997    
-807616.25      3.0450778      34.306906      26.005919      22.896853    
-807627.01      2.9160748      32.843186      25.938911      22.50089     
-807639.06      2.6231519      33.123787      25.908656      22.10503     
-807644.6       2.842574       33.617452      25.896927      21.709236    
-807641.23      3.0494439      34.262013      25.935331      21.313416    
-807638.96      3.2110887      33.09259       25.908558      20.917689    
-807632.31      2.791932       33.753589      25.929906      20.521969    
-807620.67      2.9486772      34.502404      25.927713      20.126297    
-807611.39      2.8973533      35.29975       25.96708       19.730605    
-807618.57      3.61976        34.48068       25.979523      19.33494     
-807631.36      2.4735633      32.475301      25.905506      18.939439    
-807638.06      3.0929519      33.721315      25.87799       18.544022    
-807640.94      2.9868678      34.062416      25.917552      18.148586    
-807642.89      2.678438       33.374988      25.887122      17.753236    
-807638.63      3.606579       33.326548      25.897119      17.357912    
-807629.45      3.1991638      33.407579      25.900421      16.962623    
-807614.91      2.6075415      34.688303      25.906111      16.567367    
-807615.86      2.7591514      34.46976       25.907957      16.172148    
-807621.95      3.1531464      34.626277      25.865246      15.777025    
-807629.96      2.6256381      33.389246      25.899494      15.381896    
-807636.6       2.9972928      33.604713      25.921489      14.986779    
-807643.09      2.7127149      33.594101      25.923559      14.591699    
-807645.15      3.4715251      33.490618      25.925084      14.196659    
-807635.03      3.0014646      33.496877      25.961369      13.801617    
-807625.23      3.1145283      33.858529      25.957133      13.406623    
-807619.47      3.0943058      34.244465      25.984879      13.011641    
-807618.51      3.3553752      34.382947      25.928685      12.616759    
-807619.78      2.8226545      33.93321       25.921339      12.221924    
-807630.07      2.6894599      33.111339      25.909279      11.827139    
-807642.02      3.5159201      32.899595      25.928155      11.432375    
-807646.89      3.8679554      33.035889      25.913054      11.037662    
-807642.05      4.0716705      32.676741      25.926662      10.642974    
-807635.16      2.972215       32.859517      25.920621      10.24833     
-807628.21      2.7876728      32.49473       25.92854       9.8537163    
-807621.62      3.3616285      33.527636      25.915498      9.4591502    
-807616.82      2.7604623      33.610566      25.872626      9.0646514    
-807621.9       2.9912964      33.104566      25.927474      8.6701484    
-807634.7       3.0142957      32.30288       25.916882      8.2756891    
-807644.58      2.7323888      31.002563      26.011064      7.8812075    
-807644         4.0469734      32.660538      25.971361      7.4867908    
-807641.78      2.8281354      32.297612      25.926342      7.092438     
-807635.95      3.3080401      32.583185      25.920142      6.6981242    
-807628.7       2.9296614      32.322729      25.924099      6.3038436    
-807618.1       2.7432387      32.995856      25.925164      5.9095978    
-807616.18      2.4749822      33.992742      25.919664      5.5153894    
-807627.09      2.7787617      33.223861      25.925084      5.1212133    
-807636.39      2.5009443      32.082668      25.938305      4.727067     
-807641.75      3.5656474      32.561192      25.977515      4.3329429    
-807642.8       3.536239       33.300184      25.946333      3.9388657    
-807643.16      3.0191549      32.767571      25.951073      3.5448225    
-807635.94      3.4283235      32.864814      25.932235      3.1508192    
-807624.79      3.1519389      33.291521      25.941961      2.7568478    
-807615.72      3.3162873      34.291928      25.938822      2.3629115    
-807621.14      3.484972       34.144275      25.908309      1.9690137    
-807626.24      3.2032471      34.120863      25.932583      1.5751449    
-807634.67      3.0163779      33.577742      25.943954      1.1813083    
-807639.39      3.3895193      33.908413      25.980504      0.78750329   
-807647.02      2.7243654      32.695909      25.96014       0.39373452   
-807640.8       4.0788135      33.152514      25.892562      0            
Loop time of 196.86 on 32 procs for 5000 steps with 1080 atoms

Performance: 4.389 ns/day, 5.468 hours/ns, 25.399 timesteps/s, 27.431 katom-step/s
67.4% CPU use with 32 MPI tasks x 1 OpenMP threads

MPI task timing breakdown:
Section |  min time  |  avg time  |  max time  |%varavg| %total
---------------------------------------------------------------
Pair    | 101.09     | 145.08     | 192.79     | 311.5 | 73.70
Neigh   | 0          | 0          | 0          |   0.0 |  0.00
Comm    | 1.7803     | 49.489     | 93.476     | 533.3 | 25.14
Output  | 0.026277   | 0.026824   | 0.028723   |   0.3 |  0.01
Modify  | 1.9389     | 1.9489     | 1.955      |   0.3 |  0.99
Other   |            | 0.3131     |            |       |  0.16

Nlocal:          33.75 ave          48 max          21 min
Histogram: 8 8 0 0 0 0 0 8 0 8
Nghost:        1106.25 ave        1119 max        1092 min
Histogram: 8 0 8 0 0 0 0 0 8 8
Neighs:              0 ave           0 max           0 min
Histogram: 32 0 0 0 0 0 0 0 0 0
FullNghs:       5494.5 ave        7896 max        3378 min
Histogram: 8 8 0 0 0 0 0 8 0 8

Total # of neighbors = 175824
Ave neighs/atom = 162.8
Neighbor list builds = 0
Dangerous builds = 0

reset_timestep 0


variable interval equal 1000
thermo 10

variable nintervals equal $(v_PERIOD/v_interval)
variable nintervals equal 100
variable efield equal 1e-2*36.36*cos((step/${PERIOD})*2*3.14)
variable efield equal 1e-2*36.36*cos((step/100000)*2*3.14)
fix born all addbornforce 0.0 0.0 v_efield

variable Px equal f_born[1]+c_polarization[1]
variable Py equal f_born[2]+c_polarization[2]
variable Pz equal (f_born[3]+c_polarization[3])/vol
variable pe equal pe

fix aveP all ave/time 1 $(v_interval/2) ${interval} v_efield v_Pz v_pe f_born file Pz.${MODEL}.${STRUCTURE}.${TEMP}.$L.${ITER}
fix aveP all ave/time 1 500 ${interval} v_efield v_Pz v_pe f_born file Pz.${MODEL}.${STRUCTURE}.${TEMP}.$L.${ITER}
fix aveP all ave/time 1 500 1000 v_efield v_Pz v_pe f_born file Pz.${MODEL}.${STRUCTURE}.${TEMP}.$L.${ITER}
fix aveP all ave/time 1 500 1000 v_efield v_Pz v_pe f_born file Pz.BaTiO3-E0.${STRUCTURE}.${TEMP}.$L.${ITER}
fix aveP all ave/time 1 500 1000 v_efield v_Pz v_pe f_born file Pz.BaTiO3-E0.BaTiO3-sc333.${TEMP}.$L.${ITER}
fix aveP all ave/time 1 500 1000 v_efield v_Pz v_pe f_born file Pz.BaTiO3-E0.BaTiO3-sc333.300.$L.${ITER}
fix aveP all ave/time 1 500 1000 v_efield v_Pz v_pe f_born file Pz.BaTiO3-E0.BaTiO3-sc333.300.2.${ITER}
fix aveP all ave/time 1 500 1000 v_efield v_Pz v_pe f_born file Pz.BaTiO3-E0.BaTiO3-sc333.300.2.3

thermo_style custom step time temp press pe f_born v_efield v_Pz spcpu cpuremain

# dump 4a all custom 1000 dump.hyst.${MODEL}.${STRUCTURE}.${TEMP}.$L.${ITER}.bin id type xu yu zu fx fy fz
# dump_modify 4a sort id

fix nvt all nvt temp ${TEMP} ${TEMP} $(100*dt)
fix nvt all nvt temp 300 ${TEMP} $(100*dt)
fix nvt all nvt temp 300 300 $(100*dt)
fix nvt all nvt temp 300 300 0.2000000000000000111

run $(v_PERIOD)
run 100000
WARNING: non-constant efield is experimental, strongly distrust scalar/vector output (src/fix_addbornforce.cpp:193)
Per MPI rank memory allocation (min/avg/max) = 3.516 | 3.516 | 3.516 Mbytes
   Step          Time           Temp          Press          PotEng         f_born        v_efield         v_Pz          S/CPU         CPULeft    
         0   0              300.9422       126138.89     -807640.8      -293.72391      0.3636         0.055241179    0              0            
        10   0.02           305.03516      132419.74     -807630.89     -304.36208      0.36359993     0.05724193     28.609341      3495.0305    
        20   0.04           304.92027      140413.47     -807622.52     -312.78722      0.36359971     0.058826497    28.634217      3493.157     
        30   0.06           299.93983      143795.83     -807619.69     -314.89503      0.36359935     0.059222976    28.682303      3490.3447    
        40   0.08           305.24911      142411.84     -807620.69     -314.7          0.36359885     0.059186377    28.688423      3488.58      
        50   0.1            305.08867      137715.28     -807625.33     -310.08345      0.36359821     0.058318236    28.720522      3486.6028    
        60   0.12           306.67757      129898.03     -807635.91     -299.76294      0.36359742     0.05637735     28.723633      3485.1058    
        70   0.14           288.48914      124542.51     -807642.31     -290.82481      0.36359649     0.054696469    28.706069      3484.2411    
        80   0.16           286.89027      123238.19     -807643.62     -289.3794       0.36359541     0.054424786    28.654882      3484.2826    
        90   0.18           291.21824      128685.03     -807636.52     -297.14555      0.36359419     0.055885586    28.59106       3485.1028    
       100   0.2            308.97753      132979.55     -807631.92     -304.38936      0.36359283     0.05724818     28.654486      3484.9146    
       110   0.22           311.19432      140314.28     -807625.23     -311.40025      0.36359132     0.058566998    28.598215      3485.3216    
       120   0.24           294.39657      143482.09     -807618.93     -315.48564      0.36358968     0.059335632    28.687216      3484.6988    
       130   0.26           292.95654      143261.02     -807618.4      -315.91418      0.36358788     0.059416523    28.730613      3483.7144    
       140   0.28           307.03461      136102.22     -807628.49     -307.91038      0.36358595     0.057911493    28.684957      3483.2153    
       150   0.3            309.73856      129324.79     -807638.98     -297.85634      0.36358387     0.056020858    28.682665      3482.7552    
       160   0.32           284.47155      123384.75     -807642.3      -291.17927      0.36358165     0.054765369    28.662534      3482.4621    
       170   0.34           279.08482      125723.7      -807640.03     -292.85824      0.36357928     0.05508151     28.659545      3482.1832    
       180   0.36           303.07635      127059.16     -807640.43     -296.11368      0.36357677     0.055694187    28.648208      3481.9732    
       190   0.38           305.52813      134718.67     -807632.09     -304.91911      0.36357412     0.057350764    28.609066      3481.9999    
       200   0.4            294.29084      139718.41     -807624.39     -311.39007      0.36357132     0.058568305    28.683182      3481.538     
       210   0.42           289.44894      144415.55     -807617.87     -317.43838      0.36356838     0.059706395    28.6864        3481.0685    
       220   0.44           287.19942      140535.06     -807622.3      -312.97655      0.3635653      0.058867676    28.679424      3480.6481    
       230   0.46           292.05649      135364.73     -807630.56     -305.49069      0.36356207     0.057460173    28.629191      3480.4995    
       240   0.48           294.11987      127850.59     -807638.47     -298.13362      0.3635587      0.056076891    28.62313       3480.3651    
       250   0.5            278.19784      125753.72     -807640.22     -294.29587      0.36355519     0.055355572    28.61404       3480.2577    
       260   0.52           283.57208      124672.48     -807643.34     -292.09026      0.36355153     0.054941259    28.625688      3480.0768    
       270   0.54           289.49402      128335.98     -807640.21     -296.18955      0.36354773     0.055712906    28.675639      3479.6589    
       280   0.56           300.38522      134865.61     -807631.26     -306.80008      0.36354379     0.05770936     28.714457      3479.078     
       290   0.58           293.53445      140583.58     -807623        -314.28566      0.3635397      0.059118068    28.717584      3478.5002    
       300   0.6            286.89786      143131.01     -807621.63     -314.71117      0.36353547     0.059198797    28.697767      3478.0177    
       310   0.62           285.35741      138762.32     -807625.8      -310.4228       0.3635311      0.058392834    28.678327      3477.6195    
       320   0.64           294.78033      134633.21     -807631.2      -306.30346      0.36352658     0.057618672    28.736529      3477.0046    
       330   0.66           279.75639      127740.09     -807636.71     -298.75544      0.36352192     0.056199536    28.745552      3476.3728    
       340   0.68           282.42681      125041.97     -807642.77     -292.83408      0.36351712     0.055086385    28.69297       3475.9447    
       350   0.7            273.85165      124015.43     -807642.56     -291.83527      0.36351217     0.054899241    28.692045      3475.5243    
       360   0.72           292.641        130562.89     -807636.04     -300.7876       0.36350708     0.056584121    28.714722      3475.0316    
       370   0.74           302.16871      133919        -807630.63     -307.44488      0.36350185     0.057837319    28.66852       3474.698     
       380   0.76           290.25171      141807.45     -807622.86     -313.23294      0.36349647     0.058927056    28.677609      3474.3344    
       390   0.78           282.02267      141233.01     -807622.27     -312.42524      0.36349095     0.058776       28.696424      3473.9134    
       400   0.8            297.84216      139711.41     -807624.06     -312.51291      0.36348529     0.058793409    28.690224      3473.5146    
       410   0.82           294.88451      132632.02     -807631.16     -304.6837       0.36347948     0.057321407    28.678834      3473.152     
       420   0.84           298.22399      128436.17     -807639.58     -296.28984      0.36347353     0.055743147    28.649018      3472.8759    
       430   0.86           277.54816      124602.98     -807642.15     -290.46979      0.36346744     0.054649096    28.621409      3472.6746    
       440   0.88           294.47155      126376.91     -807639.98     -294.68283      0.3634612      0.055442691    28.672179      3472.3265    
       450   0.9            304.43874      130015.72     -807634.96     -300.91145      0.36345482     0.056615559    28.73709       3471.8041    
       460   0.92           294.19148      137959.98     -807625.95     -308.23917      0.3634483      0.057995288    28.735781      3471.2929    
       470   0.94           299.83104      140646.77     -807622.64     -312.0981       0.36344163     0.058722424    28.749138      3470.7542    
       480   0.96           297.85646      142664.4      -807619.23     -315.11165      0.36343482     0.059290545    28.705846      3470.3321    
       490   0.98           299.80158      139138.67     -807623.11     -311.42077      0.36342786     0.058597202    28.642898      3470.0686    
       500   1              310.51014      132793.84     -807633.49     -302.35824      0.36342077     0.056893099    28.634603      3469.8219    
       510   1.02           303.94242      126736.55     -807640.62     -9414.2907      0.36341353     0.055358467    28.559069      3469.7512    
       520   1.04           291.10701      124918.93     -807640.57     -9358.0246      0.36340614     0.055028726    28.602753      3469.5676    
       530   1.06           297.26307      127072.98     -807637.86     -9470.9612      0.36339862     0.05569399     28.56047       3469.4748    
       540   1.08           304.51117      131442.55     -807634.01     -9625.4276      0.36339095     0.056603524    28.532924      3469.4347    
       550   1.1            301.67795      137885.87     -807626.56     -9851.5343      0.36338313     0.057934418    28.579317      3469.2805    
       560   1.12           295.50621      141894.52     -807619.85     -10039.176      0.36337518     0.059039184    28.571208      3469.137     
       570   1.14           305.97602      142943.63     -807620.04     -10079.62       0.36336707     0.059278351    28.56748       3468.9941    
       580   1.16           297.69985      136864.28     -807625.89     -9854.8553      0.36335883     0.057957824    28.531583      3468.9196    
       590   1.18           311.01187      131887.39     -807635.16     -9613.3084      0.36335044     0.056538557    28.577886      3468.7401    
       600   1.2            294.18414      126337.64     -807638.65     -9429.3589      0.36334191     0.055458       28.572411      3468.5659    
       610   1.22           292.71015      127302.75     -807638.87     -9412.2251      0.36333324     0.055358551    28.569532      3468.3918    
       620   1.24           305.75703      126269.52     -807640        -9438.1177      0.36332442     0.055512186    28.602514      3468.1474    
       630   1.26           307.05804      134196.79     -807632.28     -9688.4287      0.36331546     0.056985846    28.635961      3467.8351    
       640   1.28           300.43272      138553.42     -807624.6      -9909.1214      0.36330636     0.058285387    28.601434      3467.5871    
       650   1.3            308.90225      143626.14     -807619.76     -10099.289      0.36329711     0.059405466    28.644193      3467.2562    
       660   1.32           302.58808      139212.23     -807623.56     -9953.3623      0.36328772     0.058548616    28.6341        3466.9433    
       670   1.34           305.44753      137388.64     -807628.04     -9820.5534      0.36327819     0.057768911    28.635749      3466.6264    
       680   1.36           300.10136      128351.67     -807635.68     -9558.4922      0.36326851     0.056228846    28.585994      3466.3973    
       690   1.38           292.72618      127949.78     -807637.13     -9475.8407      0.36325869     0.055744147    28.6018        3466.1368    
       700   1.4            289.17666      123928.94     -807641.66     -9319.0362      0.36324873     0.054823206    28.622594      3465.8378    
       710   1.42           298.08737      130146.83     -807637.12     -9503.8009      0.36323863     0.055911719    28.675837      3465.4466    
       720   1.44           299.42556      132227.52     -807630.79     -9720.8895      0.36322838     0.057190485    28.632061      3465.1301    
       730   1.46           301.49627      141636.91     -807621.74     -10018.907      0.36321798     0.058945484    28.607583      3464.8535    
       740   1.48           303.8181       140514.28     -807623.5      -9979.1013      0.36320745     0.058712994    28.628226      3464.5409    
       750   1.5            300.50874      140983.98     -807623.52     -9963.4293      0.36319677     0.05862251     28.655596      3464.1833    
       760   1.52           301.6361       133729.25     -807629.31     -9790.147       0.36318595     0.057604674    28.600297      3463.914     
       770   1.54           298.9829       130720.09     -807634.65     -9607.2426      0.36317498     0.056530181    28.577122      3463.6791    
       780   1.56           289.82298      125468.91     -807641.04     -9366.0409      0.36316387     0.055112607    28.545132      3463.4912    
       790   1.58           296.89565      126308.73     -807642.2      -9364.3768      0.36315262     0.055104522    28.538214      3463.3099    
       800   1.6            288.27956      129911.91     -807635.02     -9562.331       0.36314122     0.056271146    28.531628      3463.1343    
       810   1.62           292.17057      134688.8      -807629.17     -9773.0748      0.36312968     0.057513131    28.534909      3462.9495    
       820   1.64           300.59912      139428.73     -807625.7      -9923.7103      0.363118       0.058401478    28.534147      3462.7618    
       830   1.66           297.26376      140160.11     -807623.24     -9992.9331      0.36310618     0.058810772    28.544762      3462.5546    
       840   1.68           293.66132      140465.54     -807622.96     -9989.4511      0.36309421     0.058792218    28.586347      3462.2838    
       850   1.7            302.80604      133843.4      -807631.28     -9769.8218      0.3630821      0.057501523    28.571026      3462.033     
       860   1.72           298.87005      128836.64     -807638.17     -9533.2575      0.36306984     0.056111087    28.601405      3461.7371    
       870   1.74           287.00084      125376.64     -807641.74     -9369.7102      0.36305745     0.05515036     28.546657      3461.5164    
       880   1.76           284.62462      127004.59     -807639.01     -9449.3465      0.3630449      0.055621023    28.61613       3461.1969    
       890   1.78           299.68477      128909.54     -807637.91     -9555.8962      0.36303222     0.056250164    28.638985      3460.8456    
       900   1.8            303.30173      135396.58     -807632.11     -9760.8117      0.36301939     0.057458416    28.628987      3460.5079    
       910   1.82           290.53464      138122.92     -807625.59     -9917.6735      0.36300642     0.058383891    28.632748      3460.1649    
       920   1.84           289.49545      142331.58     -807621.9      -10031.201      0.36299331     0.059054345    28.658664      3459.7877    
       930   1.86           294.60702      137836.84     -807626.43     -9913.009       0.36298005     0.058360671    28.605382      3459.4805    
       940   1.88           288.71345      134281.13     -807630.8      -9744.604       0.36296665     0.057371342    28.601325      3459.1775    
       950   1.9            289.2724       127299.58     -807639.67     -9466.1072      0.36295311     0.055733772    28.595893      3458.8804    
       960   1.92           275.93675      127975.17     -807638.18     -9451.109       0.36293942     0.055647565    28.581799      3458.6       
       970   1.94           286.40125      124972.32     -807640.78     -9416.4213      0.36292559     0.055445439    28.56532       3458.339     
       980   1.96           289.67647      132163.19     -807635.44     -9597.3903      0.36291162     0.05651319     28.559719      3458.0829    
       990   1.98           297.87006      134194.84     -807631.13     -9772.7173      0.3628975      0.057547822    28.59607       3457.7804    
      1000   2              289.72105      141835.96     -807621.75     -10027.86       0.36288325     0.059052584    28.538674      3457.5466    
      1010   2.02           290.01817      138892.27     -807623.67     -311.42791      0.36286884     0.058688819    28.647913      3457.1796    
      1020   2.04           304.25572      139001.71     -807627.45     -309.20703      0.3628543      0.058272629    28.665302      3456.7924    
      1030   2.06           296.16315      131293.55     -807633.5      -301.86302      0.36283961     0.056890891    28.690564      3456.3764    
      1040   2.08           298.54808      129527.78     -807636.63     -298.56662      0.36282478     0.056271933    28.685196      3455.9678    
      1050   2.1            282.16671      124628.2      -807640.13     -292.58398      0.3628098      0.055146638    28.6972        3455.5467    
      1060   2.12           299.51493      128572.76     -807639.39     -295.33303      0.36279469     0.055667102    28.673511      3455.1539    
      1070   2.14           300.02702      129856.09     -807634.64     -299.94683      0.36277943     0.056539134    28.72816       3454.7005    
      1080   2.16           306.79462      137842.83     -807626.08     -309.04092      0.36276402     0.058255817    28.730218      3454.2468    
      1090   2.18           297.8207       139008.32     -807623.23     -310.46164      0.36274848     0.058526138    28.703275      3453.8247    
      1100   2.2            307.12485      141497.17     -807622.79     -311.8766       0.36273279     0.058795419    28.693238      3453.4148    
      1110   2.22           298.59003      136373.03     -807625.95     -307.39206      0.36271695     0.057952518    28.639936      3453.0639    
      1120   2.24           308.0796       133431.39     -807631.9      -302.44868      0.36270098     0.057023055    28.66155       3452.6898    
      1130   2.26           294.17074      126970.93     -807637.66     -294.60023      0.36268486     0.055545793    28.721135      3452.2527    
      1140   2.28           297.49206      127671.14     -807639.66     -292.89999      0.3626686      0.055227695    28.6754        3451.8654    
      1150   2.3            303.99147      127903.48     -807637.93     -295.48826      0.36265219     0.055718246    28.678519      3451.4755    
      1160   2.32           314.74726      132920.53     -807632.28     -302.541        0.36263564     0.057050738    28.691708      3451.0726    
      1170   2.34           306.29983      137073.64     -807626.68     -306.90991      0.36261895     0.057877256    28.672903      3450.69      
      1180   2.36           315.89409      140463.28     -807624.35     -310.48821      0.36260212     0.058554772    28.653279      3450.328     
      1190   2.38           302.96181      139991.9      -807621.92     -311.13914      0.36258514     0.058680278    28.6687        3449.9505    
      1200   2.4            305.38481      137373.51     -807626.27     -307.05641      0.36256802     0.057913017    28.64401       3449.5984    
      1210   2.42           302.37866      130639.45     -807633.37     -299.5339       0.36255076     0.056496908    28.601565      3449.2885    
      1220   2.44           297.00302      128081.66     -807638.48     -293.59024      0.36253335     0.055378497    28.619671      3448.9601    
      1230   2.46           298.24487      126901.77     -807638.55     -293.71562      0.3625158      0.055404828    28.654254      3448.5975    
      1240   2.48           311.66562      128906.83     -807636.6      -297.59289      0.36249811     0.056138954    28.615719      3448.2726    
      1250   2.5            310.75811      134035.12     -807632.03     -302.06651      0.36248028     0.056985678    28.620312      3447.9428    
      1260   2.52           303.91645      137990.68     -807625.66     -307.5562       0.3624623      0.058024199    28.65051       3447.5839    
      1270   2.54           305.87628      140701.58     -807621.68     -311.89254      0.36244418     0.058845245    28.700582      3447.1778    
      1280   2.56           311.91944      138965.53     -807623.93     -310.56828      0.36242592     0.058598347    28.705818      3446.7676    
      1290   2.58           313.20877      135614.29     -807630.05     -304.69443      0.36240751     0.057492983    28.681087      3446.3815    
      1300   2.6            293.23302      130035.06     -807634.11     -298.03581      0.36238896     0.056239443    28.692105      3445.9857    
      1310   2.62           287.23643      128600.52     -807636.25     -295.11545      0.36237027     0.055691242    28.657838      3445.622     
      1320   2.64           304.05643      126004.55     -807640.09     -293.83673      0.36235143     0.055452817    28.67729       3445.2409    
      1330   2.66           293.98765      131240.83     -807634.35     -298.24553      0.36233245     0.056287794    28.673833      3444.8634    
      1340   2.68           305.17296      133645.64     -807632.13     -302.26284      0.36231333     0.057048991    28.683138      3444.478     
      1350   2.7            308.69722      139754.26     -807625.45     -309.5569       0.36229407     0.058428776    28.725814      3444.0552    
      1360   2.72           311.01245      139515.88     -807624.42     -311.21438      0.36227466     0.058744771    28.679593      3443.6743    
      1370   2.74           303.02212      139776.77     -807625.32     -309.24856      0.36225511     0.058376853    28.627991      3443.3391    
      1380   2.76           301.1633       132600.53     -807632.71     -301.8302       0.36223542     0.056979586    28.599777      3443.0283    
      1390   2.78           297.29953      130642.86     -807635.11     -298.99561      0.36221558     0.056447563    28.629502      3442.6912    
      1400   2.8            289.31758      126028.29     -807638.97     -294.29167      0.3621956      0.055562569    28.602977      3442.3767    
      1410   2.82           292.00884      128609.61     -807639.44     -294.23658      0.36217548     0.055555254    28.609126      3442.0565    
      1420   2.84           299.71738      128720.31     -807638.35     -296.67549      0.36215522     0.056018883    28.643185      3441.707     
      1430   2.86           295.61848      136250.02     -807628.8      -305.75029      0.36213481     0.057735659    28.675693      3441.3303    
      1440   2.88           298.14678      137831.5      -807625.88     -309.26636      0.36211426     0.058402922    28.667627      3440.9606    
      1450   2.9            300.22947      140462.08     -807625.16     -310.23678      0.36209357     0.058589527    28.650802      3440.6052    
      1460   2.92           293.58272      136628.07     -807628.04     -306.65039      0.36207273     0.057915554    28.658899      3440.2431    
      1470   2.94           301.74932      134461.08     -807631.55     -304.25736      0.36205176     0.057466924    28.703413      3439.8451    
      1480   2.96           287.68053      128474.37     -807636.74     -297.21667      0.36203064     0.056140381    28.70427       3439.4469    
      1490   2.98           294.33847      127414.2      -807641.15     -293.63997      0.36200937     0.055468047    28.662978      3439.0826    
      1500   3              281.31396      127120.42     -807639.63     -293.42542      0.36198796     0.055430798    28.720962      3438.6723    
      1510   3.02           290.57815      131014.51     -807634.49     -9594.5414      0.36196642     0.056643944    28.66936       3438.3037    
      1520   3.04           299.41213      134635.07     -807631.15     -9741.141       0.36194472     0.05751288     28.661756      3437.9413    
      1530   3.06           298.79967      138763.7      -807627.19     -9863.3549      0.36192289     0.058237959    28.646635      3437.5909    
      1540   3.08           301.54027      139741.68     -807625.43     -9928.3135      0.36190091     0.058625066    28.524006      3437.3366    
      1550   3.1            297.27608      138111.82     -807626.32     -9876.3691      0.36187879     0.058321908    28.574618      3437.0415    
      1560   3.12           293.52446      134398.27     -807631.62     -9685.8561      0.36185653     0.05720041     28.585919      3436.737     
      1570   3.14           294.49671      128298.13     -807637.97     -9480.9216      0.36183412     0.055993624    28.560819      3436.4512    
      1580   3.16           292.91201      126706.52     -807640.15     -9392.3264      0.36181157     0.055473844    28.538333      3436.1818    
      1590   3.18           280.37832      126828.97     -807637.75     -9405.0357      0.36178888     0.055552393    28.548968      3435.9033    
      1600   3.2            300.98244      131850.51     -807634.97     -9569.5673      0.36176605     0.056527794    28.568295      3435.6093    
      1610   3.22           314.66637      134414.99     -807631.94     -9710.927       0.36174307     0.057366454    28.593517      3435.2957    
      1620   3.24           312.34518      140344.27     -807624.69     -9912.0585      0.36171995     0.058558363    28.580265      3434.9916    
      1630   3.26           299.22219      140331.65     -807622.45     -9912.281       0.36169669     0.058563444    28.545462      3434.7126    
      1640   3.28           306.52635      139473.32     -807624.89     -9852.4914      0.36167329     0.058213963    28.545285      3434.4329    
      1650   3.3            315.09759      132040.97     -807633.44     -9609.9871      0.36164974     0.056784811    28.532328      3434.1618    
      1660   3.32           293.61896      130445.41     -807634.03     -9484.2128      0.36162605     0.05604529     28.50622       3433.9088    
      1670   3.34           306.52396      125138.3      -807639.86     -9352.0998      0.36160222     0.055268234    28.551467      3433.6218    
      1680   3.36           301.9769       129175.73     -807636.15     -9442.5586      0.36157824     0.05580652     28.559457      3433.3284    
      1690   3.38           323.41985      130321.62     -807636.53     -9526.0066      0.36155413     0.056303461    28.605788      3433.0013    
      1700   3.4            317.65077      137223.18     -807628.04     -9768.2639      0.36152987     0.057739197    28.558591      3432.7074    
      1710   3.42           304.44847      139049.04     -807622.46     -9889.7782      0.36150546     0.058461402    28.560289      3432.4116    
      1720   3.44           308.89873      140576.45     -807623.04     -9889.774       0.36148092     0.058465347    28.534926      3432.1329    
      1730   3.46           302.26918      136082.18     -807626.31     -9756.5842      0.36145623     0.057681908    28.517842      3431.8654    
      1740   3.48           298.92882      133372.91     -807629.83     -9626.6311      0.3614314      0.056917523    28.501215      3431.6085    
      1750   3.5            307.84851      128186.19     -807636.65     -9451.1418      0.36140643     0.055883802    28.582227      3431.2946    
      1760   3.52           302.06942      128127.06     -807637.83     -9387.8075      0.36138131     0.055513169    28.595311      3430.9714    
      1770   3.54           303.93009      128652.43     -807637.44     -9411.6166      0.36135605     0.055657851    28.636568      3430.6199    
      1780   3.56           311.59081      132854.13     -807632.74     -9598.6164      0.36133065     0.056767709    28.599417      3430.2935    
      1790   3.58           320.03317      136421.34     -807628.56     -9776.2676      0.36130511     0.057822453    28.546111      3430.0027    
      1800   3.6            305.85087      139501.69     -807623.52     -9878.5534      0.36127942     0.058431584    28.569561      3429.6955    
      1810   3.62           307.52982      139299.75     -807624.94     -9844.7612      0.3612536      0.058235867    28.609326      3429.3614    
      1820   3.64           308.06512      135867.82     -807628.31     -9744.6685      0.36122763     0.057647921    28.637817      3429.0084    
      1830   3.66           301.75797      132748.59     -807631.94     -9605.225       0.36120151     0.056827103    28.535387      3428.7227    
      1840   3.68           303.76279      127889.47     -807637.93     -9427.4636      0.36117526     0.055779474    28.582809      3428.4053    
      1850   3.7            304.55412      127355.74     -807640.3      -9360.4322      0.36114886     0.055386917    28.57788       3428.0907    
      1860   3.72           289.95637      129184.25     -807636.3      -9430.7852      0.36112232     0.055807306    28.561793      3427.7862    
      1870   3.74           310.0741       132895.06     -807633.11     -9627.5347      0.36109564     0.056975794    28.553141      3427.4867    
      1880   3.76           306.16405      135722.69     -807628.4      -9767.7986      0.36106881     0.057810171    28.626589      3427.1398    
      1890   3.78           291.8421       140172.37     -807624.09     -9846.0985      0.36104184     0.058277938    28.571037      3426.8281    
      1900   3.8            290.56781      138419.76     -807624.89     -9821.0141      0.36101474     0.058133831    28.543635      3426.5334    
      1910   3.82           302.95861      136319.45     -807627.92     -9781.2368      0.36098748     0.057902747    28.531065      3426.246     
      1920   3.84           297.48778      130935.56     -807634.02     -9566.3198      0.36096009     0.056634784    28.556917      3425.9417    
      1930   3.86           293.25915      128535.28     -807638.69     -9399.2281      0.36093255     0.055649809    28.59056       3425.6161    
      1940   3.88           290.03616      126649.52     -807639.65     -9358.3801      0.36090487     0.05541221     28.582267      3425.2953    
      1950   3.9            296.97132      129680.97     -807636.36     -9497.3529      0.36087705     0.056239422    28.59366       3424.9672    
      1960   3.92           299.96169      131977.94     -807633.55     -9604.8348      0.36084909     0.056880294    28.653663      3424.6022    
      1970   3.94           296.15062      137363.94     -807628.57     -9745.5403      0.36082098     0.057718054    28.580847      3424.2817    
      1980   3.96           298.62306      138730.2      -807626.37     -9829.4919      0.36079273     0.058219816    28.529832      3423.9918    
      1990   3.98           298.666        138855.82     -807624.94     -9875.489       0.36076434     0.058496859    28.541667      3423.6942    
      2000   4              305.40221      135035.06     -807630.92     -9714.6336      0.36073581     0.057548593    28.562955      3423.3832    
      2010   4.02           293.08983      130888.31     -807635.2      -297.48616      0.36070713     0.056397461    28.638206      3423.027     
      2020   4.04           304.1059       126842.91     -807640.67     -293.5702       0.36067831     0.055659519    28.638939      3422.6705    
      2030   4.06           279.06498      127617.22     -807636.47     -294.22792      0.36064935     0.055788699    28.626812      3422.3211    
      2040   4.08           291.21518      128494.65     -807636.69     -295.62267      0.36062025     0.056057682    28.651421      3421.9574    
      2050   4.1            299.91252      132587.31     -807634.32     -299.14941      0.36059101     0.056731043    28.67895       3421.5778    
      2060   4.12           304.84337      136821.62     -807628.65     -305.43435      0.36056162     0.057927649    28.672082      3421.2024    
      2070   4.14           294.12728      138827.53     -807623.37     -309.10486      0.36053209     0.058628586    28.652723      3420.8385    
      2080   4.16           296.80942      137919.03     -807626.21     -306.49023      0.36050242     0.058137448    28.665899      3420.4671    
      2090   4.18           298.88409      134188.72     -807631.85     -301.02807      0.36047261     0.057106066    28.685931      3420.0846    
      2100   4.2            296.4712       130540.58     -807634.66     -297.70524      0.36044265     0.056480407    28.686322      3419.7021    
      2110   4.22           289.05643      127772.09     -807636.12     -295.00663      0.36041256     0.055973102    28.764502      3419.276     
      2120   4.24           285.26265      128704.2      -807637.56     -292.77066      0.36038232     0.055553521    28.778325      3418.843     
      2130   4.26           295.71528      129464.47     -807638.25     -293.29431      0.36035193     0.055657578    28.734813      3418.4349    
      2140   4.28           311.10717      134835.46     -807631.89     -301.49279      0.36032141     0.057218224    28.73385       3418.0279    
      2150   4.3            306.81036      136191.32     -807626.34     -306.14569      0.36029075     0.058106212    28.697309      3417.6417    
      2160   4.32           302.39859      139759.31     -807624.01     -307.37376      0.36025994     0.058344287    28.687632      3417.2611    
      2170   4.34           297.21155      136680.99     -807627.29     -303.04342      0.36022899     0.057527263    28.644497      3416.9045    
      2180   4.36           308.34589      135812.18     -807629.14     -302.34498      0.36019789     0.057399633    28.64362       3416.5484    
      2190   4.38           308.05854      128973.89     -807634.21     -297.01446      0.36016666     0.056392532    28.645506      3416.1913    
      2200   4.4            296.3979       129481.71     -807636.05     -293.09429      0.36013528     0.05565308     28.64593       3415.8341    
      2210   4.42           303.6364       125695.75     -807640.65     -289.34126      0.36010377     0.054945259    28.685816      3415.4555    
      2220   4.44           315.87314      131315.79     -807634.45     -296.98391      0.36007211     0.056401539    28.672799      3415.0842    
      2230   4.46           309.77886      133530.89     -807628.63     -301.94012      0.3600403      0.057347861    28.645202      3414.7278    
      2240   4.48           320.50595      138570.2      -807626.64     -305.22756      0.36000836     0.057977392    28.620809      3414.3844    
      2250   4.5            304.89252      138104.04     -807625.25     -304.40453      0.35997627     0.057826212    28.589709      3414.0575    
      2260   4.52           312.53545      139410.78     -807624.31     -306.31872      0.35994404     0.058195053    28.594996      3413.7275    
      2270   4.54           307.76008      133628.21     -807628.3      -301.72399      0.35991167     0.057327292    28.617749      3413.3855    
      2280   4.56           313.07433      131484.73     -807634.43     -296.23402      0.35987916     0.056289288    28.663592      3413.0194    
      2290   4.58           295.84158      127334.75     -807638.2      -290.11905      0.35984651     0.055132346    28.647689      3412.6617    
      2300   4.6            299.95657      129196.56     -807635.7      -293.2148       0.35981371     0.055725721    28.650011      3412.303     
      2310   4.62           300.85176      130443.14     -807632.5      -296.67027      0.35978077     0.056387597    28.685316      3411.9261    
      2320   4.64           315.70592      133514.55     -807632.12     -299.13422      0.35974769     0.056861145    28.662049      3411.5614    
      2330   4.66           307.67361      137732.33     -807626.98     -303.21868      0.35971447     0.057642865    28.643804      3411.2061    
      2340   4.68           305.89608      138919.03     -807623.39     -306.7665       0.35968111     0.058322726    28.656083      3410.8446    
      2350   4.7            312.7082       137971.45     -807625.38     -305.77889      0.3596476      0.058140377    28.679088      3410.4716    
      2360   4.72           311.64828      132910.04     -807631.64     -299.5206       0.35961396     0.056955763    28.639409      3410.1189    
      2370   4.74           308.29205      131116.36     -807636.25     -294.51619      0.35958017     0.056009404    28.701635      3409.7349    
      2380   4.76           296.00022      126531.98     -807636.92     -292.2777       0.35954624     0.055588948    28.738891      3409.3327    
      2390   4.78           299.86676      128909.16     -807635.96     -293.83177      0.35951216     0.055889816    28.684644      3408.9579    
      2400   4.8            301.99314      129150.19     -807636.71     -293.57567      0.35947795     0.055846419    28.655561      3408.5977    
      2410   4.82           305.68353      135033.26     -807630.62     -300.21876      0.35944359     0.057115582    28.647385      3408.2416    
      2420   4.84           299.62968      136456.05     -807625.65     -304.60171      0.35940909     0.057954984    28.671115      3407.8739    
      2430   4.86           305.11926      139663.71     -807623.6      -307.44191      0.35937446     0.058501013    28.683211      3407.5004    
      2440   4.88           308.85903      135231.73     -807629.55     -302.17091      0.35933967     0.057503595    28.654424      3407.1412    
      2450   4.9            310.87156      134121.56     -807632.08     -299.94568      0.35930475     0.057085679    28.715275      3406.7526    
      2460   4.92           301.91545      128923.15     -807635.45     -295.48613      0.35926969     0.056242425    28.736593      3406.354     
      2470   4.94           295.62632      129204.48     -807636.23     -293.78784      0.35923448     0.055924656    28.750314      3405.9494    
      2480   4.96           292.78294      127460.51     -807639.37     -290.47003      0.35919913     0.055298528    28.67931       3405.579     
      2490   4.98           295.18919      132482.84     -807634.61     -295.58582      0.35916364     0.056278013    28.699827      3405.1991    
      2500   5              293.27349      133878.17     -807628.68     -301.40583      0.35912801     0.057391806    28.659586      3404.8385    
[...]
     98740   197.48         294.78122      133446.96     -807629.27     -9683.5284      0.36236891     0.057105802    30.032791      44.367016    
     98750   197.5          297.24028      134890.16     -807629.78     -9681.6303      0.36238762     0.057091662    30.040642      44.014654    
     98760   197.52         309.6547       130372.42     -807636.55     -9527.1556      0.36240618     0.056177862    30.055404      43.662293    
     98770   197.54         307.01342      132006.3      -807634.26     -9592.4337      0.36242459     0.056559907    30.071766      43.309934    
     98780   197.56         308.84724      132177.4      -807633.47     -9638.2519      0.36244287     0.056827199    30.063728      42.95758     
     98790   197.58         303.54928      134520.86     -807631.04     -9700.9628      0.362461       0.057194082    30.07531       42.605228    
     98800   197.6          299.95412      134680.45     -807629.98     -9730.2289      0.36247899     0.05736378     30.047558      42.252885    
     98810   197.62         298.06889      135513        -807629.68     -9742.9419      0.36249683     0.057435901    30.053348      41.900544    
     98820   197.64         289.21674      137140.77     -807626.9      -9802.1008      0.36251453     0.057781829    30.078437      41.548204    
     98830   197.66         296.06989      132605.03     -807631.75     -9689.0204      0.36253209     0.057112471    30.055146      41.195871    
     98840   197.68         292.91368      134102.11     -807632.63     -9652.3311      0.36254951     0.056893471    30.036055      40.843545    
     98850   197.7          290.98179      129990.53     -807635.69     -9556.166       0.36256678     0.056323964    29.993421      40.491228    
     98860   197.72         295.31095      133443.82     -807633.42     -9651.6386      0.36258391     0.056883991    29.955902      40.138919    
     98870   197.74         291.96494      130653.09     -807634.87     -9601.0875      0.3626009      0.056583407    29.963883      39.786614    
     98880   197.76         291.60651      136737.69     -807630.25     -9745.765       0.36261774     0.057433386    29.959839      39.434312    
     98890   197.78         298.42565      133367.19     -807633.03     -9695.79        0.36263445     0.057136244    29.987749      39.082011    
     98900   197.8          294.66941      138319.93     -807628.27     -9828.0066      0.362651       0.057912738    30.010307      38.729711    
     98910   197.82         292.02296      133092.16     -807631.51     -9719.4483      0.36266742     0.057270452    30.031582      38.377412    
     98920   197.84         299.12313      135496.76     -807631.91     -9732.557       0.36268369     0.057345121    30.018467      38.025119    
     98930   197.86         291.22648      129653.02     -807636.15     -9567.7952      0.36269982     0.056371821    30.033572      37.672828    
     98940   197.88         293.95047      133749.35     -807634.48     -9627.6418      0.36271581     0.056721928    30.060105      37.320537    
     98950   197.9          290.66108      129796.39     -807635.76     -9575.5688      0.36273165     0.056412672    30.046133      36.968252    
     98960   197.92         300.58668      134343.12     -807633.15     -9697.5828      0.36274735     0.057129022    30.044368      36.615972    
     98970   197.94         290.21801      133144.9      -807632.4      -9677.8719      0.36276291     0.057010459    30.0445        36.263695    
     98980   197.96         289.81817      136853.24     -807628.09     -9808.1923      0.36277832     0.057775696    30.070168      35.911419    
     98990   197.98         289.79216      134494.65     -807629.4      -9767.2745      0.36279359     0.057532245    30.079075      35.559146    
     99000   198            301.04212      135553.02     -807631.22     -9753.0235      0.36280872     0.057445907    30.049683      35.20688     
     99010   198.02         291.15093      132801.11     -807632.46     -302.01603      0.3628237      0.056922223    30.101537      34.854613    
     99020   198.04         299.7742       132496.9      -807634.72     -300.80353      0.36283855     0.056691379    30.119482      34.502348    
     99030   198.06         300.20789      130969.81     -807635.47     -299.97645      0.36285324     0.056533213    30.120673      34.150086    
     99040   198.08         301.39718      131532.23     -807635.26     -300.24266      0.3628678      0.056581114    30.102587      33.797831    
     99050   198.1          292.07825      133417.79     -807631.34     -302.67795      0.36288221     0.057037781    30.116447      33.445578    
     99060   198.12         296.49421      133888.77     -807630.48     -304.05947      0.36289648     0.057295867    30.124266      33.093329    
     99070   198.14         300.64287      136937.03     -807628.66     -306.24136      0.36291061     0.057704768    30.131106      32.741083    
     99080   198.16         300.07086      135887.71     -807629.55     -305.16054      0.36292459     0.057498896    30.107809      32.388843    
     99090   198.18         299.40698      136669.45     -807629.67     -304.73424      0.36293843     0.057416381    30.116416      32.036607    
     99100   198.2          305.43487      131675.66     -807633.58     -301.59202      0.36295213     0.056822197    30.148706      31.684371    
     99110   198.22         300.70252      133122.67     -807632.8      -301.47206      0.36296568     0.056797475    30.108594      31.332144    
     99120   198.24         302.98887      129820.36     -807635.65     -298.95032      0.36297909     0.056320296    30.104821      30.979921    
     99130   198.26         296.42197      133934.11     -807631.74     -301.76003      0.36299236     0.05684755     30.126447      30.6277      
     99140   198.28         300.25406      132770.96     -807632.63     -301.42367      0.36300548     0.056782131    30.145208      30.275481    
     99150   198.3          302.25409      136976.02     -807627.72     -306.43408      0.36301846     0.057723928    30.133643      29.923268    
     99160   198.32         306.92463      134403.42     -807629.69     -305.15424      0.3630313      0.057480806    30.132546      29.571058    
     99170   198.34         306.8047       137223.86     -807628.21     -306.54808      0.36304399     0.057741341    30.125363      29.218854    
     99180   198.36         296.09017      133574.3      -807630.03     -303.23885      0.36305655     0.057116041    30.125458      28.866653    
     99190   198.38         304.60622      133912.39     -807630.87     -303.4858       0.36306895     0.0571606      30.120565      28.514457    
     99200   198.4          305.84638      130414.48     -807634.65     -299.99273      0.36308122     0.056500783    30.095804      28.162268    
     99210   198.42         295.84779      132481.23     -807632.51     -300.71418      0.36309334     0.05663477     30.114059      27.81008     
     99220   198.44         304.52088      131894.97     -807633.7      -300.73928      0.36310532     0.056637629    30.107727      27.457898    
     99230   198.46         296.61621      134866.15     -807628.85     -304.49992      0.36311715     0.057343993    30.064808      27.105723    
     99240   198.48         306.13669      134506.97     -807629.31     -305.46699      0.36312885     0.057524261    30.072562      26.753551    
     99250   198.5          305.29111      135498.68     -807629.18     -305.47847      0.3631404      0.057524595    30.092585      26.401382    
     99260   198.52         303.06169      135505.65     -807629.29     -305.08621      0.3631518      0.057448924    30.064366      26.049219    
     99270   198.54         298.99527      134414.19     -807628.92     -304.9572       0.36316306     0.057422849    30.105961      25.697056    
     99280   198.56         307.3513       132630.79     -807632.46     -302.55803      0.36317418     0.056969347    30.116618      25.344897    
     99290   198.58         299.52635      131617.87     -807634.84     -299.13075      0.36318516     0.056322313    30.100822      24.992743    
     99300   198.6          296.03084      132641.73     -807632.43     -301.08222      0.36319599     0.056688058    30.111551      24.640592    
     99310   198.62         315.64655      131701.43     -807634.06     -302.24305      0.36320668     0.056904946    30.114857      24.288445    
     99320   198.64         306.57016      135013.87     -807630.37     -304.61656      0.36321723     0.057350155    30.129528      23.936301    
     99330   198.66         308.10993      134197.99     -807631.93     -303.42468      0.36322763     0.057124123    30.121864      23.584161    
     99340   198.68         296.92218      137750.37     -807627.14     -306.67721      0.36323789     0.057734828    30.126358      23.232026    
     99350   198.7          310.45148      133941.66     -807630.38     -305.50639      0.36324801     0.057512808    30.128355      22.879894    
     99360   198.72         293.97649      135479.7      -807628.7      -304.87518      0.36325798     0.057392405    30.125122      22.527766    
     99370   198.74         280.3222       131574.04     -807631.74     -300.0236       0.36326781     0.056477572    30.110766      22.175644    
     99380   198.76         307.07513      132511.6      -807633.66     -301.7923       0.3632775      0.056809003    30.116295      21.823525    
     99390   198.78         295.42794      130093.74     -807632.5      -301.52981      0.36328704     0.056758102    30.135082      21.471409    
     99400   198.8          305.84224      134741.35     -807631.6      -303.84338      0.36329644     0.057192114    30.136516      21.119297    
     99410   198.82         301.86598      133252.17     -807632.71     -302.33435      0.3633057      0.056906621    30.112077      20.767191    
     99420   198.84         305.94627      136731.04     -807629.11     -306.45562      0.36331481     0.057680896    30.095374      20.415089    
     99430   198.86         300.07434      134567.49     -807628.26     -306.67068      0.36332378     0.05771995     30.143984      20.062989    
     99440   198.88         297.86938      135252.92     -807628.64     -305.87003      0.36333261     0.057567857    30.135552      19.710893    
     99450   198.9          297.19334      132404.28     -807633.24     -301.32397      0.36334129     0.056710888    30.135507      19.358802    
     99460   198.92         289.92219      133387.58     -807632.16     -301.4043       0.36334983     0.056724673    30.149277      19.006713    
     99470   198.94         305.78103      131255.76     -807633.71     -302.1368       0.36335823     0.056861216    30.16325       18.654628    
     99480   198.96         304.1136       131687.65     -807634.29     -301.39807      0.36336648     0.056720901    30.125749      18.302549    
     99490   198.98         302.99013      133087.64     -807634.13     -301.395        0.3633746      0.056719056    30.079909      17.950477    
     99500   199            293.56678      134696.15     -807629.66     -304.68019      0.36338256     0.057336034    30.098512      17.598408    
     99510   199.02         290.74058      135862.34     -807626.72     -9835.4751      0.36339039     0.057838823    30.023635      17.246347    
     99520   199.04         307.75235      134444.86     -807630.84     -9781.7523      0.36339807     0.057521683    29.977377      16.894292    
     99530   199.06         296.81485      135165.8      -807630.67     -9738.4245      0.3634056      0.057265706    29.984062      16.54224     
     99540   199.08         293.66475      133728.57     -807631.13     -9716.136       0.363413       0.057133479    29.997468      16.190192    
     99550   199.1          296.73784      133881.6      -807631.62     -9716.5682      0.36342025     0.05713488     30.01892       15.838146    
     99560   199.12         300.76619      130913.5      -807635.27     -9622.553       0.36342736     0.05658095     30.040157      15.486103    
     99570   199.14         291.76019      132957.11     -807634.24     -9619.0406      0.36343432     0.056559213    30.04834       15.134063    
     99580   199.16         295.76019      131957.28     -807632.85     -9690.1474      0.36344114     0.056976246    30.053335      14.782027    
     99590   199.18         289.46956      135901.38     -807628.62     -9801.0114      0.36344782     0.057627047    30.041178      14.429996    
     99600   199.2          301.37021      133647.81     -807632.26     -9743.6874      0.36345435     0.057288969    30.039124      14.077968    
     99610   199.22         295.85049      136053.93     -807630.9      -9767.9574      0.36346074     0.057430657    30.027979      13.725945    
     99620   199.24         297.64352      133611.99     -807631.78     -9758.1877      0.36346699     0.05737223     30.02473       13.373925    
     99630   199.26         289.60292      134781.46     -807630.14     -9778.8026      0.3634731      0.057492468    30.070692      13.021908    
     99640   199.28         295.0606       131643.38     -807635.26     -9648.1314      0.36347906     0.056723283    30.079764      12.669894    
     99650   199.3          280.34218      132683.3      -807633.61     -9639.2756      0.36348487     0.056670311    30.041909      12.317886    
     99660   199.32         288.1748       131365.82     -807633.88     -9672.9629      0.36349055     0.056867474    30.06518       11.96588     
     99670   199.34         285.0074       133543.22     -807631.2      -9746.9921      0.36349608     0.057301821    30.049128      11.613879    
     99680   199.36         283.52441      133474.65     -807631.35     -9737.4592      0.36350147     0.05724493     30.013024      11.261883    
     99690   199.38         299.19327      134221.01     -807632.78     -9763.1039      0.36350671     0.057394862    29.994866      10.909892    
     99700   199.4          290.091        134585.46     -807630.59     -9795.4036      0.36351181     0.057583936    30.047457      10.557902    
     99710   199.42         281.76911      135356.32     -807629.49     -9793.6017      0.36351677     0.057572559    30.052591      10.205916    
     99720   199.44         288.64282      132349.12     -807633.59     -9692.3514      0.36352158     0.056976595    30.058452      9.853934     
     99730   199.46         283.9329       131989.09     -807633.77     -9663.0421      0.36352625     0.05680357     30.069897      9.5019553    
     99740   199.48         286.16249      131971.02     -807633.12     -9693.5799      0.36353078     0.056982375    30.053436      9.149981     
     99750   199.5          283.53699      132469.5      -807632.19     -9707.6435      0.36353516     0.057064358    30.022017      8.7980115    
     99760   199.52         282.6971       133680.56     -807631.86     -9707.2678      0.3635394      0.057061484    29.980647      8.4460468    
     99770   199.54         299.13828      132810.59     -807633.24     -9730.9013      0.3635435      0.057199762    29.976247      8.094086     
     99780   199.56         294.91727      134870.45     -807630.24     -9799.6997      0.36354745     0.057603544    29.967301      7.742129     
     99790   199.58         293.85147      134047.3      -807630.78     -9771.7453      0.36355126     0.057438623    29.950582      7.3901761    
     99800   199.6          293.70687      134475.78     -807631.57     -9735.6415      0.36355493     0.057225827    30.036364      7.0382249    
     99810   199.62         299.77636      132522.47     -807634.26     -9668.0598      0.36355845     0.056828032    30.059291      6.6862771    
     99820   199.64         287.02081      133057.98     -807630.98     -9706.3937      0.36356183     0.057052825    30.065918      6.3343329    
     99830   199.66         295.18969      131713.14     -807633.09     -9669.0769      0.36356507     0.056832976    30.059505      5.9823928    
     99840   199.68         296.52553      133232.31     -807633.24     -9660.5242      0.36356816     0.056782222    30.055543      5.6304566    
     99850   199.7          298.76219      132789.09     -807632.54     -9686.9827      0.36357111     0.056937277    30.027198      5.2785247    
     99860   199.72         299.61413      135183.86     -807629.23     -9790.5172      0.36357392     0.057545379    29.955388      4.9265977    
     99870   199.74         296.77583      135107.74     -807629.18     -9773.5978      0.36357658     0.057445511    29.956622      4.5746743    
     99880   199.76         296.61507      135274.28     -807629.96     -9742.8613      0.3635791      0.057264457    29.96836       4.2227544    
     99890   199.78         308.55588      134020.13     -807631.84     -9731.3972      0.36358148     0.057196702    30.047709      3.8708372    
     99900   199.8          293.7196       134219.17     -807628.63     -9763.9909      0.36358371     0.05738792     30.073288      3.5189235    
     99910   199.82         295.83725      132593.19     -807631.15     -9690.2469      0.3635858      0.056954162    30.072555      3.1670137    
     99920   199.84         307.66702      131459.98     -807635.16     -9609.7324      0.36358775     0.056480638    30.058476      2.8151079    
     99930   199.86         304.01591      133063.02     -807632.91     -9663.8508      0.36358955     0.056798434    30.047778      2.4632061    
     99940   199.88         295.65525      134341.76     -807628.84     -9756.2387      0.36359121     0.057341174    30.027758      2.1113082    
     99950   199.9          302.84446      134290.33     -807629.71     -9758.6764      0.36359273     0.057355262    30.021292      1.7594141    
     99960   199.92         303.76163      134228.04     -807631.56     -9701.4832      0.3635941      0.057018902    30.046366      1.4075236    
     99970   199.94         303.09947      134975.98     -807630.04     -9746.6309      0.36359533     0.057284056    30.054722      1.055637     
     99980   199.96         291.95321      134132.8      -807626.98     -9795.4535      0.36359641     0.05757083     30.105536      0.70375404   
     99990   199.98         304.82985      134056.81     -807630.76     -9730.133       0.36359736     0.057186774    30.094456      0.35187506   
    100000   200            296.39624      132864.84     -807632.88     -9624.8337      0.36359816     0.056567775    30.058653      0            
Loop time of 3518.73 on 32 procs for 100000 steps with 1080 atoms

Performance: 4.911 ns/day, 4.887 hours/ns, 28.419 timesteps/s, 30.693 katom-step/s
62.8% CPU use with 32 MPI tasks x 1 OpenMP threads

MPI task timing breakdown:
Section |  min time  |  avg time  |  max time  |%varavg| %total
---------------------------------------------------------------
Pair    | 2487.7     | 2801.5     | 3155.3     | 320.4 | 79.62
Neigh   | 0.0012282  | 0.0013392  | 0.0015038  |   0.2 |  0.00
Comm    | 289.96     | 643.78     | 957.6      | 668.4 | 18.30
Output  | 2.3413     | 2.3453     | 2.3528     |   0.2 |  0.07
Modify  | 64.806     | 65.127     | 65.404     |   1.5 |  1.85
Other   |            | 5.973      |            |       |  0.17

Nlocal:          33.75 ave          41 max          28 min
Histogram: 2 4 2 5 9 4 2 1 0 3
Nghost:         1035.5 ave        1049 max        1012 min
Histogram: 1 0 1 2 5 3 6 6 4 4
Neighs:              0 ave           0 max           0 min
Histogram: 32 0 0 0 0 0 0 0 0 0
FullNghs:      5355.69 ave        6571 max        4431 min
Histogram: 2 4 2 5 9 4 2 1 0 3

Total # of neighbors = 171382
Ave neighs/atom = 158.68704
Neighbor list builds = 3
Dangerous builds = 0

Total wall time: 1:02:09
