
units		metal
atom_style	atomic

read_data ${STRUCTURE}.data
read_data BaTiO3-sc333.data
Reading data file ...
  orthogonal box = (0 0 0) to (11.898253 11.898253 12.912076)
  2 by 4 by 4 MPI processor grid
  reading atoms ...
  135 atoms
  read_data CPU = 0.008 seconds
replicate $L $L $L
replicate 2 $L $L
replicate 2 2 $L
replicate 2 2 2
Replication is creating a 2x2x2 = 8 times larger system...
  orthogonal box = (0 0 0) to (23.796507 23.796507 25.824152)
  2 by 4 by 4 MPI processor grid
  1080 atoms
  replicate CPU = 0.004 seconds

pair_style allegro
pair_coeff	* * ${MODEL}.pth Ba Ti O
pair_coeff	* * BaTiO3-E0.pth Ba Ti O
mass 1 137.3
mass 2 47.9
mass 3 15.9994

timestep 0.002
compute polarization all allegro polarization 3
compute allegro will evaluate the quantity polarization of length 3 (src/compute_allegro.cpp:53)
compute polarizability all allegro polarizability 9
compute allegro will evaluate the quantity polarizability of length 9 (src/compute_allegro.cpp:53)

thermo_style custom pe fmax fnorm spcpu cpuremain

variable efield equal 1e-2*36.36
fix born all addbornforce 0.0 0.0 ${efield}
fix born all addbornforce 0.0 0.0 0.3636

thermo 10
min_style fire
#minimize 0.0 1e-6 100 100
velocity all create ${TEMP} ${SEED} dist gaussian rot yes mom yes
velocity all create 290 ${SEED} dist gaussian rot yes mom yes
velocity all create 290 13195 dist gaussian rot yes mom yes
fix nvt all nvt temp ${TEMP} ${TEMP} $(100*dt)
fix nvt all nvt temp 290 ${TEMP} $(100*dt)
fix nvt all nvt temp 290 290 $(100*dt)
fix nvt all nvt temp 290 290 0.2000000000000000111
run 5000
Neighbor list info ...
  update: every = 1 steps, delay = 0 steps, check = yes
  max neighbors/atom: 2000, page size: 100000
  master list distance cutoff = 8
  ghost atom cutoff = 8
  binsize = 8, bins = 3 3 4
  1 neighbor lists, perpetual/occasional/extra = 1 0 0
  (1) pair allegro/kk, perpetual
      attributes: full, newton on, kokkos_device
      pair build: full/bin/kk/device
      stencil: full/bin/3d
      bin: kk/device
Per MPI rank memory allocation (min/avg/max) = 3.516 | 3.516 | 3.516 Mbytes
    PotEng          Fmax          Fnorm          S/CPU         CPULeft    
-807708.29      1.5951221      37.041671      0              0            
-807648.88      3.1901035      44.576208      2.3069883      2162.9941    
-807637.59      2.497261       34.86926       25.877078      1175.5539    
-807608.01      3.0554254      37.231323      25.873692      846.15789    
-807605.73      4.5628965      50.07496       25.818155      681.36974    
-807570.72      3.9171489      39.423578      25.79983       582.36916    
-807604.09      2.8971913      38.303707      25.866775      516.15697    
-807646.76      3.7709436      33.75682       25.857479      468.76189    
-807685.29      2.2981155      33.944263      25.833163      433.14125    
-807670.28      3.360363       33.242693      25.817279      405.36333    
-807654.33      2.882431       34.255873      25.855522      383.03544    
-807661.27      2.2912599      26.995608      25.877719      364.68209    
-807630.67      2.6111456      30.178069      25.866387      349.33011    
-807589         3.1617202      39.775372      25.859613      336.28428    
-807571.86      2.5405129      36.741734      25.87503       325.03892    
-807633.83      3.2851669      33.195441      25.869607      315.24402    
-807655.36      3.3259753      30.26396       25.882303      306.61943    
-807667.35      2.9977011      33.399298      25.846626      298.97919    
-807648.78      4.5915035      44.362465      25.874941      292.13353    
-807681.69      2.8174568      35.77457       25.823877      285.98715    
-807642.62      4.1617301      39.617682      25.821153      280.41766    
-807619.73      3.2994147      38.719125      25.87222       275.32428    
-807563.94      4.8488209      45.501155      25.902844      270.64887    
-807607.63      4.2392802      48.386409      25.844774      266.36442    
-807615.57      4.3179782      39.190436      25.824553      262.41079    
-807645.46      3.2625492      34.960238      25.875268      258.72805    
-807643.94      4.7279081      45.131479      25.880984      255.29731    
-807684.3       2.8747894      36.693197      25.83534       252.10403    
-807664.1       3.8420277      34.889847      25.782274      249.12463    
-807642.17      3.2056983      31.012352      25.865041      246.3038     
-807608.88      3.212672       33.582263      25.874394      243.64305    
-807608.29      4.1785194      41.107886      25.849879      241.13459    
-807600.1       3.7872005      35.348634      25.784646      238.77303    
-807613.38      3.9138724      32.813278      25.877022      236.5115     
-807644.19      3.8791026      30.018361      25.877938      234.36009    
-807674.78      2.3821073      31.168949      25.844182      232.31623    
-807678.8       2.3668044      31.157726      25.771072      230.37858    
-807647.47      3.3696751      36.79333       25.853599      228.50919    
-807649.62      2.6220789      30.196414      25.874833      226.71397    
-807623.3       3.3785783      33.436648      25.852166      224.995      
-807605.48      4.0050682      41.88276       25.830106      223.34644    
-807575.39      3.9994919      40.167837      25.885298      221.75017    
-807628.59      2.9605227      33.993038      25.88103       220.21221    
-807651.91      3.4537221      33.934665      25.875259      218.72872    
-807675.15      2.7113981      33.741571      25.827506      217.30251    
-807645.92      4.2319435      44.510095      25.869882      215.91606    
-807669.04      2.8493008      34.172325      25.854276      214.57539    
-807645.04      3.8551131      35.412183      25.831569      213.27859    
-807625.87      3.4869914      37.058923      25.846845      212.01754    
-807569.13      4.6229075      42.773555      25.861182      210.79019    
-807605.77      4.2632496      42.311126      25.857707      209.59694    
-807626.9       4.4398146      34.863412      25.836986      208.43804    
-807658.32      3.1774479      31.426083      25.867284      207.30493    
-807646.08      4.6232772      40.263724      25.86058       206.20083    
-807674.38      2.5614741      33.641662      25.846691      205.12502    
-807667.66      2.8357249      31.772787      25.786239      204.0816     
-807645.35      2.5081652      29.363691      25.843738      203.05476    
-807602.49      2.8346223      33.711436      25.883262      202.04577    
-807600.52      3.1202567      37.412868      25.864639      201.06038    
-807610.89      3.7930475      36.375104      25.813351      200.10102    
-807624.78      2.8761237      30.384817      25.884446      199.15292    
-807642.86      3.3499775      30.72201       25.87503       198.22426    
-807666.27      3.8101797      32.429455      25.871397      197.31347    
-807678.32      2.7441528      33.271031      25.785937      196.42821    
-807649.81      3.7187799      36.143764      25.839536      195.55301    
-807636.1       2.952706       31.932328      25.879758      194.68881    
-807613.88      4.3733009      34.694585      25.881578      193.83891    
-807607.41      3.942144       43.550051      25.811969      193.00958    
-807584.93      4.2786744      39.35368       25.866218      192.18809    
-807621.08      3.1512368      34.870622      25.867415      191.37909    
-807648.04      3.7061704      36.342736      25.865443      190.58233    
-807677.1       2.7198215      35.432347      25.782845      189.80462    
-807651.35      4.7444258      41.652266      25.788129      189.03727    
-807654.97      2.9450676      34.498229      25.838296      188.2759     
-807642.19      4.0045962      34.061918      25.833238      187.5251     
-807625.75      3.4679165      37.546465      25.834832      186.78385    
-807578.97      3.0877079      38.090397      25.852782      186.05043    
-807596.11      3.1044564      38.640767      25.875984      185.32411    
-807632.41      2.9336101      30.659101      25.865088      184.60738    
-807662.55      3.1535741      31.160136      25.844662      183.90063    
-807654.98      3.84912        35.51044       25.830288      183.20301    
-807661.7       3.9361013      34.243552      25.763393      182.51826    
-807666.11      3.050084       31.695768      25.822168      181.83624    
-807645.23      3.0345915      30.433069      25.790704      181.16369    
-807603.96      3.3551007      34.794975      25.850304      180.4935     
-807588.08      3.6177633      37.407083      25.869874      179.82855    
-807610.9       4.0726472      37.565791      25.848022      179.17164    
-807633.55      3.4762376      31.415054      25.823627      178.52268    
-807644.69      3.3359548      32.48491       25.855248      177.87745    
-807656.69      4.9278627      35.311375      25.834218      177.23948    
-807674.35      2.7251219      33.996585      25.773035      176.61127    
-807654.58      3.5464812      33.803235      25.76988       175.98855    
-807631.86      2.9529747      32.103451      25.833495      175.3667     
-807606.17      3.6720471      34.369653      25.864383      174.74787    
-807607.54      4.266359       41.553939      25.800282      174.13813    
-807601.83      3.922179       35.788617      25.839971      173.53054    
-807622.13      2.8152021      33.928858      25.865682      172.92591    
-807645.75      3.662188       34.53645       25.870061      172.32551    
-807673.98      2.7856206      33.861281      25.8272        171.73211    
-807659.43      3.0797095      35.182402      25.810351      171.1439     
-807649.55      3.1318869      32.671508      25.842923      170.55775    
-807635.21      3.528743       32.302263      25.84457       169.97544    
-807624.77      3.3636246      35.741919      25.833593      169.39761    
-807593.48      3.2808581      37.016725      25.807443      168.82499    
-807597.59      3.3616556      36.550569      25.868369      168.25246    
-807631.16      3.1120673      30.770687      25.856807      167.68412    
-807662.06      2.6272039      31.032714      25.822011      167.12115    
-807661.85      3.4711693      32.899523      25.791489      166.56314    
-807655.7       3.4160223      34.073901      25.84478       166.00538    
-807658.27      2.5163606      30.394186      25.831631      165.45147    
-807643.38      3.0022307      29.755828      25.829552      164.9007     
-807612.39      3.0285574      33.384787      25.845601      164.35203    
-807585.9       3.7143667      37.419853      25.899767      163.80345    
-807612.05      3.0730687      34.867152      25.893963      163.25804    
-807638.5       3.877201       32.194353      25.885289      162.71586    
-807653.44      3.2965894      31.579992      25.87086       162.17712    
-807650.44      3.7653595      36.822718      25.872178      161.64093    
-807668.94      2.5607167      32.939175      25.808853      161.11041    
-807654.02      3.096005       33.743028      25.817052      160.58191    
-807634.05      2.6989981      31.906166      25.831463      160.05509    
-807598.12      3.3754651      35.608066      25.890255      159.52782    
-807606.49      3.25052        38.990756      25.909356      159.00199    
-807611.08      2.961926       34.022622      25.849562      158.48121    
-807633.97      2.3868142      30.811712      25.911072      157.9598     
-807642.79      4.3323448      34.176558      25.882547      157.44187    
-807668.76      3.1708234      32.390054      25.755367      156.93176    
-807660.95      3.2449324      33.296195      25.751147      156.42377    
-807648.28      2.8809986      31.85106       25.828709      155.91425    
-807623.77      3.8965193      32.648932      25.895855      155.40372    
-807618.66      3.3235769      35.285711      25.819059      154.89841    
-807601.14      3.6347006      37.222562      25.826305      154.39462    
-807606.84      3.1349058      35.516125      25.90599       153.88925    
-807628.56      3.2431029      32.554134      25.923264      153.38498    
-807659.61      3.3604117      31.724959      25.86786       152.88476    
-807664.32      2.8072588      33.513383      25.78467       152.38965    
-807653.32      2.9116341      34.307298      25.749498      151.89756    
-807647.33      3.2606161      32.103015      25.799031      151.405      
-807636.12      2.8859209      31.446974      25.860781      150.91152    
-807614.71      3.2593181      35.379735      25.845843      150.42017    
-807589.71      3.1867236      37.071574      25.866444      149.92952    
-807610.77      3.0015803      34.755887      25.854323      149.44083    
-807641.63      3.8991417      31.833669      25.849404      148.95377    
-807659.06      2.7032865      32.213916      25.824409      148.46907    
-807650.17      4.331253       36.734275      25.804462      147.98648    
-807660.31      3.1106396      33.079727      25.814031      147.50485    
-807651.63      3.4171105      32.51634       25.865733      147.02262    
-807634.19      2.6660001      32.015318      25.842517      146.54255    
-807595.39      3.582958       36.103439      25.881228      146.06236    
-807601.78      3.5824298      37.860201      25.776259      145.58717    
-807617.67      3.1517391      34.331105      25.792399      145.11258    
-807641.96      2.8600231      32.227261      25.859324      144.63681    
-807645.03      3.8006957      34.871606      25.901571      144.16077    
-807662.59      3.3512492      32.903871      25.853805      143.68754    
-807660.82      2.7929949      33.405538      25.782428      143.21786    
-807648.06      2.4863124      31.278551      25.80024       142.74865    
-807619.26      3.581736       32.477824      25.874815      142.27801    
-807608.26      2.9246579      34.959213      25.879909      141.80828    
-807605.24      3.8709942      37.658168      25.783138      141.34277    
-807617.8       3.0647652      33.388946      25.851046      140.87605    
-807632.84      3.240495       32.877392      25.863505      140.40993    
-807654.96      3.1446111      33.181684      25.845699      139.94537    
-807663.77      3.196769       34.41424       25.86102       139.48129    
-807654.52      3.5610072      34.011545      25.860286      139.01819    
-807639.46      3.7708293      33.204466      25.893706      138.55499    
-807626.83      2.4427013      32.275217      25.871248      138.09342    
-807613.56      3.1535012      36.614857      25.869047      137.63283    
-807598.38      2.7067648      35.751583      25.911944      137.17184    
-807614.41      3.0406817      34.31095       25.884643      136.71256    
-807638.95      3.7064637      32.098662      25.89609       136.25382    
-807662.4       2.6547216      31.93521       25.851112      135.79725    
-807653.08      3.6257274      35.406504      25.887081      135.34045    
-807653.47      2.7422337      32.613447      25.852689      134.88547    
-807643.21      3.2807643      33.02558       25.866953      134.43088    
-807633.48      3.0714887      32.63595       25.900174      133.97613    
-807598.5       3.543162       36.703526      25.873015      133.52293    
-807600.72      3.9385045      37.719214      25.916545      133.06929    
-807619.66      3.3812552      34.17396       25.872955      132.61761    
-807648.97      2.6988859      31.367533      25.827558      132.16792    
-807648.76      3.3818741      33.916756      25.889679      131.71724    
-807657.12      2.8450941      33.138522      25.898188      131.26706    
-807656.57      2.423494       31.936986      25.806076      130.82003    
-807646.87      2.9629599      31.246684      25.801546      130.37379    
-807619.94      3.5201797      32.328626      25.863645      129.92656    
-807602.78      3.6367079      35.489774      25.903197      129.47898    
-807609.34      3.1211553      35.542536      25.854925      129.0333     
-807626.69      2.9464285      33.378794      25.865294      128.58799    
-807639.17      3.0343206      32.418624      25.880049      128.14294    
-807650.36      3.0997843      33.9231        25.919172      127.69754    
-807662.06      2.6151141      32.345165      25.833621      127.2549     
-807654         3.1796692      32.52257       25.809495      126.81344    
-807638.87      3.3842398      31.793105      25.863308      126.37124    
-807617.51      2.9379015      32.410328      25.903881      125.92863    
-807613.8       2.8031007      36.064428      25.885663      125.48705    
-807608.47      3.0507799      35.468617      25.870832      125.0464     
-807623.31      3.572728       33.323595      25.902386      124.60556    
-807638.14      3.9653291      33.783399      25.867958      124.16608    
-807659.79      3.0063649      33.368707      25.868785      123.72713    
-807655.68      3.1909201      34.856498      25.860543      123.2889     
-807649.78      2.9427245      32.748263      25.883207      122.85067    
-807634.67      3.5913017      32.623914      25.882978      122.41297    
-807628.59      2.880632       33.310575      25.90218       121.97535    
-807608.32      3.2152459      34.614879      25.925743      121.53773    
-807608.19      3.1174257      35.133151      25.88462       121.10152    
-807625.07      3.3237818      32.288019      25.896708      120.66554    
-807648.59      2.6230216      31.982482      25.861986      120.2308     
-807653.2       2.8941054      33.639907      25.862262      119.79652    
-807652.57      2.8863443      33.528286      25.870627      119.36253    
-807647.26      3.5757953      33.377899      25.873375      118.92894    
-807641.82      3.3870325      32.434043      25.888144      118.49549    
-807621.39      3.8642498      33.350019      25.882215      118.06261    
-807603.47      4.520024       36.356921      25.901243      117.62979    
-807610.01      3.2388002      35.964944      25.856284      117.19833    
-807632.7       4.1070407      33.417092      25.822872      116.76797    
-807646.22      2.9603855      32.633946      25.894666      116.33657    
-807647.07      4.0597285      35.019975      25.924658      115.90499    
-807656.12      3.3441861      33.494596      25.870725      115.47491    
-807650.82      3.5729298      32.903291      25.867065      115.0453     
-807636.75      2.7301479      31.825888      25.843128      114.61655    
-807609.55      3.1775104      34.235092      25.876602      114.18754    
-807607.87      3.1895625      36.805463      25.846604      113.7595     
-807614.46      3.7127351      34.879637      25.84736       113.33181    
-807630.38      2.9004957      33.595043      25.853147      112.90439    
-807637.56      4.1400904      35.472022      25.891842      112.47661    
-807656.38      2.8403997      33.862804      25.917572      112.04872    
-807655.51      3.6399506      35.128053      25.838558      111.62266    
-807646.8       3.0296118      32.948212      25.855439      111.19664    
-807623.57      3.6670625      35.305079      25.863411      110.77083    
-807618.61      3.5573702      35.228234      25.867724      110.34528    
-807608.35      3.4399284      36.703473      25.814916      109.92101    
-807613.56      3.3665211      34.921914      25.831673      109.49677    
-807625.78      4.0359991      33.03553       25.909928      109.07148    
-807648.71      2.5559436      32.645443      25.881546      108.64703    
-807656.23      3.552846       33.830881      25.803741      108.22425    
-807650.34      2.8983054      34.370975      25.854888      107.80089    
-807639.89      4.224658       33.864844      25.91419       107.37684    
-807631.74      3.1253336      33.215804      25.861024      106.95401    
-807618.55      3.3680521      34.813851      25.8368        106.53189    
-807603.67      3.3107008      36.750306      25.808392      106.11054    
-807614.47      2.733521       34.325051      25.848657      105.68881    
-807635.07      3.2093777      32.316312      25.872501      105.26698    
-807650.65      3.4129241      32.617988      25.854851      104.84573    
-807649.97      4.0439259      34.015717      25.872412      104.42449    
-807650.63      3.6016476      33.72924       25.892231      104.00322    
-807644.37      3.0903657      32.758061      25.884704      103.58235    
-807632.91      3.0677537      32.555053      25.863995      103.16209    
-807608.4       2.7499764      34.828682      25.871342      102.742      
-807608.08      2.78673        35.637639      25.87598       102.3221     
-807618.85      2.5153029      34.048425      25.832507      101.90314    
-807640.41      2.5733876      32.109155      25.88353       101.48367    
-807645.13      4.61406        33.081257      25.882866      101.06446    
-807654.01      2.4867966      32.819893      25.898906      100.64529    
-807652.64      3.0191135      33.507764      25.866099      100.22686    
-807645.96      2.6919889      31.487277      25.879919      99.808478    
-807623.01      2.9831227      33.053892      25.89706       99.390102    
-807611.87      2.6291286      34.972423      25.882895      98.972184    
-807611.41      2.8914663      35.075476      25.836321      98.555183    
-807623.44      2.878634       33.916764      25.861544      98.138057    
-807632.96      2.8429951      32.940999      25.87759       97.72094     
-807647.94      3.5286723      33.105595      25.904862      97.30368     
-807656.83      2.6427972      32.674729      25.856397      96.887334    
-807652.57      2.8357882      32.290903      25.845061      96.471373    
-807637.01      3.5075509      32.048953      25.893529      96.054971    
-807625.21      3.1934159      31.792799      25.879858      95.638984    
-807617.08      3.0416657      33.956794      25.830975      95.223882    
-807612.36      2.9936543      34.253438      25.831082      94.80899     
-807619.5       3.164051       32.96727       25.862362      94.393892    
-807636.65      3.2963555      31.99914       25.868277      93.978931    
-807654.38      2.788265       32.777786      25.915022      93.563573    
-807650.84      3.9023684      34.401727      25.864576      93.149087    
-807646.77      3.1545633      33.25897       25.882155      92.734583    
-807637.11      3.4345105      32.567617      25.899567      92.320066    
-807628.77      3.0276455      33.684736      25.865193      91.906192    
-807610.77      3.2349988      34.708031      25.876365      91.492379    
-807609.5       3.4418182      34.667821      25.868917      91.078858    
-807624.88      2.9173662      32.373612      25.861834      90.665622    
-807643.06      4.2985264      32.21952       25.834923      90.252908    
-807648.1       3.5488171      32.871268      25.863258      89.840036    
-807650.92      4.083922       33.316358      25.865258      89.42733     
-807647.95      3.4939878      32.70303       25.915594      89.014211    
-807639.45      3.7966116      32.638523      25.859087      88.601955    
-807622.43      4.4528944      33.133097      25.83517       88.190164    
-807607.36      3.9158829      35.835384      25.813107      87.778806    
-807613.48      3.232573       34.331514      25.845914      87.367238    
-807629.59      3.2978491      32.982878      25.81744       86.956171    
-807641.19      4.006164       32.479658      25.843204      86.544978    
-807647.31      3.3604552      33.996031      25.863501      86.133726    
-807653.6       2.6309738      32.870357      25.875359      85.722513    
-807648.58      3.8772138      32.0153        25.859423      85.311649    
-807634.03      2.9155122      32.182832      25.852957      84.901025    
-807615.98      3.441121       33.498525      25.820578      84.490919    
-807610.78      3.2769062      35.282759      25.826912      84.080902    
-807616.41      4.0215711      34.045098      25.816653      83.671153    
-807627.44      2.7314496      32.723607      25.852807      83.261171    
-807641.31      3.6724005      32.157771      25.844058      82.85144     
-807653.07      3.7023858      32.845309      25.905504      82.44122     
-807651.34      2.8657491      33.467027      25.864987      82.031585    
-807645.37      3.13414        32.391586      25.862488      81.622132    
-807629.14      3.1680141      32.499641      25.852247      81.212936    
-807619.58      2.8303439      34.524302      25.852494      80.803888    
-807609.79      3.0024255      35.013814      25.837142      80.395143    
-807615.08      2.6898074      34.461315      25.827299      79.986642    
-807626.12      3.8679849      33.414804      25.850277      79.578054    
-807645.88      2.5781277      32.707807      25.848583      79.169628    
-807650.7       4.1096506      34.117809      25.827867      78.761545    
-807649.14      4.4055372      33.836415      25.832895      78.353551    
-807642.16      2.7378327      33.239467      25.845742      77.945571    
-807633.12      3.0779962      32.316697      25.852         77.537669    
-807617.4       3.3310351      34.259459      25.849946      77.129924    
-807607.21      2.897985       34.860085      25.86981       76.72213     
-807614.46      2.8859715      34.077393      25.888052      76.314305    
-807634.36      2.6315636      31.773381      25.896742      75.906539    
-807645.42      2.9674117      32.612274      25.893211      75.498944    
-807646.83      3.4264389      34.303696      25.888103      75.091533    
-807649.1       3.4556414      33.281124      25.858209      74.684523    
-807644.04      3.1862405      32.425578      25.859909      74.277627    
-807629.82      3.4001123      33.456079      25.86217       73.87084     
-807613.99      3.4174086      33.852772      25.879269      73.464031    
-807609.55      3.7604533      35.682793      25.907866      73.057105    
-807622.06      3.8183783      33.38799       25.861913      72.650703    
-807634.57      2.8869445      31.871986      25.892363      72.244167    
-807642.7       3.2249696      32.464152      25.914998      71.837568    
-807651.81      3.3516756      32.632821      25.840196      71.431721    
-807650.54      3.0559905      32.798911      25.860521      71.025823    
-807641.06      2.6917952      31.99776       25.862511      70.620028    
-807626.75      2.8028122      32.322553      25.895463      70.214083    
-807616.06      2.7250375      34.58334       25.905007      69.808184    
-807614.3       2.8029303      34.171077      25.885272      69.402563    
-807622.35      2.8416992      32.94522       25.862735      68.997239    
-807634.06      3.2570164      31.229832      25.892429      68.591796    
-807649.28      3.1435478      31.536856      25.832271      68.186937    
-807651.47      4.0321112      33.272086      25.82701       67.782227    
-807649.33      3.5985489      32.256784      25.84849       67.377458    
-807636.85      5.2346376      32.477683      25.858102      66.972724    
-807627.93      2.9671945      33.227147      25.856365      66.568112    
-807616.86      4.149553       34.493766      25.86146       66.163568    
-807613.26      3.2151236      34.043701      25.838596      65.7593      
-807621.85      2.7158832      32.705749      25.860544      65.354974    
-807639.14      2.9570281      31.654356      25.819786      64.951048    
-807648.55      3.1331692      32.303625      25.877253      64.546808    
-807650.45      2.6777654      32.068761      25.857784      64.142811    
-807645.75      3.4281639      32.773753      25.858503      63.738911    
-807639.13      2.996487       32.113429      25.833161      63.335288    
-807628.39      2.6014819      32.56558       25.856537      62.9316      
-807612.19      2.8151898      34.379904      25.831101      62.528186    
-807613.15      2.8595021      34.200907      25.818231      62.124954    
-807624.56      2.8223211      33.330822      25.812288      61.721854    
-807640.98      3.0658169      32.375658      25.841152      61.318652    
-807645.5       3.1310446      32.994655      25.829899      60.915617    
-807650.56      3.5285424      33.164485      25.863263      60.512456    
-807645.84      2.8388785      32.853277      25.849386      60.10948     
-807640.88      3.9337045      31.101738      25.846964      59.706611    
-807619.83      2.955218       33.185573      25.866618      59.303708    
-807613.64      3.4496357      34.660597      25.8721        58.900864    
-807614.3       2.7685614      34.322518      25.864805      58.498157    
-807628.44      2.8023615      32.55419       25.839165      58.0957      
-807637.24      3.1600103      32.645295      25.8842        57.693054    
-807648.12      3.1905735      32.897943      25.874228      57.290561    
-807649.44      3.2912988      33.480399      25.83952       56.888365    
-807646.67      3.7618857      33.484596      25.812911      56.486412    
-807632.08      3.1824772      33.235024      25.834601      56.084412    
-807621.43      3.6722822      33.950105      25.844585      55.682437    
-807614.31      2.977528       34.662225      25.818297      55.280698    
-807614.88      2.9133971      35.293893      25.802487      54.879128    
-807625.29      3.0605924      33.93142       25.829162      54.477484    
-807638.34      3.5656969      34.084823      25.862843      54.075732    
-807647.89      3.0118392      33.620266      25.861315      53.674071    
-807648.42      3.2005103      33.970177      25.864254      53.272476    
-807640.44      3.7993949      34.614282      25.87168       52.870922    
-807632.78      3.1632218      32.571959      25.863856      52.469491    
-807623.29      3.4406886      34.41292       25.866006      52.068129    
-807610.59      3.435194       35.275556      25.849521      51.666934    
-807614.64      3.7235948      35.078507      25.843521      51.265848    
-807626.3       3.1449418      33.651529      25.852831      50.864789    
-807642.19      3.4756507      32.914428      25.831413      50.463916    
-807644.93      3.0029401      33.860186      25.849325      50.063026    
-807647.07      3.3620728      33.230325      25.843074      49.662242    
-807640.58      3.5823424      33.027382      25.817202      49.26166     
-807634.02      2.9806418      32.661485      25.820396      48.861132    
-807620         4.9127561      33.869137      25.801985      48.460763    
-807613.43      3.2100368      33.859887      25.845929      48.060252    
-807618.57      4.9504117      34.397788      25.898644      47.659564    
-807631.69      3.69988        32.879474      25.837934      47.259235    
-807639.65      4.6740672      33.020159      25.812255      46.859095    
-807646.52      3.6838513      32.829866      25.864015      46.458785    
-807647.45      4.2697654      32.739978      25.86203       46.058554    
-807642.66      2.9022773      33.056179      25.835366      45.658514    
-807630.07      3.7812981      33.365387      25.821276      45.258603    
-807619.63      2.8959791      33.556979      25.86644       44.85856     
-807616.01      3.1027533      34.727485      25.851136      44.458652    
-807622.62      2.8708931      33.826673      25.81454       44.058968    
-807632.4       2.5687896      32.999695      25.827704      43.659291    
-807638.66      4.1240418      33.491472      25.844314      43.259609    
-807648.56      3.1884827      32.977775      25.811073      42.860129    
-807647.4       3.7765762      33.89087       25.820392      42.460673    
-807640.13      3.6982974      33.237964      25.811399      42.061314    
-807627.74      3.7020979      32.869108      25.868034      41.661791    
-807622.52      2.5760536      33.707457      25.885267      41.262265    
-807616.94      2.8734218      34.686618      25.900157      40.862748    
-807622.85      2.7317501      33.449672      25.888702      40.463343    
-807630.54      2.8886229      32.880802      25.937838      40.063818    
-807645         3.2782828      32.935721      25.912339      39.664457    
-807647.82      3.8000976      33.209909      25.889203      39.265249    
-807646.43      2.8313292      32.371876      25.870408      38.866174    
-807636.13      3.3707472      32.826608      25.838214      38.467277    
-807630.75      2.8401345      32.904705      25.887658      38.068263    
-807620.73      2.7412955      33.754222      25.862133      37.669402    
-807616.3       2.4677587      34.504102      25.873503      37.270561    
-807621.59      3.7704982      34.318358      25.872521      36.871784    
-807636.99      2.6997062      32.86189       25.857597      36.473117    
-807643.87      3.4307629      32.924962      25.873863      36.074455    
-807645.62      3.1047545      34.112914      25.851897      35.675925    
-807643.38      3.304221       33.833939      25.855618      35.277439    
-807637.83      4.4739186      33.700362      25.864744      34.878981    
-807628.12      3.2707898      33.512077      25.894887      34.480485    
-807616.65      3.9047282      35.248173      25.874775      34.082111    
-807616.9       2.7829056      34.630536      25.902781      33.68371     
-807626.07      3.0268288      34.744286      25.879965      33.285436    
-807637.35      3.6514401      33.060608      25.845093      32.887323    
-807641.57      3.6335132      33.983553      25.855211      32.489233    
-807646.73      3.3626352      33.552025      25.862468      32.091177    
-807644.36      3.1070773      32.839904      25.864108      31.69317     
-807635.68      3.2451341      32.923904      25.840979      31.295283    
-807622.72      2.9676486      32.810778      25.841604      30.897445    
-807616.87      3.0506261      34.442858      25.872011      30.499576    
-807617.79      3.7397778      34.517043      25.859343      30.101794    
-807625.87      3.22692        34.143084      25.815317      29.704181    
-807634.79      3.4200023      33.600611      25.820428      29.306603    
-807644.06      3.5295443      33.87608       25.838218      28.909027    
-807646.71      3.0118744      33.827984      25.86266       28.511439    
-807643.73      3.0178984      32.503379      25.852405      28.113927    
-807630.09      3.3475653      33.133993      25.851117      27.716468    
-807625.2       4.1898863      33.435021      25.82638       27.319118    
-807616.81      2.8747039      33.982124      25.838088      26.921787    
-807618.58      3.080938       34.917613      25.820712      26.524545    
-807625.11      4.4974529      34.043608      25.818757      26.127352    
-807639.05      3.9476545      33.561646      25.855986      25.730122    
-807645.74      2.8107093      33.216011      25.876715      25.332894    
-807646.1       3.7764124      33.736891      25.904294      24.935656    
-807639.7       3.7232206      33.838483      25.874447      24.538532    
-807633.28      3.1999414      32.826198      25.855906      24.141496    
-807622.47      3.096993       33.999194      25.885842      23.744445    
-807616.64      3.1377379      34.14604       25.877762      23.347458    
-807620.37      3.675447       33.870388      25.843665      22.950587    
-807630.48      2.9397619      32.163398      25.885636      22.55368     
-807640.64      3.6550656      32.41891       25.91406       22.156767    
-807646.34      3.6569571      32.228439      25.864253      21.759995    
-807647.47      2.9183704      31.811055      25.828999      21.363333    
-807639.44      2.8207799      33.074965      25.853983      20.966668    
-807635.25      2.8315553      32.109872      25.884798      20.569995    
-807621.47      2.7537213      33.380304      25.858423      20.173412    
-807619.07      3.0960295      33.987117      25.867771      19.776858    
-807620.53      3.2513386      34.470409      25.898479      19.380298    
-807635.88      3.045238       31.93028       25.926391      18.98374     
-807639.69      3.147605       32.942613      25.927879      18.587228    
-807646.89      2.6668804      32.245685      25.896385      18.19081     
-807645.54      4.0129286      32.520784      25.841007      17.79452     
-807641.92      2.7840959      31.757595      25.868926      17.398231    
-807630.63      3.1526317      32.386257      25.913065      17.001922    
-807622.44      3.0514261      32.915674      25.872946      16.605713    
-807619.22      3.1111183      33.092931      25.840699      16.20959     
-807624.43      3.4885229      32.967284      25.82482       15.813527    
-807632.7       3.0435319      32.073145      25.896563      15.417411    
-807642.18      2.7287835      32.081847      25.870697      15.021371    
-807646.2       3.313018       32.637981      25.832172      14.625418    
-807646.2       2.3869114      31.956519      25.869739      14.229459    
-807638.59      3.4958186      32.568396      25.898873      13.833508    
-807629.24      2.6182948      32.094931      25.889689      13.437609    
-807622.52      3.2468386      32.403472      25.914632      13.041725    
-807617.9       3.0735785      33.508428      25.897968      12.645901    
-807622.33      2.8797412      33.30983       25.866365      12.250149    
-807632.64      2.9876531      32.446173      25.922528      11.854383    
-807643.83      3.2322194      32.195811      25.924068      11.458658    
-807645.07      3.0171505      33.217888      25.917873      11.06298     
-807642.77      2.8611393      32.481679      25.879077      10.667378    
-807636.48      3.6886461      32.485159      25.913638      10.271785    
-807629.57      3.2295447      32.145623      25.925297      9.8762249    
-807618.61      3.402477       33.415074      25.923162      9.4807073    
-807618.75      3.0754556      33.523829      25.875143      9.0852652    
-807626.03      3.1511841      32.218843      25.879268      8.6898578    
-807636         2.7275978      32.154156      25.837542      8.2945153    
-807641.8       4.0457705      32.187833      25.873675      7.8991848    
-807645.78      3.0426448      32.866187      25.889628      7.5038818    
-807640.34      3.0885356      33.61167       25.885266      7.1086187    
-807634.67      2.7136825      33.325572      25.907256      6.7133811    
-807626.25      3.4746331      32.7307        25.920984      6.3181749    
-807618.77      3.3407756      34.426227      25.921589      5.9230073    
-807618.1       3.0347446      34.414113      25.877828      5.5278972    
-807628.78      2.8675808      33.509179      25.859628      5.1328299    
-807635.4       3.032091       33.243512      25.853595      4.7377991    
-807643.67      3.3484965      33.186664      25.84249       4.3428058    
-807644.38      2.5863104      32.798493      25.828123      3.9478496    
-807640.8       2.9016891      33.281202      25.81844       3.5529279    
-807633.07      2.7589774      33.352427      25.854669      3.1580281    
-807626.57      2.6943897      33.002115      25.878478      2.7631563    
-807619.38      2.9256789      33.647985      25.845209      2.3683247    
-807622.71      3.4758533      33.945187      25.849427      1.9735245    
-807628.54      2.9974857      33.02175       25.864145      1.5787545    
-807637.3       4.3240728      33.148815      25.924349      1.1840119    
-807643.72      3.0827289      32.463509      25.878258      0.78930813   
-807644.23      3.3388432      32.791924      25.858153      0.39463818   
-807641.12      2.9014136      32.459344      25.905798      0            
Loop time of 197.311 on 32 procs for 5000 steps with 1080 atoms

Performance: 4.379 ns/day, 5.481 hours/ns, 25.341 timesteps/s, 27.368 katom-step/s
69.4% CPU use with 32 MPI tasks x 1 OpenMP threads

MPI task timing breakdown:
Section |  min time  |  avg time  |  max time  |%varavg| %total
---------------------------------------------------------------
Pair    | 102.46     | 145.55     | 193.02     | 313.5 | 73.77
Neigh   | 0          | 0          | 0          |   0.0 |  0.00
Comm    | 1.9919     | 49.462     | 92.556     | 537.8 | 25.07
Output  | 0.025916   | 0.02676    | 0.02829    |   0.3 |  0.01
Modify  | 1.9424     | 1.9527     | 1.9589     |   0.3 |  0.99
Other   |            | 0.3148     |            |       |  0.16

Nlocal:          33.75 ave          48 max          21 min
Histogram: 8 8 0 0 0 0 0 8 0 8
Nghost:        1106.25 ave        1119 max        1092 min
Histogram: 8 0 8 0 0 0 0 0 8 8
Neighs:              0 ave           0 max           0 min
Histogram: 32 0 0 0 0 0 0 0 0 0
FullNghs:       5494.5 ave        7896 max        3378 min
Histogram: 8 8 0 0 0 0 0 8 0 8

Total # of neighbors = 175824
Ave neighs/atom = 162.8
Neighbor list builds = 0
Dangerous builds = 0

reset_timestep 0


variable interval equal 1000
thermo 10

variable nintervals equal $(v_PERIOD/v_interval)
variable nintervals equal 100
variable efield equal 1e-2*36.36*cos((step/${PERIOD})*2*3.14)
variable efield equal 1e-2*36.36*cos((step/100000)*2*3.14)
fix born all addbornforce 0.0 0.0 v_efield

variable Px equal f_born[1]+c_polarization[1]
variable Py equal f_born[2]+c_polarization[2]
variable Pz equal (f_born[3]+c_polarization[3])/vol
variable pe equal pe

fix aveP all ave/time 1 $(v_interval/2) ${interval} v_efield v_Pz v_pe f_born file Pz.${MODEL}.${STRUCTURE}.${TEMP}.$L.${ITER}
fix aveP all ave/time 1 500 ${interval} v_efield v_Pz v_pe f_born file Pz.${MODEL}.${STRUCTURE}.${TEMP}.$L.${ITER}
fix aveP all ave/time 1 500 1000 v_efield v_Pz v_pe f_born file Pz.${MODEL}.${STRUCTURE}.${TEMP}.$L.${ITER}
fix aveP all ave/time 1 500 1000 v_efield v_Pz v_pe f_born file Pz.BaTiO3-E0.${STRUCTURE}.${TEMP}.$L.${ITER}
fix aveP all ave/time 1 500 1000 v_efield v_Pz v_pe f_born file Pz.BaTiO3-E0.BaTiO3-sc333.${TEMP}.$L.${ITER}
fix aveP all ave/time 1 500 1000 v_efield v_Pz v_pe f_born file Pz.BaTiO3-E0.BaTiO3-sc333.290.$L.${ITER}
fix aveP all ave/time 1 500 1000 v_efield v_Pz v_pe f_born file Pz.BaTiO3-E0.BaTiO3-sc333.290.2.${ITER}
fix aveP all ave/time 1 500 1000 v_efield v_Pz v_pe f_born file Pz.BaTiO3-E0.BaTiO3-sc333.290.2.3

thermo_style custom step time temp press pe f_born v_efield v_Pz spcpu cpuremain

# dump 4a all custom 1000 dump.hyst.${MODEL}.${STRUCTURE}.${TEMP}.$L.${ITER}.bin id type xu yu zu fx fy fz
# dump_modify 4a sort id

fix nvt all nvt temp ${TEMP} ${TEMP} $(100*dt)
fix nvt all nvt temp 290 ${TEMP} $(100*dt)
fix nvt all nvt temp 290 290 $(100*dt)
fix nvt all nvt temp 290 290 0.2000000000000000111

run $(v_PERIOD)
run 100000
WARNING: non-constant efield is experimental, strongly distrust scalar/vector output (src/fix_addbornforce.cpp:193)
Per MPI rank memory allocation (min/avg/max) = 3.516 | 3.516 | 3.516 Mbytes
   Step          Time           Temp          Press          PotEng         f_born        v_efield         v_Pz          S/CPU         CPULeft    
         0   0              279.70714      127009.23     -807641.12     -295.2053       0.3636         0.055519786    0              0            
        10   0.02           288.86294      134210.74     -807632.54     -305.07593      0.36359993     0.057376185    27.664608      3614.3842    
        20   0.04           283.95531      139559.42     -807625.5      -311.53345      0.36359971     0.058590697    27.686749      3612.5682    
        30   0.06           290.51455      143415.85     -807621.71     -316.12447      0.36359935     0.059454199    27.643345      3613.6119    
        40   0.08           288.96152      140283.95     -807625.01     -312.64333      0.36359885     0.058799575    27.768587      3609.8745    
        50   0.1            289.22507      136841.69     -807629.84     -307.7302       0.36359821     0.057875653    28.51086       3588.748     
        60   0.12           289.36805      127328.34     -807639.19     -298.38407      0.36359742     0.056118023    28.430438      3576.1986    
        70   0.14           280.6751       125732.3      -807643.01     -293.19556      0.36359649     0.055142344    28.316973      3569.1462    
        80   0.16           259.08335      123137.3      -807642.9      -290.27563      0.36359541     0.054593345    28.475535      3561.3124    
        90   0.18           285.60366      129743.15     -807638.51     -298.19213      0.36359419     0.056082422    28.354752      3556.8017    
       100   0.2            294.45797      132742.79     -807632.3      -305.64136      0.36359283     0.057483649    28.353112      3553.1439    
       110   0.22           288.23772      142125.12     -807623.68     -313.12189      0.36359132     0.058890797    28.302504      3550.6592    
       120   0.24           291.14688      141181.99     -807623.14     -313.94851      0.36358968     0.059046532    28.410925      3547.408     
       130   0.26           293.82199      141443.33     -807623.55     -313.60268      0.36358788     0.058981781    28.441462      3544.3117    
       140   0.28           302.65056      132538.76     -807633.41     -304.85967      0.36358595     0.057337718    28.437011      3541.6474    
       150   0.3            287.73219      129440.65     -807637.09     -298.67696      0.36358387     0.0561752      28.435169      3539.3063    
       160   0.32           280.99709      123205.62     -807643.98     -290.68294      0.36358165     0.054672019    28.434012      3537.2226    
       170   0.34           275.93454      126974.74     -807640.04     -293.63953      0.36357928     0.055228458    28.441185      3535.2908    
       180   0.36           293.79792      128235.42     -807637.43     -298.54137      0.36357677     0.056150794    28.433509      3533.5867    
       190   0.38           306.82485      136837.49     -807630.74     -306.70203      0.36357412     0.057686105    28.438745      3531.9919    
       200   0.4            297.571        140595.88     -807623.38     -312.58873      0.36357132     0.058793757    28.438767      3530.5211    
       210   0.42           298.00034      143385.85     -807620.03     -315.74123      0.36356838     0.059387181    28.377225      3529.519     
       220   0.44           297.17104      139382.47     -807624.23     -311.25925      0.3635653      0.058544669    28.489196      3527.9476    
       230   0.46           307.6223       133470.49     -807633.11     -303.63525      0.36356207     0.057111181    28.369747      3527.1236    
       240   0.48           290.97061      128048.98     -807638.21     -295.99         0.3635587      0.055673691    28.423349      3526.0626    
       250   0.5            292.20249      124501.38     -807642.34     -291.9444       0.36355519     0.054913271    28.438287      3524.9846    
       260   0.52           289.40568      127200.78     -807640.09     -293.73427      0.36355153     0.055250493    28.447898      3523.9169    
       270   0.54           300.50722      129111.13     -807636.58     -298.84539      0.36354773     0.056212467    28.451821      3522.8843    
       280   0.56           306.92994      138198.21     -807627.71     -308.48815      0.36354379     0.058026887    28.454015      3521.8904    
       290   0.58           299.47874      140051.59     -807622.72     -312.60744      0.3635397      0.05880239     28.38074       3521.2536    
       300   0.6            296.27249      144752.89     -807618.86     -315.94301      0.36353547     0.059430512    28.466591      3520.282     
       310   0.62           304.85982      137632.83     -807627.57     -308.61618      0.3635311      0.058052995    28.508209      3519.1856    
       320   0.64           300.01815      134872.75     -807631.25     -304.18441      0.36352658     0.057220059    28.434819      3518.4179    
       330   0.66           297.91165      125133.95     -807640.71     -294.59443      0.36352192     0.0554168      28.421629      3517.7246    
       340   0.68           283.8751       126751.25     -807639.88     -293.42879      0.36351712     0.055198258    28.435977      3516.9995    
       350   0.7            290.28131      124282.06     -807641.86     -292.53326      0.36351217     0.055030545    28.443315      3516.2698    
       360   0.72           299.67327      132980.05     -807633.76     -301.9422       0.36350708     0.056801324    28.439134      3515.5754    
       370   0.74           295.84265      136633.66     -807627.01     -308.43844      0.36350185     0.05802423     28.434322      3514.9157    
       380   0.76           306.66212      143269.1      -807622.16     -314.75304      0.36349647     0.059213026    28.435971      3514.2667    
       390   0.78           294.68592      141355.33     -807622.87     -312.58687      0.36349095     0.058806407    28.44127       3513.6164    
       400   0.8            302.02682      139079.72     -807626.68     -309.85594      0.36348529     0.05829355     28.356706      3513.2418    
       410   0.82           291.15245      131916.88     -807633.42     -301.75842      0.36347948     0.056771062    28.434469      3512.6342    
       420   0.84           295.10623      127422.41     -807640.33     -295.37926      0.36347353     0.055571833    28.430314      3512.051     
       430   0.86           279.1724       124876.28     -807641.87     -291.75215      0.36346744     0.05489036     28.355336      3511.6939    
       440   0.88           290.37304      127181.01     -807640.05     -295.21898      0.3634612      0.055543564    28.282802      3511.5415    
       450   0.9            294.58905      132633.16     -807632.95     -303.07674      0.36345482     0.057022951    28.381387      3511.1087    
       460   0.92           293.66488      138191.8      -807626.18     -309.80996      0.3634483      0.058290831    28.369449      3510.7114    
       470   0.94           294.00326      142052.92     -807622.15     -313.97304      0.36344163     0.059075201    28.357397      3510.3478    
       480   0.96           288.87093      141001.17     -807622.35     -313.17841      0.36343482     0.058926792    28.335712      3510.0405    
       490   0.98           298.57944      137203.55     -807628.21     -308.76936      0.36342786     0.058098308    28.50452       3509.3069    
       500   1              292.10409      129908.2      -807635.78     -300.39364      0.36342077     0.05652343     28.364228      3508.934     
       510   1.02           288.83653      127031.15     -807641.6      -9411.9646      0.36341353     0.055344789    28.331244      3508.642     
       520   1.04           283.95867      123820.11     -807643.71     -9326.716       0.36340614     0.05484462     28.229149      3508.5918    
       530   1.06           290.7101       128528.25     -807638.9      -9512.4573      0.36339862     0.055938007    28.244852      3508.4931    
       540   1.08           298.78208      131737.75     -807634.56     -9693.2961      0.36339095     0.057002633    28.234042      3508.4099    
       550   1.1            289.16019      139770.48     -807625.11     -9954.1291      0.36338313     0.058537753    28.279428      3508.2141    
       560   1.12           296.0725       141173.33     -807623.93     -10027.833      0.36337518     0.058972476    28.332527      3507.8951    
       570   1.14           278.4861       142878.76     -807621.2      -10037.225      0.36336707     0.059029028    28.498172      3507.2169    
       580   1.16           297.19062      134860.91     -807631.24     -9803.2824      0.36335883     0.057654516    28.433538      3506.6868    
       590   1.18           289.11184      131114.8      -807636.78     -9588.7512      0.36335044     0.056394129    28.433594      3506.1626    
       600   1.2            281.75314      125180.94     -807642.39     -9379.8525      0.36334191     0.055166832    28.33643       3505.844     
       610   1.22           280.71383      126791.45     -807641.39     -9405.7043      0.36333324     0.055320198    28.41013       3505.375     
       620   1.24           277.48811      128224.96     -807638.36     -9492.4827      0.36332442     0.055831945    28.344874      3505.0397    
       630   1.26           299.7142       135171.52     -807632.76     -9770.4399      0.36331546     0.057468224    28.356741      3504.6806    
       640   1.28           287.37424      138835.63     -807625.63     -9948.8517      0.36330636     0.058519081    28.38598       3504.2652    
       650   1.3            289.02917      142228.42     -807622.44     -10056.299      0.36329711     0.059152591    28.38423       3503.8552    
       660   1.32           288.70977      139083.59     -807625.53     -9958.7509      0.36328772     0.058580313    28.359797      3503.4925    
       670   1.34           287.77492      135567.41     -807630.67     -9790.7555      0.36327819     0.057593626    28.28386       3503.2706    
       680   1.36           286.91048      128839.32     -807637.53     -9567.069       0.36326851     0.0562793      28.343129      3502.9367    
       690   1.38           283.76598      126301.07     -807642.12     -9404.5774      0.36325869     0.055324921    28.350138      3502.5898    
       700   1.4            275.2112       126006.64     -807641.5      -9387.9521      0.36324873     0.055228633    28.294507      3502.3411    
       710   1.42           292.06841      129138.6      -807638.59     -9556.5128      0.36323863     0.056221828    28.260759      3502.1484    
       720   1.44           293.32376      134493.67     -807632.02     -9774.3776      0.36322838     0.057505169    28.282468      3501.9138    
       730   1.46           291.39955      139288.05     -807625.92     -9959.4679      0.36321798     0.058595779    28.297119      3501.6511    
       740   1.48           291.66496      140856.74     -807624.53     -10002.032      0.36320745     0.058847911    28.350627      3501.2965    
       750   1.5            288.28585      138989.27     -807626.63     -9917.3446      0.36319677     0.058351358    28.265786      3501.082     
       760   1.52           301.09681      134669.95     -807632.91     -9771.5424      0.36318595     0.057495205    28.27437       3500.8498    
       770   1.54           291.50912      129061.7      -807638.07     -9559.9405      0.36317498     0.05625185     28.27432       3500.6145    
       780   1.56           273.03726      126507.98     -807639.94     -9411.8225      0.36316387     0.055381999    28.341323      3500.2699    
       790   1.58           286.95417      125844.18     -807642.38     -9390.3779      0.36315262     0.055257525    28.288023      3500.0085    
       800   1.6            279.61357      130315.33     -807634.48     -9606.3441      0.36314122     0.056530148    28.273404      3499.7675    
       810   1.62           298.14788      135113.02     -807631.01     -9793.3063      0.36312968     0.05763219     28.272383      3499.5253    
       820   1.64           291.24215      140033.43     -807625.3      -9937.814       0.363118       0.058484479    28.234494      3499.3377    
       830   1.66           293.72286      140466.91     -807623.74     -9989.4537      0.36310618     0.058790295    28.343252      3498.9838    
       840   1.68           305.95057      138321.31     -807627.41     -9920.0934      0.36309421     0.058384018    28.290113      3498.7081    
       850   1.7            291.90132      134092.83     -807630.94     -9736.1967      0.3630821      0.057303618    28.269329      3498.4609    
       860   1.72           300.44027      128795.92     -807639.29     -9498.5979      0.36306984     0.055907087    28.321253      3498.1365    
       870   1.74           283.88304      126832.14     -807640.39     -9382.5101      0.36305745     0.0552257      28.273561      3497.8793    
       880   1.76           288.36058      127695.79     -807638.69     -9452.8992      0.3630449      0.055641935    28.23367       3497.6761    
       890   1.78           290.1582       130814.57     -807634.59     -9587.0659      0.36303222     0.056433642    28.26708       3497.423     
       900   1.8            299.81077      136183.53     -807629.01     -9804.0448      0.36301939     0.057712914    28.23964       3497.2054    
       910   1.82           305.90299      139871.01     -807625.65     -9934.0167      0.36300642     0.058480101    28.229679      3496.9985    
       920   1.84           301.65984      141469.66     -807622.08     -10026.4        0.36299331     0.05902608     28.256169      3496.7526    
       930   1.86           305.52487      138359.58     -807626.78     -9890.8442      0.36298005     0.058230181    28.231098      3496.5379    
       940   1.88           310.77332      133029.42     -807634.4      -9666.7286      0.36296665     0.056912851    28.31353       3496.2115    
       950   1.9            286.14695      129223.48     -807636.39     -9493.1174      0.36295311     0.0558928      28.32169       3495.874     
       960   1.92           290.27639      126732.67     -807640.68     -9372.8238      0.36293942     0.055186627    28.314068      3495.5458    
       970   1.94           292.76378      127859.48     -807638.9      -9439.952       0.36292559     0.055583991    28.284781      3495.2546    
       980   1.96           293.96543      131110.17     -807634.17     -9599.0887      0.36291162     0.056523191    28.284519      3494.9624    
       990   1.98           312.84095      136555.67     -807629.57     -9832.8567      0.3628975      0.05790196     28.356533      3494.5791    
      1000   2              295.79829      140000.03     -807622.72     -9979.0695      0.36288325     0.058765261    28.278385      3494.293     
      1010   2.02           301.84756      140291.04     -807623.81     -311.67721      0.36286884     0.0587358      28.418945      3493.8341    
      1020   2.04           296.27804      137551.92     -807627.25     -307.55451      0.3628543      0.057961197    28.428481      3493.3658    
      1030   2.06           304.6432       132227.05     -807633.96     -302.23079      0.36283961     0.056960204    28.434335      3492.8929    
      1040   2.08           292.59313      127733.44     -807638.36     -296.28834      0.36282478     0.055842536    28.440638      3492.4149    
      1050   2.1            286.00443      126677.7      -807640.56     -293.29951      0.3628098      0.055281503    28.372424      3492.0189    
      1060   2.12           290.64451      126846        -807639.82     -294.97137      0.36279469     0.055598934    28.410109      3491.5801    
      1070   2.14           306.1256       132302.14     -807634.87     -302.31085      0.36277943     0.056984743    28.364965      3491.1947    
      1080   2.16           292.94433      136616.82     -807627.71     -307.94752      0.36276402     0.058049706    28.393551      3490.7775    
      1090   2.18           284.07379      140525.25     -807623.22     -311.35464      0.36274848     0.05869448     28.313956      3490.4512    
      1100   2.2            289.73188      139455.86     -807625.84     -309.80968      0.36273279     0.05840576     28.371451      3490.0602    
      1110   2.22           289.33175      137502.87     -807627.7      -308.0965       0.36271695     0.058085325    28.425642      3489.6099    
      1120   2.24           292.22319      131089.51     -807635.06     -301.26851      0.36270098     0.056800549    28.441169      3489.1445    
      1130   2.26           295.83878      127471.96     -807641.31     -295.57368      0.36268486     0.055729334    28.436537      3488.6861    
      1140   2.28           282.45763      125862.01     -807642.47     -292.73061      0.3626686      0.055195759    28.427171      3488.2396    
      1150   2.3            286.97835      128554.3      -807639.18     -296.7729       0.36265219     0.055960482    28.43673       3487.7846    
      1160   2.32           282.23829      132090.2      -807632.05     -303.35582      0.36263564     0.057204391    28.361308      3487.411     
      1170   2.34           290.42249      137262.16     -807628.97     -307.62202      0.36261895     0.058011546    28.352283      3487.0473    
      1180   2.36           278.69993      139683.72     -807624.86     -310.19032      0.36260212     0.058498593    28.441972      3486.5907    
      1190   2.38           291.58201      139864.52     -807625.04     -311.81885      0.36258514     0.058808469    28.444028      3486.1337    
      1200   2.4            288.60883      135221.3      -807629.31     -307.16792      0.36256802     0.057934049    28.535317      3485.5858    
      1210   2.42           293.93968      130174.81     -807637.93     -299.2175       0.36255076     0.05643723     28.494697      3485.082     
      1220   2.44           280.53435      126797.71     -807640.99     -294.28588      0.36253335     0.055509711    28.438283      3484.6371    
      1230   2.46           277.24525      126568.3      -807639.46     -295.33365      0.3625158      0.055710044    28.376197      3484.2554    
      1240   2.48           273.18887      128925.09     -807636.87     -297.31577      0.36249811     0.056086677    28.41118       3483.8398    
      1250   2.5            286.37523      132951.66     -807634.47     -301.52669      0.36248028     0.056883839    28.437972      3483.3988    
      1260   2.52           293.36584      137595.93     -807629.21     -307.7192       0.3624623      0.058054951    28.440051      3482.9573    
      1270   2.54           288.41484      140583.34     -807623.86     -312.36163      0.36244418     0.058933749    28.434375      3482.5227    
      1280   2.56           286.2022       139393.18     -807624.95     -310.84292      0.36242592     0.058650167    28.439424      3482.0846    
      1290   2.58           296.38472      134783.82     -807633.22     -303.88717      0.36240751     0.057340662    28.431777      3481.6551    
      1300   2.6            283.95682      130056.85     -807636.83     -298.45212      0.36238896     0.056318       28.432195      3481.2263    
      1310   2.62           281.41544      127142.12     -807639.35     -295.51276      0.36237027     0.05576622     28.358948      3480.8671    
      1320   2.64           275.80247      126554.78     -807640.18     -293.80434      0.36235143     0.055446705    28.343179      3480.5227    
      1330   2.66           283.40121      128352.63     -807639.54     -295.40715      0.36233245     0.055752108    28.342321      3480.1791    
      1340   2.68           290.15151      133904.01     -807632.8      -303.05684      0.36231333     0.05719885     28.340599      3479.8368    
      1350   2.7            292.75576      138493.14     -807626.13     -310.00283      0.36229407     0.058512945    28.426466      3479.4164    
      1360   2.72           294.98886      140546.88     -807624.98     -311.27969      0.36227466     0.058757098    28.488834      3478.9413    
      1370   2.74           281.21506      138189.73     -807626.4      -307.87553      0.36225511     0.058117666    28.358224      3478.5843    
      1380   2.76           302.80658      133535.31     -807633.41     -303.72644      0.36223542     0.05733756     28.343937      3478.2401    
      1390   2.78           290.25821      130113.38     -807635.62     -299.60351      0.36221558     0.056562329    28.43913       3477.812     
      1400   2.8            284.30641      125939.89     -807641.01     -293.31445      0.3621956      0.055378068    28.440774      3477.3836    
      1410   2.82           287.28727      126121.82     -807642.09     -292.43952      0.36217548     0.055215948    28.44252       3476.9547    
      1420   2.84           286.43327      129282.65     -807636.89     -297.50374      0.36215522     0.056175274    28.439554      3476.5295    
      1430   2.86           302.54431      135770.62     -807630.35     -306.23035      0.36213481     0.057826309    28.429485      3476.1139    
      1440   2.88           282.44434      138654.27     -807624.59     -309.12573      0.36211426     0.058376365    28.436916      3475.6929    
      1450   2.9            291.92865      140891.39     -807624.87     -309.98276      0.36209357     0.058541555    28.434233      3475.2751    
      1460   2.92           293.89498      137455.49     -807627.48     -307.60678      0.36207273     0.058096183    28.359987      3474.9203    
      1470   2.94           291.8772       135136.21     -807629.62     -305.07013      0.36205176     0.057620437    28.429068      3474.5082    
      1480   2.96           288.69582      127985.87     -807637.7      -296.483        0.36203064     0.0560018      28.442209      3474.086     
      1490   2.98           286.83465      125811.71     -807641.94     -291.79363      0.36200937     0.055119277    28.438848      3473.6675    
      1500   3              293.32582      126248.23     -807641.6      -293.05615      0.36198796     0.055361039    28.431224      3473.2562    
      1510   3.02           297.47764      131569.46     -807634.16     -9632.9534      0.36196642     0.056870719    28.354388      3472.9077    
      1520   3.04           298.94945      134977.06     -807630.91     -9741.6622      0.36194472     0.057515958    28.352866      3472.5605    
      1530   3.06           293.9614       139668.08     -807626.26     -9863.3662      0.36192289     0.058238026    28.296045      3472.2587    
      1540   3.08           297.5464       140538.34     -807624.71     -9930.696       0.36190091     0.058639134    28.300413      3471.9528    
      1550   3.1            296.46946      137803.97     -807625.43     -9900.8231      0.36187879     0.058466313    28.326273      3471.6258    
      1560   3.12           295.73208      132562.17     -807632.81     -9656.6419      0.36185653     0.057027884    28.243483      3471.3638    
      1570   3.14           281.99468      128676.44     -807638.69     -9404.5699      0.36183412     0.055542696    28.207111      3471.1292    
      1580   3.16           282.5769       127633.05     -807638.63     -9405.7982      0.36181157     0.055553412    28.201811      3470.8973    
      1590   3.18           300.65396      126669.43     -807639.78     -9450.0209      0.36178888     0.055818105    28.272098      3470.6092    
      1600   3.2            299.31758      132269.18     -807634.98     -9589.3717      0.36176605     0.056644779    28.2861        3470.3096    
      1610   3.22           297.49734      134660.57     -807631.33     -9698.2567      0.36174307     0.057291605    28.222262      3470.0581    
      1620   3.24           298.90546      141502.37     -807624.46     -9917.6731      0.36171995     0.058591533    28.231727      3469.7982    
      1630   3.26           301.56812      139138.63     -807625.08     -9910.9795      0.36169669     0.058555754    28.332349      3469.4612    
      1640   3.28           299.75819      139071.24     -807627.36     -9820.1397      0.36167329     0.058022812    28.32643       3469.1284    
      1650   3.3            295.30083      130602.23     -807635.85     -9528.1416      0.36164974     0.056301192    28.290493      3468.8222    
      1660   3.32           293.2022       130399.75     -807636.38     -9494.7448      0.36162605     0.056107527    28.247517      3468.5471    
      1670   3.34           280.29818      125616.5      -807638.51     -9372.6302      0.36160222     0.055389563    28.292131      3468.2383    
      1680   3.36           295.09227      129989.18     -807637.95     -9450.5893      0.36157824     0.055853982    28.349582      3467.887     
      1690   3.38           293.83785      130191.23     -807635.32     -9532.1514      0.36155413     0.05633978     28.342994      3467.5405    
      1700   3.4            298.17694      137987.32     -807626.66     -9825.6587      0.36152987     0.058078452    28.291337      3467.2312    
      1710   3.42           299.27303      138854.62     -807624.49     -9904.2648      0.36150546     0.058547036    28.299713      3466.9153    
      1720   3.44           297.83373      140421.46     -807623.67     -9921.6764      0.36148092     0.058653944    28.234951      3466.6453    
      1730   3.46           306.95686      134911.86     -807631.03     -9728.427       0.36145623     0.05751544     28.181134      3466.4128    
      1740   3.48           300.78349      132917.94     -807634.16     -9603.5822      0.3614314      0.056781246    28.223969      3466.1484    
      1750   3.5            283.3988       128370.18     -807636.17     -9465.0885      0.36140643     0.055966268    28.254736      3465.8614    
      1760   3.52           293.51026      126598.56     -807640.58     -9370.1074      0.36138131     0.055408503    28.296565      3465.5444    
      1770   3.54           287.5767       127993.2      -807638.2      -9422.409       0.36135605     0.055721674    28.292556      3465.2297    
      1780   3.56           296.14754      131845.72     -807633.78     -9607.4963      0.36133065     0.056820226    28.31684       3464.8979    
      1790   3.58           292.19206      137659.89     -807626.51     -9827.3065      0.36130511     0.058124327    28.269977      3464.598     
      1800   3.6            306.94705      138555.7      -807627.62     -9863.9648      0.36127942     0.058345293    28.211952      3464.3371    
      1810   3.62           288.03235      139035.7      -807625.12     -9863.0864      0.3612536      0.058344268    28.229918      3464.063     
      1820   3.64           298.844        135059.8      -807630.61     -9740.6525      0.36122763     0.057624163    28.308279      3463.7351    
      1830   3.66           287.76527      131326.64     -807633.87     -9593.8944      0.36120151     0.056760069    28.366859      3463.3679    
      1840   3.68           280.89904      127290.36     -807638.82     -9408.8102      0.36117526     0.055669107    28.365533      3463.0016    
      1850   3.7            279.5231       126992.65     -807639.85     -9372.5201      0.36114886     0.055458443    28.354321      3462.6429    
      1860   3.72           290.21687      128002.91     -807638.3      -9476.516       0.36112232     0.056077921    28.346692      3462.2892    
      1870   3.74           287.98393      134124.52     -807631.32     -9694.8192      0.36109564     0.057373985    28.319225      3461.9536    
      1880   3.76           291.91992      136640.02     -807629.37     -9779.5861      0.36106881     0.057879935    28.315356      3461.6202    
      1890   3.78           296.40285      138694.69     -807627.08     -9876.1528      0.36104184     0.058455826    28.253052      3461.3271    
      1900   3.8            288.10428      137051.98     -807627.48     -9831.427       0.36101474     0.058195468    28.285999      3461.012     
      1910   3.82           286.53267      134849.77     -807630.17     -9740.3817      0.36098748     0.057660894    28.273443      3460.7047    
      1920   3.84           283.74914      129201.34     -807637.62     -9492.4313      0.36096009     0.056197348    28.267806      3460.4004    
      1930   3.86           274.00619      128098.96     -807639.84     -9379.0456      0.36093255     0.055530315    28.253202      3460.1049    
      1940   3.88           272.50749      126927.06     -807638.91     -9406.6134      0.36090487     0.055697806    28.314353      3459.7702    
      1950   3.9            290.27511      130152.25     -807637.56     -9529.5443      0.36087705     0.056430046    28.283239      3459.4548    
      1960   3.92           289.00465      132218.6      -807634.21     -9632.7873      0.36084909     0.057045829    28.203688      3459.1889    
      1970   3.94           292.15224      137812.66     -807629.24     -9804.8532      0.36082098     0.058069335    28.341788      3458.8361    
      1980   3.96           276.3668       138511.68     -807624.89     -9877.3565      0.36079273     0.058503317    28.271506      3458.5268    
      1990   3.98           287.89805      138215.68     -807627.16     -9854.2501      0.36076434     0.058371052    28.354236      3458.1662    
      2000   4              291.70624      131740.29     -807634.77     -9625.922       0.36073581     0.057023074    28.345856      3457.8107    
      2010   4.02           282.72818      129569.09     -807637.41     -296.84453      0.36070713     0.056275821    28.452241      3457.3911    
      2020   4.04           279.17245      125864.17     -807640.41     -293.34847      0.36067831     0.055617481    28.437774      3456.9807    
      2030   4.06           280.42132      128014.12     -807639.01     -294.72719      0.36064935     0.055883367    28.375736      3456.608     
      2040   4.08           285.02898      128741.62     -807638.25     -296.11592      0.36062025     0.056151216    28.370113      3456.2389    
      2050   4.1            286.27293      135205.03     -807631.94     -302.38888      0.36059101     0.057345381    28.331957      3455.8926    
      2060   4.12           289.94271      137244.43     -807627.4      -307.39545      0.36056162     0.058299584    28.30382       3455.5629    
      2070   4.14           287.0026       139606.66     -807624.8      -309.37712      0.36053209     0.058680226    28.357381      3455.2015    
      2080   4.16           288.5627       137228.45     -807628.73     -305.46463      0.36050242     0.057942905    28.328992      3454.8567    
      2090   4.18           292.05809      133219.99     -807633.87     -300.55203      0.36047261     0.057015759    28.329619      3454.5115    
      2100   4.2            285.27894      129018.06     -807636.37     -296.83862      0.36044265     0.056315993    28.37591       3454.1394    
      2110   4.22           289.57915      126125.05     -807640.84     -292.69366      0.36041256     0.055534251    28.342742      3453.7866    
      2120   4.24           287.23323      127869.61     -807640.12     -292.74632      0.36038232     0.055548902    28.316291      3453.4491    
      2130   4.26           290.32754      130050.31     -807637.09     -295.94273      0.36035193     0.05616016     28.354669      3453.0894    
      2140   4.28           296.01544      135170.85     -807629.9      -303.5818       0.36032141     0.057614684    28.479366      3452.6592    
      2150   4.3            297.03499      136730.14     -807627.56     -305.81374      0.36029075     0.058043209    28.367488      3452.2927    
      2160   4.32           301.71079      139228.77     -807626.42     -307.2476       0.36025994     0.058320341    28.417529      3451.8982    
      2170   4.34           297.66083      135141.61     -807629        -303.92115      0.36022899     0.057693886    28.324542      3451.5563    
      2180   4.36           291.65809      134507.14     -807630.77     -301.01231      0.36019789     0.057146627    28.39287       3451.176     
      2190   4.38           294.48297      128515.23     -807637.53     -294.54712      0.36016666     0.055924072    28.362852      3450.8128    
      2200   4.4            300.25862      127918.15     -807640.23     -292.40983      0.36013528     0.055523113    28.425501      3450.415     
      2210   4.42           288.89691      127304.75     -807638.11     -292.93614      0.36010377     0.055627919    28.350565      3450.0588    
      2220   4.44           299.31454      131750.59     -807634.21     -298.11678      0.36007211     0.056616688    28.410159      3449.6701    
      2230   4.46           297.61074      134800        -807629.64     -302.4462       0.3600403      0.057443982    28.471856      3449.2482    
      2240   4.48           300.60296      137505        -807627.2      -305.29249      0.36000836     0.057989726    28.437351      3448.8456    
      2250   4.5            291.19713      138811.12     -807623.9      -307.19654      0.35997627     0.058356597    28.448821      3448.4372    
      2260   4.52           299.21138      135965.04     -807628.15     -304.09979      0.35994404     0.057773495    28.438695      3448.0348    
      2270   4.54           305.56095      133049.34     -807633.34     -299.768        0.35991167     0.056955656    28.519749      3447.5898    
      2280   4.56           294.85741      128610.75     -807637.98     -293.67307      0.35987916     0.055802666    28.509965      3447.1508    
      2290   4.58           293.18517      128229.12     -807638.6      -292.78398      0.35984651     0.055638772    28.432376      3446.7534    
      2300   4.6            291.1773       127073.21     -807637.86     -293.40067      0.35981371     0.055761045    28.382035      3446.3829    
      2310   4.62           290.90675      132597.98     -807632.76     -298.50074      0.35978077     0.056735513    28.493268      3445.9544    
      2320   4.64           296.27206      133797.94     -807630.78     -301.37869      0.35974769     0.057287786    28.429327      3445.5598    
      2330   4.66           292.62977      139568.58     -807625.26     -306.3604       0.35971447     0.058240117    28.437701      3445.1612    
      2340   4.68           294.15299      137219.15     -807626.55     -305.48488      0.35968111     0.058079065    28.374577      3444.7957    
      2350   4.7            294.9187       137029.08     -807628.06     -304.06752      0.3596476      0.057814979    28.499699      3444.366     
      2360   4.72           308.10336      131176.17     -807636.83     -297.24892      0.35961396     0.056523789    28.455724      3443.9594    
      2370   4.74           288.12094      130308.45     -807636.53     -294.78565      0.35958017     0.05606065     28.517296      3443.5219    
      2380   4.76           293.66626      126100        -807640.57     -291.67972      0.35954624     0.055475217    28.496234      3443.0959    
      2390   4.78           286.25254      129142.5      -807638.06     -293.19152      0.35951216     0.055768034    28.445876      3442.6958    
      2400   4.8            296.20881      130371.61     -807635.94     -296.8091       0.35947795     0.056461507    28.452507      3442.2929    
      2410   4.82           294.45231      134931.5      -807630.39     -302.19909      0.35944359     0.057492332    28.535152      3441.8491    
      2420   4.84           291.59199      137952.6      -807626.86     -305.39071      0.35940909     0.058105104    28.488336      3441.4293    
      2430   4.86           296.33803      137654.47     -807627.52     -305.48946      0.35937446     0.058129493    28.436566      3441.0358    
      2440   4.88           294.79683      135885.09     -807630.13     -302.77598      0.35933967     0.057618741    28.38118       3440.67      
      2450   4.9            294.09072      131173.26     -807634.29     -298.5283       0.35930475     0.056815922    28.480159      3440.2556    
      2460   4.92           277.83715      128548.75     -807636.42     -294.19953      0.35926969     0.055997537    28.459548      3439.8518    
      2470   4.94           284.98459      126644.11     -807640.19     -291.49232      0.35923448     0.055487687    28.497419      3439.43      
      2480   4.96           283.77387      128817.08     -807637.36     -294.102        0.35919913     0.055989967    28.435385      3439.0388    
      2490   4.98           298.76422      130357.78     -807635.97     -297.67681      0.35916364     0.056676125    28.349599      3438.6897    
      2500   5              289.29647      135939.43     -807628.99     -303.38205      0.35912801     0.057768105    28.35217       3438.3392    
[...]
     98740   197.48         294.69313      132071.43     -807634.21     -9652.7993      0.36236891     0.056924586    28.206104      44.195574    
     98750   197.5          284.62939      131945.65     -807633.69     -9631.0694      0.36238762     0.056793509    28.203126      43.844864    
     98760   197.52         294.63256      132584.72     -807633.65     -9682.4722      0.36240618     0.057093702    28.14288       43.494162    
     98770   197.54         277.73498      133919.58     -807630.65     -9710.6109      0.36242459     0.057256716    28.144346      43.14346     
     98780   197.56         289.42126      133427.16     -807632.39     -9713.1044      0.36244287     0.057268531    28.153261      42.792755    
     98790   197.58         280.88142      133021.7      -807631.92     -9696.8317      0.362461       0.057169726    28.151722      42.442049    
     98800   197.6          286.96025      134029.51     -807632.5      -9711.2217      0.36247899     0.057251725    28.187324      42.091337    
     98810   197.62         282.34628      132906.96     -807632.2      -9707.8716      0.36249683     0.057229157    28.204466      41.740622    
     98820   197.64         285.00669      133089.72     -807633.31     -9688.5374      0.36251453     0.05711239     28.16372       41.389911    
     98830   197.66         289.93516      131643.39     -807635.56     -9645.9371      0.36253209     0.056858514    28.132162      41.039205    
     98840   197.68         282.09187      133309.94     -807633.01     -9697.5184      0.36254951     0.057159817    28.145152      40.688496    
     98850   197.7          282.07528      132511.57     -807633.52     -9687.3711      0.36256678     0.057097286    28.114425      40.33779     
     98860   197.72         283.2793       133278.03     -807633.66     -9691.8883      0.36258391     0.057121211    28.147033      39.987079    
     98870   197.74         281.55504      132689.84     -807633.62     -9690.7359      0.3626009      0.057111744    28.122184      39.63637     
     98880   197.76         278.39866      133841.3      -807631.59     -9743.7586      0.36261774     0.057421562    28.088856      39.285665    
     98890   197.78         284.58641      133146.29     -807633.42     -9716.7866      0.36263445     0.057259974    28.127017      38.934954    
     98900   197.8          279.75333      133523.26     -807633.21     -9701.8801      0.362651       0.057169522    28.122228      38.584242    
     98910   197.82         282.00364      132002.06     -807634.45     -9675.5255      0.36266742     0.057011643    28.043117      38.233541    
     98920   197.84         279.12259      132739.04     -807633.26     -9699.8904      0.36268369     0.057152646    28.028707      37.88284     
     98930   197.86         277.26623      132136.22     -807633.84     -9672.8016      0.36269982     0.056990502    28.066304      37.532133    
     98940   197.88         284.29851      132001.26     -807635.16     -9661.4809      0.36271581     0.056921293    28.120571      37.181417    
     98950   197.9          281.91755      132461.63     -807633.55     -9698.9853      0.36273165     0.057139757    28.15657       36.830696    
     98960   197.92         288.05296      133115.56     -807633.77     -9716.297       0.36274735     0.057239268    28.157058      36.479973    
     98970   197.94         288.77845      133216.83     -807633.75     -9715.9939      0.36276291     0.057235028    28.202558      36.129244    
     98980   197.96         287.04814      132997.65     -807633.63     -9706.0862      0.36277832     0.057174234    28.151859      35.77852     
     98990   197.98         280.44934      133148.64     -807632.76     -9698.5259      0.36279359     0.057127295    28.18967       35.427791    
     99000   198            276.12162      132740.82     -807631.84     -9701.13        0.36280872     0.057140251    28.239174      35.077055    
     99010   198.02         286.95507      132584.98     -807633.63     -302.59642      0.3628237      0.057031612    28.295667      34.72631     
     99020   198.04         281.8741       132242.27     -807633.93     -301.27217      0.36283855     0.056779703    28.257744      34.37557     
     99030   198.06         293.12391      133210.7      -807633.24     -303.12185      0.36285324     0.057125992    28.290311      34.024826    
     99040   198.08         283.73416      133821.66     -807630.78     -303.96769      0.3628678      0.057283099    28.268299      33.674083    
     99050   198.1          298.437        133491.91     -807632.85     -303.58698      0.36288221     0.057209081    28.220317      33.323346    
     99060   198.12         288.52847      133754.11     -807631.33     -303.5211       0.36289648     0.057194419    28.203652      32.97261     
     99070   198.14         286.24576      134847.12     -807630.35     -303.99301      0.36291061     0.057281113    28.269036      32.621865    
     99080   198.16         292.60238      132796.18     -807631.45     -303.57665      0.36292459     0.057200455    28.279555      32.271119    
     99090   198.18         290.97523      132920.56     -807631.82     -302.83399      0.36293843     0.057058347    28.214289      31.92038     
     99100   198.2          301.11912      131852.09     -807634.06     -301.93833      0.36295213     0.056887444    28.161388      31.569645    
     99110   198.22         296.20857      133512.59     -807631.8      -303.4389       0.36296568     0.057168028    28.127935      31.218914    
     99120   198.24         300.57495      132415.84     -807633.18     -302.68589      0.36297909     0.057024054    28.175248      30.868177    
     99130   198.26         288.54631      134036.72     -807630.57     -303.54941      0.36299236     0.057184644    28.164834      30.517439    
     99140   198.28         292.46967      132535.08     -807632.43     -302.29908      0.36300548     0.056947042    28.218432      30.166696    
     99150   198.3          290.33227      134554.46     -807630.71     -303.69792      0.36301846     0.057208509    28.240511      29.815949    
     99160   198.32         300.35987      132361.8      -807632.57     -303.2828       0.3630313      0.057128291    28.190542      29.465206    
     99170   198.34         298.87578      133915.4      -807632.23     -303.45309      0.36304399     0.057158368    28.163305      29.114466    
     99180   198.36         288.10274      133046.52     -807631.81     -302.45098      0.36305655     0.056967641    28.167399      28.763724    
     99190   198.38         299.25041      133938.74     -807631.97     -303.894        0.36306895     0.057237483    28.161433      28.412982    
     99200   198.4          287.37814      132443.73     -807631.97     -302.37138      0.36308122     0.056948779    28.175619      28.062238    
     99210   198.42         291.62212      133870.59     -807631.63     -303.35948      0.36309334     0.057132971    28.130797      27.711498    
     99220   198.44         285.59409      132679.21     -807631.47     -302.80613      0.36310532     0.057026874    28.152147      27.360754    
     99230   198.46         289.4604       134380.5      -807630.66     -304.20114      0.36311715     0.057287726    28.246896      27.01        
     99240   198.48         292.43999      133922.58     -807631.91     -303.53359      0.36312885     0.057160173    28.254476      26.659245    
     99250   198.5          295.7724       133913.26     -807631.53     -304.45936      0.3631404      0.057332685    28.291574      26.308486    
     99260   198.52         297.78777      132827.52     -807632.91     -303.51633      0.3631518      0.057153308    28.263506      25.957729    
     99270   198.54         282.5067       134368.28     -807630.3      -304.15339      0.36316306     0.057271494    28.210804      25.606976    
     99280   198.56         288.12841      132503.18     -807632.66     -302.77178      0.36317418     0.057009593    28.210404      25.256222    
     99290   198.58         290.0085       132547.25     -807633.35     -302.44274      0.36318516     0.056945917    28.207814      24.905468    
     99300   198.6          289.02432      132611.69     -807632.68     -303.1409       0.36319599     0.057075668    28.200791      24.554714    
     99310   198.62         296.04121      133170.42     -807634.14     -302.8313       0.36320668     0.057015698    28.208486      24.203958    
     99320   198.64         289.89036      133381.37     -807632.27     -303.98499      0.36321723     0.057231248    28.207436      23.853201    
     99330   198.66         289.52918      133014.98     -807632.69     -303.72249      0.36322763     0.05718019     28.226643      23.502443    
     99340   198.68         291.15795      133562.92     -807632.28     -304.5281       0.36323789     0.057330238    28.219927      23.151684    
     99350   198.7          283.98916      133499.57     -807631.64     -304.33723      0.36324801     0.057292709    28.207838      22.800925    
     99360   198.72         282.94375      134574.67     -807631.75     -304.21666      0.36325798     0.057268439    28.187447      22.450167    
     99370   198.74         285.19147      132040.48     -807633.88     -302.59479      0.36326781     0.056961583    28.16359       22.09941     
     99380   198.76         295.42761      132964.26     -807635.05     -302.95238      0.3632775      0.057027376    28.209067      21.748649    
     99390   198.78         271.61903      131374.02     -807632.29     -302.5985       0.36328704     0.056959265    28.213046      21.397887    
     99400   198.8          287.49165      133887.18     -807633.61     -303.57834      0.36329644     0.057142226    28.244697      21.047122    
     99410   198.82         277.68282      132414.1      -807633.23     -302.73986      0.3633057      0.056982949    28.287927      20.696353    
     99420   198.84         285.29086      135416.01     -807631.09     -305.92359      0.36331481     0.057580758    28.304473      20.345582    
     99430   198.86         284.39703      132401.61     -807633.01     -304.06254      0.36332378     0.05722906     28.311464      19.99481     
     99440   198.88         280.98707      135707.36     -807630.64     -305.88359      0.36333261     0.05757041     28.289587      19.644039    
     99450   198.9          290.14937      131614.48     -807635.24     -302.77979      0.36334129     0.056984881    28.246508      19.29327     
     99460   198.92         289.29387      134343.84     -807632.74     -305.03174      0.36334983     0.057407362    28.221399      18.942503    
     99470   198.94         272.39235      130810.46     -807634.11     -301.48047      0.36335823     0.056737696    28.207438      18.591736    
     99480   198.96         275.15072      133498.78     -807631.93     -303.96103      0.36336648     0.05720323     28.215815      18.240967    
     99490   198.98         282.81859      131175.64     -807634.82     -302.24119      0.3633746      0.056878299    28.183014      17.8902      
     99500   199            286.148        134566.85     -807632.45     -304.94374      0.36338256     0.05738563     28.190932      17.539431    
     99510   199.02         276.16318      132675.64     -807631.82     -9735.2968      0.36339039     0.057249711    28.152105      17.188665    
     99520   199.04         281.18         134878.51     -807630.69     -9787.3529      0.36339807     0.057554617    28.118513      16.837899    
     99530   199.06         290.15327      132810.3      -807633.55     -9732.7447      0.3634056      0.057232306    28.129589      16.487132    
     99540   199.08         292.83639      133200.26     -807633.06     -9752.049       0.363413       0.057344657    28.141492      16.136363    
     99550   199.1          290.96244      132169.08     -807633.91     -9709.4839      0.36342025     0.057093223    28.150267      15.785592    
     99560   199.12         285.96733      132538.16     -807633.3      -9696.2387      0.36342736     0.057014224    28.156218      15.434821    
     99570   199.14         283.1275       132653.44     -807633.77     -9657.3882      0.36343432     0.056784694    28.184445      15.084047    
     99580   199.16         295.34477      132103.98     -807634.19     -9689.8799      0.36344114     0.056974674    28.163074      14.733273    
     99590   199.18         287.32737      134662.38     -807630.9      -9746.0816      0.36344782     0.057304076    28.156362      14.382499    
     99600   199.2          284.11549      133788.23     -807630.86     -9724.173       0.36345435     0.057174232    28.138633      14.031724    
     99610   199.22         290.27051      135067.51     -807630.25     -9758.5412      0.36346074     0.057375295    28.083112      13.680952    
     99620   199.24         302.46551      132470.71     -807633.16     -9714.5853      0.36346699     0.057115874    28.108113      13.330177    
     99630   199.26         296.9238       135171.51     -807629.83     -9785.3242      0.3634731      0.05753081     28.155692      12.979399    
     99640   199.28         292.92321      132329.76     -807632.66     -9676.0055      0.36347906     0.05688716     28.195518      12.628619    
     99650   199.3          291.506        134421.29     -807631.35     -9702.9018      0.36348487     0.057044376    28.186171      12.277838    
     99660   199.32         300.3254       130650.11     -807634.82     -9631.7082      0.36349055     0.056624937    28.160526      11.927057    
     99670   199.34         298.96004      134800.64     -807630.56     -9757.0202      0.36349608     0.057360775    28.172351      11.576275    
     99680   199.36         285.77933      132661.74     -807630.53     -9699.6554      0.36350147     0.057022687    28.152182      11.225493    
     99690   199.38         302.47971      136411.11     -807631.24     -9747.1887      0.36350671     0.057301301    28.152548      10.87471     
     99700   199.4          296.92893      133268.86     -807631.35     -9722.2648      0.36351181     0.057153978    28.087706      10.523929    
     99710   199.42         301.00676      136856.15     -807628.95     -9815.9246      0.36351677     0.057703786    28.073977      10.173147    
     99720   199.44         292.8194       132824.98     -807631.14     -9714.415       0.36352158     0.057106296    28.145874      9.8223614    
     99730   199.46         292.60228      134832.86     -807630.98     -9715.9002      0.36352625     0.057114293    28.129053      9.4715755    
     99740   199.48         294.17093      131206.58     -807633.81     -9638.6017      0.36353078     0.056659193    28.148281      9.1207881    
     99750   199.5          294.75955      133652.86     -807631.19     -9725.8518      0.36353516     0.057171392    28.10797       8.770001     
     99760   199.52         299.5015       131744.53     -807633.65     -9675.7455      0.3635394      0.056876189    28.050283      8.4192147    
     99770   199.54         287.73688      134518.52     -807630.83     -9716.1835      0.3635435      0.057113249    28.108831      8.0684255    
     99780   199.56         293.6446       133571.62     -807631.67     -9721.4775      0.36354745     0.057143746    28.070966      7.7176364    
     99790   199.58         288.27461      135414.17     -807629.31     -9778.5981      0.36355126     0.057478904    28.092611      7.3668456    
     99800   199.6          294.67399      134147.52     -807630.4      -9779.555       0.36355493     0.057483949    28.138904      7.0160526    
     99810   199.62         293.01214      133379.75     -807632.56     -9708.3561      0.36355845     0.057064891    28.122456      6.6652591    
     99820   199.64         285.27386      133305.11     -807631.88     -9701.3315      0.36356183     0.057023071    28.123616      6.3144646    
     99830   199.66         297.25477      132569.02     -807633.77     -9702.9444      0.36356507     0.057032043    28.162155      5.9636683    
     99840   199.68         290.48291      133673.86     -807632.03     -9733.8311      0.36356816     0.057213102    28.174479      5.6128709    
     99850   199.7          293.59455      131465.58     -807634.25     -9682.3154      0.36357111     0.056909844    28.185289      5.2620724    
     99860   199.72         292.33164      134235.35     -807632.61     -9733.1338      0.36357392     0.057208098    28.163396      4.9112736    
     99870   199.74         288.08088      132379.83     -807631.71     -9753.4902      0.36357658     0.057327327    28.157752      4.560474     
     99880   199.76         284.72979      135481.9      -807629.31     -9818.4729      0.3635791      0.05770887     28.153262      4.2096736    
     99890   199.78         292.1837       131172.62     -807634.2      -9702.5016      0.36358148     0.057026867    28.152033      3.8588723    
     99900   199.8          284.60147      134719.79     -807631.74     -9748.7821      0.36358371     0.05729853     28.198789      3.5080695    
     99910   199.82         279.6783       131293.78     -807632.85     -9701.8422      0.3635858      0.057022313    28.21869       3.1572658    
     99920   199.84         286.5524       134601.19     -807631.69     -9766.3471      0.36358775     0.057401132    28.228765      2.8064612    
     99930   199.86         286.11816      130511.24     -807635.75     -9641.0759      0.36358955     0.056664576    28.183807      2.4556564    
     99940   199.88         287.06466      134938.81     -807632.89     -9734.4919      0.36359121     0.05721336     28.098361      2.1048514    
     99950   199.9          288.54704      132167.02     -807633.33     -9731.873       0.36359273     0.057197729    28.101615      1.7540453    
     99960   199.92         293.07932      134818.53     -807631.69     -9802.84        0.3635941      0.05761461     28.165058      1.403238     
     99970   199.94         286.80596      132707.76     -807633.9      -9708.1037      0.36359533     0.05705762     28.183314      1.0524297    
     99980   199.96         272.52925      135508.88     -807630.14     -9760.8875      0.36359641     0.057367676    28.167695      0.70162063   
     99990   199.98         291.91548      131827.96     -807634.47     -9712.5557      0.36359736     0.057083467    28.173432      0.35081073   
    100000   200            278.60928      133504.58     -807631.57     -9743.0608      0.36359816     0.057262629    28.148186      0            
Loop time of 3508.11 on 32 procs for 100000 steps with 1080 atoms

Performance: 4.926 ns/day, 4.872 hours/ns, 28.505 timesteps/s, 30.786 katom-step/s
66.8% CPU use with 32 MPI tasks x 1 OpenMP threads

MPI task timing breakdown:
Section |  min time  |  avg time  |  max time  |%varavg| %total
---------------------------------------------------------------
Pair    | 2597       | 2810.9     | 3060.4     | 220.8 | 80.12
Neigh   | 0.0016705  | 0.0017808  | 0.0020028  |   0.2 |  0.00
Comm    | 374.55     | 624.14     | 837.97     | 468.5 | 17.79
Output  | 2.331      | 2.3424     | 2.3541     |   0.3 |  0.07
Modify  | 63.728     | 64.415     | 65.055     |   3.3 |  1.84
Other   |            | 6.345      |            |       |  0.18

Nlocal:          33.75 ave          43 max          27 min
Histogram: 1 7 4 3 2 7 6 0 1 1
Nghost:        1051.47 ave        1074 max        1029 min
Histogram: 1 2 6 2 4 5 5 4 1 2
Neighs:              0 ave           0 max           0 min
Histogram: 32 0 0 0 0 0 0 0 0 0
FullNghs:       5332.5 ave        6801 max        4253 min
Histogram: 1 7 5 2 5 4 5 1 1 1

Total # of neighbors = 170640
Ave neighs/atom = 158
Neighbor list builds = 4
Dangerous builds = 0

Total wall time: 1:01:58
