
units		metal
atom_style	atomic

read_data ${STRUCTURE}.data
read_data BaTiO3-sc333.data
Reading data file ...
  orthogonal box = (0 0 0) to (11.898253 11.898253 12.912076)
  2 by 4 by 4 MPI processor grid
  reading atoms ...
  135 atoms
  read_data CPU = 0.004 seconds
replicate $L $L $L
replicate 2 $L $L
replicate 2 2 $L
replicate 2 2 2
Replication is creating a 2x2x2 = 8 times larger system...
  orthogonal box = (0 0 0) to (23.796507 23.796507 25.824152)
  2 by 4 by 4 MPI processor grid
  1080 atoms
  replicate CPU = 0.003 seconds

pair_style allegro
pair_coeff	* * ${MODEL}.pth Ba Ti O
pair_coeff	* * BaTiO3-E0.pth Ba Ti O
mass 1 137.3
mass 2 47.9
mass 3 15.9994

timestep 0.002
compute polarization all allegro polarization 3
compute allegro will evaluate the quantity polarization of length 3 (src/compute_allegro.cpp:53)
compute polarizability all allegro polarizability 9
compute allegro will evaluate the quantity polarizability of length 9 (src/compute_allegro.cpp:53)

thermo_style custom pe fmax fnorm spcpu cpuremain

variable efield equal 1e-2*36.36
fix born all addbornforce 0.0 0.0 ${efield}
fix born all addbornforce 0.0 0.0 0.3636

thermo 10
min_style fire
#minimize 0.0 1e-6 100 100
velocity all create ${TEMP} ${SEED} dist gaussian rot yes mom yes
velocity all create 310 ${SEED} dist gaussian rot yes mom yes
velocity all create 310 14336 dist gaussian rot yes mom yes
fix nvt all nvt temp ${TEMP} ${TEMP} $(100*dt)
fix nvt all nvt temp 310 ${TEMP} $(100*dt)
fix nvt all nvt temp 310 310 $(100*dt)
fix nvt all nvt temp 310 310 0.2000000000000000111
run 5000
Neighbor list info ...
  update: every = 1 steps, delay = 0 steps, check = yes
  max neighbors/atom: 2000, page size: 100000
  master list distance cutoff = 8
  ghost atom cutoff = 8
  binsize = 8, bins = 3 3 4
  1 neighbor lists, perpetual/occasional/extra = 1 0 0
  (1) pair allegro/kk, perpetual
      attributes: full, newton on, kokkos_device
      pair build: full/bin/kk/device
      stencil: full/bin/3d
      bin: kk/device
Per MPI rank memory allocation (min/avg/max) = 3.516 | 3.516 | 3.516 Mbytes
    PotEng          Fmax          Fnorm          S/CPU         CPULeft    
-807708.29      1.595935       37.044222      0              0            
-807647.92      3.3535324      44.363318      2.6500405      1882.991     
-807635.1       2.3849439      35.352769      25.919484      1035.6755    
-807605.27      3.372662       37.522534      25.919869      752.97879    
-807603.6       4.2088172      50.035279      25.841321      611.58297    
-807570.7       4.107858       39.839548      25.762321      526.70817    
-807602.46      2.9689171      38.367355      25.852855      469.88363    
-807646.03      3.7813205      33.784759      25.837022      429.20091    
-807684.29      2.7367314      33.813932      25.805283      398.62136    
-807670.28      3.6397099      33.128471      25.803409      374.75268    
-807650.56      3.3669257      35.160403      25.885558      355.51997    
-807658.84      2.3586873      27.674226      25.883106      339.7155     
-807628.25      3.2543833      31.010914      25.868956      326.48931    
-807587.76      3.2379773      40.501046      25.813769      315.26941    
-807568.46      3.6828392      39.115541      25.919282      305.54226    
-807633.04      3.4873182      33.96831       25.901774      297.06906    
-807653.26      3.3027059      31.978222      25.865091      289.62331    
-807666.43      2.7867379      34.306434      25.87435       283.00412    
-807644.89      4.5020072      45.671113      25.916688      277.06054    
-807679.12      2.7866612      36.383741      25.903949      271.70679    
-807641.16      4.1747397      39.523338      25.808013      266.88426    
-807617.79      2.8580514      38.884676      25.904258      262.45127    
-807560.25      4.06234        46.150219      25.923797      258.37987    
-807605.48      4.5522762      49.074045      25.879513      254.64264    
-807614.63      3.7858717      38.426189      25.841251      251.196      
-807643.43      3.0392982      35.37683       25.924848      247.97042    
-807641.6       4.6934254      45.493885      25.926252      244.96291    
-807682.33      2.957545       37.258896      25.861872      242.16643    
-807663.39      2.9788298      34.092284      25.781985      239.56228    
-807638.83      2.5249491      31.786025      25.882503      237.0865     
-807605.92      3.5205927      33.561207      25.914859      234.74247    
-807604.62      3.5241748      42.111742      25.862891      232.5365     
-807599.27      3.4735852      36.584276      25.788667      230.46051    
-807611.67      3.3973929      33.170855      25.873401      228.46887    
-807641.61      2.9004648      30.584333      25.864311      226.5735     
-807673.32      2.6707048      31.730922      25.833372      224.77051    
-807677.11      2.7927582      32.843755      25.788319      223.05489    
-807644.37      4.5820477      37.591062      25.877194      221.39438    
-807646.45      3.2260123      30.757493      25.909175      219.79513    
-807621.49      3.868191       33.238912      25.851072      218.26835    
-807602.85      4.340849       43.49674       25.828894      216.80238    
-807570.58      3.9648744      41.862761      25.911294      215.37527    
-807623.17      3.0247499      35.753406      25.920521      213.99623    
-807649.57      3.9067999      35.563937      25.853672      212.67398    
-807674.02      2.6357616      35.581842      25.847857      211.39517    
-807641.12      5.3416901      46.74588       25.914943      210.14587    
-807665.64      2.8106146      35.440033      25.901076      208.93615    
-807645.23      3.5601493      35.623509      25.892603      207.76269    
-807625.61      3.086004       37.5311        25.925613      206.61741    
-807566.38      3.4836657      42.545171      25.929388      205.50261    
-807600.39      3.8514309      43.127387      25.94187       204.4153     
-807625.6       3.4555508      34.677797      25.894331      203.36175    
-807655.87      2.8936502      33.009319      25.881137      202.33557    
-807643.04      4.2805166      41.393744      25.891091      201.33227    
-807671.52      2.7497014      34.425079      25.920714      200.34818    
-807666.04      3.0656584      33.516955      25.79585       199.40096    
-807644.19      3.2037216      31.250073      25.883729      198.46329    
-807599.89      3.3262573      35.574158      25.938491      197.53862    
-807596.68      3.3382263      37.620793      25.922633      196.63434    
-807606.3       4.0568953      39.398466      25.845529      195.75624    
-807621.26      3.041815       32.483217      25.868699      194.89197    
-807638.5       3.2022934      32.894456      25.945536      194.03513    
-807662.85      3.7091828      34.121712      25.886581      193.19969    
-807676.17      2.9707445      35.113163      25.839444      192.3834     
-807648.12      3.8093893      37.357702      25.864047      191.57802    
-807634.68      2.8954795      33.122366      25.929602      190.77898    
-807613.12      3.5802136      35.12449       25.940773      189.99137    
-807604.73      3.7807293      45.221278      25.853114      189.22421    
-807580.41      4.5837042      41.228052      25.87576       188.4661     
-807616.55      3.5513936      36.993236      25.92847       187.71384    
-807644.35      4.7737245      37.475643      25.921758      186.97268    
-807673.61      3.1309057      36.83886       25.867243      186.24643    
-807648.19      5.0049097      42.486204      25.852335      185.53095    
-807653.52      3.2924624      35.029679      25.929221      184.81776    
-807641.34      3.9464411      34.860814      25.911738      184.11492    
-807625.23      3.5055547      37.939277      25.980457      183.41475    
-807576.62      3.2376452      39.27197       25.959529      182.72461    
-807592.59      3.1151663      39.297302      25.914537      182.04606    
-807627.94      3.3481015      32.20423       25.922302      181.37439    
-807659.32      2.6609329      32.037889      25.898404      180.71185    
-807651.1       4.4658476      36.352929      25.889118      180.05696    
-807658.74      3.7119202      35.099186      23.474552      179.61421    
-807664.8       2.5262615      32.15174       25.922532      178.96681    
-807644.04      3.4728779      31.46503       25.939373      178.32445    
-807604.39      3.0845211      34.75244       25.981391      177.68512    
-807586.27      3.6268634      38.096533      26.003067      177.05021    
-807608.45      3.8308038      39.348571      10.905528      178.98405    
-807628.96      3.4054085      32.33947       12.427496      180.31926    
-807641.89      3.0392061      33.451322      26.086281      179.63328    
-807652.77      4.4601138      36.667471      26.054458      178.95626    
-807673.93      2.5430444      34.963996      25.961097      178.29204    
-807651.54      3.9206906      35.87177       6.0111605      183.37964    
-807631.29      2.8873635      34.041566      15.989833      183.7164     
-807602.95      3.7586409      36.412758      26.00977       182.97808    
-807606.03      4.0075064      43.19524       25.979496      182.24924    
-807596.07      4.1391403      37.960769      25.96604       181.52848    
-807618.84      3.3424698      35.697991      25.987729      180.81336    
-807639.23      5.2969845      37.810064      25.966106      180.10639    
-807671.8       2.8714467      36.030805      16.874015      180.25719    
-807656.02      4.0020786      38.122322      17.51504       180.30513    
-807647.99      2.8587896      34.817378      25.701503      179.61326    
-807632.06      3.7599445      34.771126      25.961991      178.91197    
-807624.76      3.8241026      36.955771      25.97861       178.21592    
-807589.38      3.5252645      38.390694      25.95823       177.52707    
-807594.77      2.9327216      37.667652      25.989139      176.84232    
-807624.93      3.130858       32.553955      25.994447      176.16298    
-807659.82      2.5335173      31.859551      25.920866      175.49327    
-807657.44      3.6128866      34.994347      25.925517      174.8286     
-807652.6       3.6292563      35.630073      25.962052      174.16713    
-807656.15      2.3937078      32.051822      25.961153      173.51078    
-807643.19      3.0399513      30.940876      25.946273      172.86014    
-807611.9       2.9223175      34.145372      25.971664      172.21296    
-807582.36      3.6244631      37.895613      25.95369       171.57139    
-807610.99      3.4026135      35.895822      25.934237      170.93534    
-807633.54      3.5649298      32.842323      25.951554      170.30281    
-807651.84      2.7166457      32.229681      25.975117      169.67341    
-807646.49      3.6725471      39.19014       25.857466      169.05403    
-807667         2.7844233      34.89293       25.818314      168.44054    
-807652.92      3.8002932      35.594691      25.860468      167.82884    
-807632.91      2.776468       34.200336      25.962288      167.21607    
-807595.97      3.8965827      36.905742      25.935548      166.60835    
-807602.83      3.498046       40.85958       25.978487      166.0023     
-807606.16      5.1145965      35.918779      25.905057      165.40326    
-807631.09      3.2792394      32.891127      25.96669       164.80488    
-807637.46      5.0314598      36.557649      25.941774      164.21105    
-807667.72      2.6963004      33.540366      25.897045      163.62256    
-807659.17      3.4398783      35.000937      25.93678       163.03552    
-807649.82      2.9398352      33.139143      25.946247      162.45125    
-807623.24      3.1752545      34.020135      26.006791      161.86747    
-807616.62      3.0941862      36.925627      26.032471      161.28569    
-807596.78      3.3553586      38.676533      25.906634      160.71226    
-807604.37      2.8842533      36.526823      25.978579      160.13869    
-807622.61      3.5040041      33.744396      25.943671      159.56941    
-807656.08      2.3582627      32.127815      25.965218      159.00202    
-807662.89      3.4068866      33.88475       25.811475      158.44361    
-807652.1       3.1374013      34.679247      25.917912      157.88343    
-807644.87      3.0437469      33.075098      25.965251      157.32394    
-807636.51      2.8442476      31.176368      25.956571      156.76733    
-807613.42      3.3734864      36.244368      25.993897      156.21175    
-807586.45      3.837702       38.155278      26.004552      155.65823    
-807606.85      3.2793624      35.970582      25.998608      155.10734    
-807635.6       3.1254993      33.431623      25.991623      154.55907    
-807656.86      3.0857507      33.25529       25.981497      154.01349    
-807646.69      4.3683006      38.357534      25.984991      153.47002    
-807656.78      2.77988        34.557426      25.896837      152.932      
-807648.33      3.2524694      34.22669       25.892687      152.39622    
-807635.58      3.0392391      32.740491      25.89523       151.8624     
-807591.39      3.5768754      37.50918       25.995171      151.32702    
-807597.88      3.7943828      39.334615      25.947121      150.79538    
-807611.2       3.2953075      35.37555       25.862348      150.26867    
-807639.59      3.2775993      32.752671      25.947667      149.74086    
-807639.08      3.7178946      37.155571      26.031169      149.21208    
-807658.75      2.6089241      34.638129      25.942491      148.68822    
-807657.23      3.0577196      34.701248      25.945048      148.16607    
-807648.57      3.4596912      32.781803      25.959724      147.64521    
-807616.47      3.7662241      34.637668      26.02895       147.12382    
-807604.51      3.139266       36.469765      25.989094      146.60549    
-807601.26      3.1603122      37.366056      25.943022      146.09035    
-807614.9       2.693816       34.05277       25.945748      145.57677    
-807627.25      2.6841079      32.075759      25.987221      145.06348    
-807649.84      2.7507472      32.617505      25.990245      144.5517     
-807663.41      2.888669       33.316469      25.989495      144.04152    
-807653.02      2.749045       33.874083      25.937641      143.5345     
-807637.07      3.8153636      32.872207      25.979371      143.02768    
-807623.74      4.3520904      33.431169      25.912152      142.5244     
-807612.33      3.3694829      37.716142      25.958642      142.02113    
-807594.34      3.738067       38.064407      25.948687      141.51959    
-807610.78      3.2477455      34.829632      25.963697      141.01899    
-807634.24      3.7858661      33.367962      25.987778      140.51907    
-807659.67      2.7715313      32.309133      25.966508      140.02112    
-807652.28      4.338793       35.215643      25.935428      139.52539    
-807649.75      2.7357149      33.566654      25.874523      139.0327     
-807641.99      3.4494026      32.171327      25.959743      138.53883    
-807631.5       2.8309689      33.271543      25.950592      138.04647    
-807599.96      3.4208979      35.685203      25.938881      137.55566    
-807598.31      2.8836321      37.060151      26.002394      137.06431    
-807617.49      2.6478814      33.70711       25.977212      136.57486    
-807645.43      2.5202172      32.926996      25.958727      136.08709    
-807648.05      3.6811098      35.089474      25.951933      135.60065    
-807652.6       2.7400807      34.242111      25.963872      135.11503    
-807653.18      3.3034156      33.393704      25.950639      134.63087    
-807646.85      3.4270005      32.846413      25.950479      134.14781    
-807616.49      2.7833257      33.385403      25.989056      133.66482    
-807600.54      2.7305639      36.585309      26.012475      133.1823     
-807604.27      3.9031743      36.939756      25.964168      132.70208    
-807625.86      3.3977367      34.070323      25.965783      132.22285    
-807635.64      3.6353042      33.270268      25.975115      131.7444     
-807650.33      3.6339846      33.588549      26.005034      131.2662     
-807658.46      2.5784818      34.438553      25.95189       130.79031    
-807654.62      2.9702123      33.301557      25.930755      130.31589    
-807634.81      3.2785339      32.826803      25.931938      129.84238    
-807615.02      3.4265335      34.229928      25.983218      129.36855    
-807607.57      3.5853066      37.074785      25.971609      128.89593    
-807604.06      3.7698259      36.697887      25.939755      128.42497    
-807618.28      2.6591878      33.411929      25.911355      127.95556    
-807636.98      3.5325764      33.075984      25.984519      127.4853     
-807656.98      2.4664834      33.543526      25.942622      127.01688    
-807655         2.8911892      34.918818      25.932896      126.54952    
-807647.25      2.7750061      34.25831       25.929773      126.08306    
-807632.98      3.9881964      34.371207      25.982685      125.61622    
-807624.44      3.0639946      34.902982      25.957578      125.15077    
-807601.03      3.3794324      37.176091      25.933356      124.68664    
-807601.96      3.1872284      36.767847      25.961433      124.22268    
-807619.66      3.0506791      32.864437      26.000444      123.75865    
-807646.88      3.3145351      32.283279      25.955771      123.29635    
-807651.42      3.0423624      34.045829      25.957785      122.83477    
-807651.41      3.0108504      34.346906      26.001776      122.373      
-807645.1       3.6441798      34.369266      26.033238      121.91131    
-807641.21      3.6485273      32.464738      26.006796      121.45092    
-807615.85      3.9047946      34.809122      26.002158      120.99135    
-807598.43      3.507466       37.163101      25.976731      120.53301    
-807604.16      3.1530058      36.831915      26.037981      120.07413    
-807628.75      2.9013196      33.715699      25.99376       119.61685    
-807642.87      2.9742235      33.458798      25.954633      119.16102    
-807647.16      3.5693045      35.002027      25.980021      118.70535    
-807652.69      3.9728322      34.308527      25.950855      118.25092    
-807650.27      3.1779509      33.730834      25.907154      117.79797    
-807635.58      3.7014954      31.884554      25.960642      117.34461    
-807608.34      3.3606484      34.650919      25.955682      116.89197    
-807603.28      3.6563433      36.866626      25.940789      116.44023    
-807609.96      2.9951534      36.563129      25.900533      115.98985    
-807627.36      2.8867059      33.600788      25.875706      115.54052    
-807637.74      5.0928018      34.535268      25.914427      115.09104    
-807654.17      3.0433909      34.639466      25.949106      114.64148    
-807654.86      3.5739965      34.989345      25.971096      114.1921     
-807647.19      4.0093106      34.112341      25.954957      113.74358    
-807626.56      2.9365577      34.12453       26.012012      113.29459    
-807617.05      3.0254196      35.535556      26.021339      112.84601    
-807607.37      3.371508       36.985674      26.008341      112.39822    
-807611.86      3.4052203      35.511414      25.98185       111.95145    
-807625.36      3.0854973      33.154677      25.980728      111.50523    
-807647.74      3.7966053      33.333183      25.962535      111.05986    
-807653.91      2.9940919      33.96107       25.957771      110.6151     
-807651.2       3.1694467      34.571342      26.023406      110.16972    
-807641.54      4.8536745      34.056519      26.022081      109.7249     
-807632.31      3.5689661      33.981546      25.986462      109.28118    
-807616.15      4.1090574      34.776263      25.971115      108.83822    
-807604.61      3.2856339      36.148695      26.006229      108.39516    
-807611.06      2.9501364      34.669985      25.984269      107.95296    
-807634.78      3.0122404      31.94888       25.981539      107.51128    
-807648.33      2.8308365      32.78657       26.009626      107.06963    
-807648.88      3.3841731      34.772196      25.985         106.62884    
-807649.39      3.3534355      34.502412      25.967464      106.18879    
-807645.23      2.8825449      33.303985      25.993944      105.74878    
-807631.67      3.5311369      33.301886      25.984123      105.30937    
-807607.54      2.8429574      36.080384      25.975152      104.87055    
-807603.2       3.4022665      37.315849      25.99268       104.43189    
-807617.33      3.051746       35.222493      25.942702      103.99444    
-807636.6       2.8248222      33.01077       25.911135      103.55787    
-807642.16      2.9889876      34.10535       25.925289      103.12151    
-807651.05      3.1193515      33.869355      25.941523      102.68531    
-807651.85      3.2795692      33.378468      25.95531       102.2493     
-807643.03      3.6044537      32.355781      25.972561      101.81345    
-807621.82      3.1562183      33.411793      25.97617       101.37795    
-807608.98      2.8104393      35.591477      25.977184      100.94283    
-807609.37      3.1370743      35.996578      25.948165      100.50852    
-807618.5       3.4152733      35.276667      25.914272      100.07507    
-807630.26      3.9362363      34.075355      25.924149      99.641855    
-807644.32      3.4444104      34.432311      25.98825       99.208113    
-807654.2       3.1421285      34.124228      25.951768      98.775252    
-807648.3       3.9471791      35.50716       26.011691      98.341938    
-807635.01      3.9523935      33.933201      26.017622      97.908918    
-807622.78      3.4006341      33.996512      26.046521      97.475883    
-807612.35      3.29707        35.764312      26.001365      97.043821    
-807606.65      3.5110204      36.597816      25.96318       96.612624    
-807615.12      3.4512623      34.818275      25.902913      96.182571    
-807634.78      2.5249335      32.937071      25.944291      95.752305    
-807648.06      3.8739119      34.074596      25.888441      95.323102    
-807651.62      3.026489       34.097031      25.917668      94.893841    
-807643.86      2.9126987      34.639739      25.930102      94.464745    
-807636.42      3.7332885      33.449063      26.01075       94.034952    
-807624.29      2.6564352      34.293726      26.041325      93.605111    
-807610.56      3.0792077      35.819865      25.995365      93.176177    
-807602.56      3.418757       36.558763      25.972613      92.747848    
-807620.09      2.8584764      34.660111      25.982666      92.319712    
-807640.16      3.0180852      33.088239      25.976957      91.891959    
-807646.12      3.2454933      34.554297      26.052569      91.46361     
-807646.93      3.1768514      34.578002      26.040444      91.035726    
-807646.5       3.1806268      34.696228      26.017646      90.608427    
-807639.49      3.2882731      33.298365      25.990674      90.181751    
-807619.69      4.0968285      34.577105      26.013307      89.755112    
-807605.16      3.257387       36.510845      26.001979      89.328903    
-807610.36      4.3562134      36.154064      25.953603      88.903544    
-807627.34      3.4010633      34.12872       25.918635      88.478867    
-807637.55      3.7001607      33.612528      25.921858      88.054427    
-807646.19      3.9658931      33.679783      25.990835      87.629486    
-807651.83      3.2049515      33.84835       25.953113      87.205244    
-807649.96      3.0418326      33.811382      25.976175      86.78102     
-807632.72      2.8741416      33.145565      25.967893      86.357159    
-807619.07      3.0288145      34.305944      26.027095      85.932926    
-807611.57      3.4951305      35.527023      25.993496      85.509329    
-807614.66      3.2169137      35.69742       25.932431      85.08665     
-807623.24      2.7171399      33.243121      25.976042      84.663764    
-807637.52      3.0788519      33.135915      26.010971      84.240771    
-807650.11      3.2363205      33.958456      25.984503      83.818315    
-807652.7       3.3266992      33.374712      25.958668      83.39638     
-807643.06      3.1270341      33.351577      26.013277      82.974136    
-807632.78      3.3602238      33.102159      26.002945      82.552251    
-807621.63      3.0686953      33.448576      25.99575       82.130688    
-807612.84      3.5448213      35.347892      25.94546       81.709874    
-807611.26      3.1455285      34.999744      25.952495      81.289225    
-807625.39      3.8502443      34.143407      25.913754      80.869192    
-807642.88      3.1223519      33.306097      25.875699      80.449758    
-807650.61      2.6994574      32.626078      25.932937      80.029986    
-807647.08      2.7487779      33.80353       25.987838      79.609914    
-807641.74      2.8803492      32.978185      26.033364      79.189643    
-807634.55      2.9369949      32.456689      25.981731      78.770093    
-807619.84      3.2527241      34.166506      25.990701      78.350684    
-807608.48      3.2062891      35.662634      25.957722      77.931805    
-807613.64      3.1594223      34.841928      25.985607      77.512889    
-807630.71      3.4684039      33.830239      25.954245      77.094478    
-807643.16      2.9158097      33.397102      25.969412      76.676142    
-807645.05      3.0522043      34.780994      25.948653      76.258206    
-807647.1       3.6136322      34.301154      25.977828      75.840219    
-807642.63      4.0383554      34.402813      25.88681       75.423244    
-807630.47      3.340408       34.576162      25.959426      75.00583     
-807613.45      3.3298554      35.04192       25.934487      74.588834    
-807609.09      3.4515304      35.704731      25.929184      74.172083    
-807620.79      2.8480533      34.471179      25.902808      73.755752    
-807630.14      2.9853874      33.223395      25.864294      73.339937    
-807639.27      2.8062217      32.794851      25.908039      72.923937    
-807646.97      3.4211421      33.839179      25.889797      72.508275    
-807648.09      2.6297839      33.578046      25.941046      72.092375    
-807641.61      3.566943       32.371663      25.981995      71.67633     
-807624.49      2.846622       33.423755      26.011273      71.260242    
-807614.78      2.6875324      35.082563      25.992305      70.844499    
-807614.49      3.2993406      35.185734      25.959534      70.429207    
-807617.86      3.9450826      35.153306      25.958273      70.014108    
-807628.14      3.6013061      34.342145      25.952476      69.599236    
-807642.76      4.6355778      34.339334      25.945451      69.184598    
-807648.52      3.3365762      34.701518      25.922368      68.770314    
-807645         3.605671       34.545338      25.922579      68.356201    
-807635.2       3.5278921      33.8629        25.950444      67.942049    
-807625.78      3.1453309      33.787897      25.986781      67.527799    
-807616.81      3.2398926      35.028183      25.957299      67.113943    
-807610.46      2.9317732      35.576625      25.937803      66.700401    
-807615.57      4.5060874      34.919674      25.964176      66.286834    
-807633.39      2.8026823      33.395204      25.953591      65.873512    
-807645.69      3.0751792      34.229746      25.911367      65.460656    
-807645.49      3.0015668      34.52687       25.905264      65.048003    
-807641.07      3.5754465      34.928022      25.955111      64.635157    
-807637.58      3.1800172      33.34946       26.011401      64.222084    
-807626.12      3.363425       34.812239      25.983555      63.809369    
-807611.7       3.5490254      35.55837       25.965673      63.396938    
-807610.52      3.8370969      35.568606      25.938339      62.984849    
-807620.83      3.2349748      35.195087      25.919041      62.573044    
-807635.38      2.7751365      33.680974      25.883137      62.161627    
-807642.8       2.8717889      34.035087      25.918337      61.750123    
-807645.43      2.9650336      34.33746       25.941116      61.338618    
-807643.49      3.3213981      33.940962      26.000589      60.926881    
-807639.35      3.0180536      33.479808      25.970227      60.515492    
-807621.4       3.4388729      34.154841      25.97467       60.104225    
-807611.14      3.0552258      35.439235      25.986852      59.693031    
-807614.84      3.7027725      35.362283      26.005987      59.28187     
-807624.86      2.8532686      33.972276      25.985097      58.870986    
-807632.85      3.2377305      34.475905      25.957798      58.460414    
-807643.32      3.3216139      33.966368      25.935816      58.050116    
-807647.54      2.9815601      34.581726      25.958419      57.639822    
-807645.17      3.628817       34.441142      25.982711      57.229526    
-807632.42      3.2689324      34.194698      25.98922       56.819333    
-807619.66      3.5653039      34.348107      26.002874      56.409203    
-807615.11      3.3383849      35.887064      25.988941      55.999294    
-807618.1       2.7620736      35.124802      25.929527      55.58986     
-807624.87      2.7823269      33.590874      25.923307      55.180592    
-807635.89      3.7106198      33.909959      25.918628      54.771479    
-807648.71      2.844327       33.214983      25.88828       54.362661    
-807646.68      2.9673214      35.002706      25.859334      53.954125    
-807640.27      3.5429613      34.38376       25.910786      53.545429    
-807630.25      3.5453265      34.292668      25.907809      53.136872    
-807622.73      3.3823269      34.969873      25.930632      52.728318    
-807615.14      2.7930296      35.32837       25.906753      52.320012    
-807615.03      2.7520493      35.05748       25.926873      51.911722    
-807626.61      2.7777206      33.438937      25.928234      51.503547    
-807639.99      2.4552401      33.055652      25.940692      51.095429    
-807647.18      2.9427734      33.41161       25.987345      50.687199    
-807642.92      2.7886927      34.49788       25.972214      50.279169    
-807640.15      2.8059888      33.396652      26.006226      49.871095    
-807632.07      3.0644369      33.957641      25.990595      49.463222    
-807619.44      3.4697558      35.012565      26.012713      49.055365    
-807612.06      3.5735959      36.184128      26.036278      48.647521    
-807617.28      3.882397       36.051506      26.012519      48.239912    
-807628.37      4.4554445      34.680175      25.988737      47.832536    
-807638.21      3.6709494      34.224886      25.939635      47.425502    
-807642.81      3.307694       34.323801      25.974551      47.018423    
-807645.87      3.1098729      34.498656      25.977114      46.611447    
-807639.63      3.0821812      34.645971      25.941519      46.204743    
-807628.57      3.2745721      34.068214      25.945863      45.79813     
-807617.82      3.4632605      35.328572      25.965215      45.391543    
-807613.14      3.8644561      35.947486      25.933353      44.985203    
-807617.36      3.1996665      36.219352      25.918655      44.579032    
-807627.95      3.814214       34.430852      25.847555      44.173265    
-807635.95      3.9002729      34.541548      25.861238      43.767537    
-807644.84      2.7984608      33.507537      25.891378      43.361783    
-807643.56      3.4711         34.232085      25.888143      42.956141    
-807639.35      2.7064164      33.183132      25.909247      42.550512    
-807627.54      3.4060508      33.129328      25.956314      42.144797    
-807618.57      3.9060203      34.751356      25.963346      41.739158    
-807615.52      3.8307075      36.046062      25.943804      41.333698    
-807617.13      4.4172205      35.575516      25.904568      40.928487    
-807628.66      2.990779       34.184354      25.935617      40.523256    
-807639.03      3.2460413      33.888772      25.924014      40.118166    
-807644.5       3.6069729      35.347564      25.995229      39.712912    
-807641.76      3.0901302      35.078306      25.931169      39.307992    
-807636.47      3.5135041      35.338874      25.976266      38.903006    
-807626.15      3.8414623      34.563291      26.009396      38.498003    
-807620.41      3.3752721      36.188447      25.955457      38.093289    
-807614.85      4.0880569      36.042172      25.992624      37.688543    
-807619.26      3.3916527      35.900056      25.994531      37.283889    
-807629.85      3.8302989      34.781062      26.007657      36.879289    
-807642.09      2.8708948      33.926904      25.988661      36.47485     
-807642.08      3.2792576      34.948534      25.993134      36.070492    
-807642.26      2.8637689      34.82753       25.959509      35.666338    
-807634.74      3.0007694      34.48577       25.981828      35.262204    
-807628.52      3.0903162      34.378697      25.97743       34.858178    
-807617.84      3.1271237      35.841972      25.999123      34.454177    
-807616.39      3.5460786      34.732172      25.956733      34.050399    
-807620.18      3.2526868      35.709156      25.942619      33.646751    
-807634.19      2.5808145      33.937448      25.946784      33.243179    
-807640.79      3.6356475      33.675963      26.008465      32.839514    
-807641.24      3.373827       34.492903      25.980522      32.43602     
-807644.05      3.2209981      33.519976      25.995555      32.032573    
-807637.27      3.427893       33.592043      25.973863      31.629275    
-807626.66      2.7689161      34.112925      26.005838      31.225977    
-807615.87      3.4691098      35.040767      26.000842      30.82278     
-807618.66      2.8810252      35.142103      26.046205      30.419551    
-807624.49      3.5378808      34.679909      26.02396       30.016471    
-807634.5       3.6264898      33.565303      26.045054      29.613426    
-807638.33      3.316042       34.420624      26.061684      29.210427    
-807646.58      2.7626073      33.795614      26.034053      28.807588    
-807643.74      3.5329598      33.692579      26.013686      28.404885    
-807633.01      3.8228291      34.024158      25.991421      28.002322    
-807625.32      4.2993098      33.730285      25.936219      27.599971    
-807620.63      3.0233993      34.705652      25.917956      27.197742    
-807619.18      3.0842685      34.810541      25.930699      26.795559    
-807625.7       2.9653452      34.369572      25.935589      26.393441    
-807635.53      3.2671414      33.547539      26.038636      25.991171    
-807643.64      3.058593       34.208348      25.926211      25.589229    
-807644.09      3.8310236      34.83693       25.966072      25.187276    
-807641.01      3.7236778      34.28512       26.050769      24.785223    
-807632.65      4.0642805      34.358014      26.031961      24.383291    
-807625.31      3.7719461      34.782291      26.026023      23.981452    
-807620.25      3.5134992      34.992999      26.049821      23.579646    
-807619.13      3.3871907      35.300954      26.041857      23.177936    
-807626.96      4.1489515      34.575549      25.995257      22.776395    
-807638.15      3.1149272      33.918111      25.996943      22.374927    
-807642.17      4.2185055      34.659641      25.946276      21.973627    
-807640.47      3.2263485      35.115264      25.983662      21.572331    
-807637.82      3.4506558      35.278174      25.969609      21.171133    
-807632.94      2.8208376      33.690041      25.967875      20.770011    
-807623.23      2.9750206      35.617448      25.974584      20.368948    
-807616.06      4.8525414      35.813664      25.994705      19.967924    
-807621.35      3.5017162      35.165155      26.040194      19.566899    
-807630.98      4.2138017      34.33641       26.006467      19.166003    
-807636.69      3.817178       34.313907      26.004237      18.765182    
-807638.76      3.5510996      34.61133       26.044414      18.364372    
-807643.08      3.1465194      34.255292      25.994913      17.963709    
-807637.78      3.8376277      34.79723       26.007208      17.563099    
-807629.54      2.8148109      34.719037      25.988463      17.162585    
-807620.54      4.2374017      35.12115       25.9886        16.762139    
-807618.02      3.3806809      36.072643      25.996088      16.361752    
-807622.1       3.855419       35.696707      25.996944      15.961432    
-807627.6       4.291376       36.534468      26.022741      15.561148    
-807634.82      2.996393       35.011187      26.004474      15.160956    
-807641.26      3.7985429      35.259226      26.01088       14.760823    
-807640.91      4.5668793      35.318656      25.933029      14.360847    
-807636.84      2.9268702      34.742858      25.958804      13.960905    
-807625.45      3.77824        35.330483      25.933358      13.561053    
-807621.06      4.6221197      34.823985      25.98645       13.161206    
-807618.76      3.2444428      35.426653      25.987718      12.761423    
-807623.56      2.9627827      34.260255      25.999738      12.361691    
-807626.51      3.07797        35.112129      26.002353      11.962022    
-807638.23      3.4548898      33.882021      26.01675       11.562403    
-807640.55      2.9413213      34.671611      26.031356      11.162836    
-807639.89      3.6153854      34.337402      25.996452      10.763364    
-807631.97      3.4863484      34.781231      25.994017      10.363956    
-807627.43      3.383448       34.224945      26.012968      9.9645959    
-807622.2       3.3306959      34.826712      25.991615      9.565314     
-807616.84      2.8746101      35.263383      26.021374      9.1660719    
-807623.99      3.900603       34.630632      25.937816      8.7669493    
-807630.6       3.5580009      34.522425      25.978203      8.3678571    
-807638.19      3.6451975      34.411052      25.960296      7.968835     
-807638.1       3.1874304      34.785021      25.974631      7.5698619    
-807637.31      3.7068115      34.981915      25.935383      7.1709686    
-807631.95      3.2508419      34.915299      25.970513      6.7721121    
-807626.72      3.9283798      35.224967      25.976036      6.37331      
-807619         3.3761642      34.765085      25.983012      5.9745617    
-807619.03      3.2216666      35.786703      25.976691      5.5758732    
-807625.18      4.4091831      34.683098      25.993035      5.1772346    
-807635.3       2.9846615      33.137937      25.96345       4.7786638    
-807636.55      4.543048       35.06194       25.955171      4.3801507    
-807640.08      2.767035       33.662559      25.983318      3.9816831    
-807638.34      3.3186686      34.655967      26.017813      3.5832615    
-807633.12      3.6838106      34.005131      26.020362      3.1848966    
-807623.5       3.0921533      34.670806      25.962028      2.7866008    
-807618.92      3.2586421      35.479269      25.987483      2.3883536    
-807624.32      3.375426       34.774526      25.9583        1.9901652    
-807627.15      2.9756007      34.055416      25.94836       1.5920301    
-807631.67      3.2788484      34.198564      25.976304      1.1939438    
-807639.64      2.6510962      32.988351      25.991997      0.79590936   
-807642.87      3.3525741      33.959051      25.989124      0.39792827   
-807637.4       3.1598455      33.762419      25.951374      0            
Loop time of 198.953 on 32 procs for 5000 steps with 1080 atoms

Performance: 4.343 ns/day, 5.526 hours/ns, 25.132 timesteps/s, 27.142 katom-step/s
67.6% CPU use with 32 MPI tasks x 1 OpenMP threads

MPI task timing breakdown:
Section |  min time  |  avg time  |  max time  |%varavg| %total
---------------------------------------------------------------
Pair    | 100.9      | 145.44     | 192.23     | 309.2 | 73.10
Neigh   | 0          | 0          | 0          |   0.0 |  0.00
Comm    | 3.9808     | 50.778     | 95.351     | 523.4 | 25.52
Output  | 0.040646   | 0.046919   | 0.049248   |   0.9 |  0.02
Modify  | 2.3081     | 2.3431     | 2.3585     |   0.8 |  1.18
Other   |            | 0.3404     |            |       |  0.17

Nlocal:          33.75 ave          48 max          21 min
Histogram: 8 8 0 0 0 0 0 8 0 8
Nghost:        1106.25 ave        1119 max        1092 min
Histogram: 8 0 8 0 0 0 0 0 8 8
Neighs:              0 ave           0 max           0 min
Histogram: 32 0 0 0 0 0 0 0 0 0
FullNghs:       5494.5 ave        7896 max        3378 min
Histogram: 8 8 0 0 0 0 0 8 0 8

Total # of neighbors = 175824
Ave neighs/atom = 162.8
Neighbor list builds = 0
Dangerous builds = 0

reset_timestep 0


variable interval equal 1000
thermo 10

variable nintervals equal $(v_PERIOD/v_interval)
variable nintervals equal 100
variable efield equal 1e-2*36.36*cos((step/${PERIOD})*2*3.14)
variable efield equal 1e-2*36.36*cos((step/100000)*2*3.14)
fix born all addbornforce 0.0 0.0 v_efield

variable Px equal f_born[1]+c_polarization[1]
variable Py equal f_born[2]+c_polarization[2]
variable Pz equal (f_born[3]+c_polarization[3])/vol
variable pe equal pe

fix aveP all ave/time 1 $(v_interval/2) ${interval} v_efield v_Pz v_pe f_born file Pz.${MODEL}.${STRUCTURE}.${TEMP}.$L.${ITER}
fix aveP all ave/time 1 500 ${interval} v_efield v_Pz v_pe f_born file Pz.${MODEL}.${STRUCTURE}.${TEMP}.$L.${ITER}
fix aveP all ave/time 1 500 1000 v_efield v_Pz v_pe f_born file Pz.${MODEL}.${STRUCTURE}.${TEMP}.$L.${ITER}
fix aveP all ave/time 1 500 1000 v_efield v_Pz v_pe f_born file Pz.BaTiO3-E0.${STRUCTURE}.${TEMP}.$L.${ITER}
fix aveP all ave/time 1 500 1000 v_efield v_Pz v_pe f_born file Pz.BaTiO3-E0.BaTiO3-sc333.${TEMP}.$L.${ITER}
fix aveP all ave/time 1 500 1000 v_efield v_Pz v_pe f_born file Pz.BaTiO3-E0.BaTiO3-sc333.310.$L.${ITER}
fix aveP all ave/time 1 500 1000 v_efield v_Pz v_pe f_born file Pz.BaTiO3-E0.BaTiO3-sc333.310.2.${ITER}
fix aveP all ave/time 1 500 1000 v_efield v_Pz v_pe f_born file Pz.BaTiO3-E0.BaTiO3-sc333.310.2.5

thermo_style custom step time temp press pe f_born v_efield v_Pz spcpu cpuremain

# dump 4a all custom 1000 dump.hyst.${MODEL}.${STRUCTURE}.${TEMP}.$L.${ITER}.bin id type xu yu zu fx fy fz
# dump_modify 4a sort id

fix nvt all nvt temp ${TEMP} ${TEMP} $(100*dt)
fix nvt all nvt temp 310 ${TEMP} $(100*dt)
fix nvt all nvt temp 310 310 $(100*dt)
fix nvt all nvt temp 310 310 0.2000000000000000111

run $(v_PERIOD)
run 100000
WARNING: non-constant efield is experimental, strongly distrust scalar/vector output (src/fix_addbornforce.cpp:193)
Per MPI rank memory allocation (min/avg/max) = 3.516 | 3.516 | 3.516 Mbytes
   Step          Time           Temp          Press          PotEng         f_born        v_efield         v_Pz          S/CPU         CPULeft    
         0   0              300.26342      128872.79     -807637.4      -296.8611       0.3636         0.055831197    0              0            
        10   0.02           296.88629      131943.76     -807630.07     -303.89018      0.36359993     0.057153179    30.049014      3327.5816    
        20   0.04           315.05395      139853.45     -807625.41     -310.92624      0.36359971     0.058476498    30.083574      3325.3289    
        30   0.06           298.10655      140218.74     -807622.7      -311.30458      0.36359935     0.058547711    30.082         3324.4139    
        40   0.08           298.87691      142852.62     -807619.73     -314.21289      0.36359885     0.059094764    30.075801      3323.9618    
        50   0.1            311.69889      134112.7      -807629.07     -306.73284      0.36359821     0.057688076    30.117244      3322.6427    
        60   0.12           304.57523      132770.86     -807633.29     -301.20795      0.36359742     0.056649118    30.14581       3321.1295    
        70   0.14           295.19467      124296.23     -807641.51     -291.67991      0.36359649     0.054857291    30.12185       3320.329     
        80   0.16           295.46567      127513.58     -807638.07     -294.85432      0.36359541     0.055454478    30.110556      3319.8025    
        90   0.18           308.75543      126311.08     -807637.49     -297.28656      0.36359419     0.055912107    30.108055      3319.3491    
       100   0.2            314.99238      135882.8      -807630.17     -305.1244       0.36359283     0.057386422    30.107555      3318.9247    
       110   0.22           307.87449      136922.95     -807625.32     -308.9464       0.36359132     0.058105488    30.043421      3319.1623    
       120   0.24           307.74101      144233.34     -807618.4      -315.46467      0.36358968     0.059331688    30.039507      3319.3404    
       130   0.26           311.54313      138868.01     -807621.64     -312.63554      0.36358788     0.058799883    30.051826      3319.335     
       140   0.28           310.09095      136998.6      -807626.89     -306.74684      0.36358595     0.057692656    30.042412      3319.3572    
       150   0.3            308.78495      127776.06     -807636.66     -296.53261      0.36358387     0.05577189     30.038568      3319.3605    
       160   0.32           304.16096      126639.95     -807638.12     -294.07113      0.36358165     0.055309274    30.066195      3319.1309    
       170   0.34           310.17289      125204.73     -807639.4      -293.46231      0.36357928     0.055195126    30.072036      3318.8512    
       180   0.36           319.17308      129996.94     -807635.32     -298.54131      0.36357677     0.056150784    30.065362      3318.6066    
       190   0.38           314.57635      135353.9      -807629.17     -303.85072      0.36357412     0.057149815    30.066214      3318.3477    
       200   0.4            319.83476      140486.13     -807621.28     -312.30794      0.36357132     0.058740945    30.046472      3318.1906    
       210   0.42           316.10203      142435.19     -807618.05     -314.97356      0.36356838     0.059242791    30.084844      3317.815     
       220   0.44           314.41055      140179.6      -807622.51     -310.15756      0.3635653      0.058337453    30.13082       3317.2133    
       230   0.46           321.16134      135074.71     -807629.37     -304.11078      0.36356207     0.057200624    30.120995      3316.682     
       240   0.48           311.79862      128461.75     -807634.9      -297.28452      0.3635587      0.055917181    30.085129      3316.3318    
       250   0.5            304.74348      127633.54     -807636.37     -294.75217      0.36355519     0.055441399    30.082632      3315.9943    
       260   0.52           314.23594      125462.61     -807640.19     -292.26659      0.36355153     0.054974428    30.080919      3315.664     
       270   0.54           326.41129      132132.3      -807634.87     -299.23188      0.36354773     0.056285165    30.080527      3315.3354    
       280   0.56           321.72693      134726.18     -807627.64     -306.00495      0.36354379     0.057559795    30.105567      3314.908     
       290   0.58           314.91095      143610.68     -807617.66     -314.94995      0.3635397      0.059243023    30.13562       3314.3734    
       300   0.6            320.75566      139411.27     -807622.16     -311.47233      0.36353547     0.058589554    30.106042      3313.9604    
       310   0.62           318.79461      140541.98     -807622.72     -310.50249      0.3635311      0.058407825    30.094177      3313.5949    
       320   0.64           319.34713      132034.69     -807630.73     -302.79661      0.36352658     0.056958999    30.034976      3313.4355    
       330   0.66           307.6213       131135.42     -807632.91     -298.87653      0.36352192     0.056222315    30.025862      3313.2961    
       340   0.68           310.69537      124278.97     -807641.39     -291.02279      0.36351712     0.054745654    30.001018      3313.2262    
       350   0.7            315.79103      127991.85     -807638.72     -294.38575      0.36351217     0.05537903     29.990429      3313.1746    
       360   0.72           309.42174      131088.44     -807632.15     -300.30512      0.36350708     0.056493357    30.034037      3312.9734    
       370   0.74           316.46756      138657.33     -807623.91     -309.5918       0.36350185     0.058241204    29.988068      3312.9027    
       380   0.76           320.56221      140050.06     -807623.05     -311.1288       0.36349647     0.058531213    30.004859      3312.769     
       390   0.78           319.21161      142458.82     -807621.4      -312.6088       0.36349095     0.058810533    30.078341      3312.4173    
       400   0.8            318.69945      137986.17     -807623.63     -310.4992       0.36348529     0.058414568    30.038788      3312.1754    
       410   0.82           313.28258      133633.59     -807629.5      -303.85513      0.36347948     0.057165525    30.02942       3311.9543    
       420   0.84           304.84335      127880.8      -807637.31     -294.99536      0.36347353     0.055499608    30.053157      3311.6656    
       430   0.86           312.61604      126158.08     -807641.29     -292.22428      0.36346744     0.054979187    30.099833      3311.2553    
       440   0.88           296.71462      128153.32     -807635.03     -296.42924      0.3634612      0.055771266    30.067666      3310.929     
       450   0.9            309.03726      131959.23     -807630.83     -302.47672      0.36345482     0.05691006     30.02386       3310.7098    
       460   0.92           312.47276      137458.21     -807626.81     -307.07012      0.3634483      0.05777533     30.070104      3310.3747    
       470   0.94           318.78408      140278.67     -807623.01     -311.88167      0.36344163     0.058681701    30.088859      3309.9959    
       480   0.96           316.96757      140887.63     -807621.07     -313.73163      0.36343482     0.059030885    30.055763      3309.695     
       490   0.98           311.90692      137289.31     -807625.39     -308.76489      0.36342786     0.058097468    30.054287      3309.3959    
       500   1              312.27951      131903.06     -807634.23     -300.01041      0.36342077     0.05645132     30.066814      3309.0681    
       510   1.02           309.15363      127731.72     -807638.91     -9439.6749      0.36341353     0.055507733    29.964772      3308.9609    
       520   1.04           292.26117      126619.93     -807636.88     -9434.7057      0.36340614     0.05547964     29.954723      3308.8665    
       530   1.06           303.47367      128809.38     -807637.01     -9481.6763      0.36339862     0.055756999    29.93457       3308.8052    
       540   1.08           299.55928      133871.08     -807631.35     -9648.4643      0.36339095     0.056738994    29.943579      3308.7153    
       550   1.1            312.78932      137926.98     -807626.66     -9862.7636      0.36338313     0.058000455    30.008877      3308.4851    
       560   1.12           310.4503       141859.69     -807620.47     -10050.121      0.36337518     0.059103548    30.018673      3308.232     
       570   1.14           299.73414      140492.85     -807621.85     -9961.7006      0.36336707     0.058584867    30.005098      3308.0022    
       580   1.16           309.22708      136210.68     -807628.85     -9780.8585      0.36335883     0.057522638    29.961248      3307.8526    
       590   1.18           305.79637      130369.73     -807634.01     -9601.71        0.36335044     0.056470344    29.985091      3307.652     
       600   1.2            298.58094      128462.33     -807636.27     -9497.8291      0.36334191     0.055860702    29.988809      3307.4401    
       610   1.22           300.99719      126080.22     -807639.06     -9420.8418      0.36333324     0.05540923     29.97004       3307.2582    
       620   1.24           302.82386      129011.11     -807637.35     -9484.3532      0.36332442     0.05578413     29.991642      3307.033     
       630   1.26           311.60462      133758.21     -807631.67     -9709.2125      0.36331546     0.057108094    29.968848      3306.8443    
       640   1.28           315.13357      138884.63     -807624.39     -9959.2842      0.36330636     0.058580445    30.028463      3306.5482    
       650   1.3            305.91658      139849.56     -807622.69     -9974.1183      0.36329711     0.058669192    30.017874      3306.269     
       660   1.32           303.49976      139642.46     -807624.87     -9892.8237      0.36328772     0.058192509    30.00972       3306.0017    
       670   1.34           305.20583      134555.49     -807629.36     -9759.9685      0.36327819     0.057412523    29.979842      3305.7817    
       680   1.36           293.73481      131673.5      -807631.02     -9654.6534      0.36326851     0.056794525    29.963712      3305.5846    
       690   1.38           295.38334      126695.62     -807638.45     -9425.124       0.36325869     0.055445793    29.905566      3305.4769    
       700   1.4            293.41384      127669.67     -807639.38     -9381.8653      0.36324873     0.055192826    29.928426      3305.3265    
       710   1.42           301.25992      129513.94     -807634.62     -9570.8598      0.36323863     0.056306233    29.990982      3305.0735    
       720   1.44           305.80085      135902.03     -807627.05     -9831.9546      0.36322838     0.057843909    29.962157      3304.8624    
       730   1.46           313.29034      138088.83     -807625.65     -9907.6591      0.36321798     0.058290966    30.041479      3304.5282    
       740   1.48           296.85939      140096.6      -807622.45     -9932.7824      0.36320745     0.058440472    29.997933      3304.2588    
       750   1.5            310.48885      138423.51     -807624.88     -9913.1171      0.36319677     0.058326484    29.992167      3303.9962    
       760   1.52           307.08708      135851.17     -807627.53     -9809.0364      0.36318595     0.057715817    30.016135      3303.697     
       770   1.54           304.09982      128985.87     -807636.28     -9509.4938      0.36317498     0.055955015    29.996785      3303.4246    
       780   1.56           294.02259      127407.25     -807639.17     -9362.4697      0.36316387     0.055091593    29.980248      3303.174     
       790   1.58           318.23956      126703        -807640.61     -9420.6559      0.36315262     0.055435695    29.989127      3302.909     
       800   1.6            306.01837      131561.34     -807631.35     -9657.5028      0.36314122     0.056831201    29.949952      3302.6962    
       810   1.62           311.45386      135041.57     -807629.28     -9741.4096      0.36312968     0.057326785    30.00099       3302.4109    
       820   1.64           309.51391      139643.5      -807625.02     -9861.7505      0.363118       0.058036842    30.031194      3302.0839    
       830   1.66           309.81706      141242.6      -807620.4      -10006.825      0.36310618     0.05889253     29.998074      3301.8007    
       840   1.68           312.67789      138988.25     -807622.45     -9946.6473      0.36309421     0.058540299    30.028826      3301.476     
       850   1.7            313.39609      133245.6      -807630.34     -9688.5639      0.3630821      0.057023269    30.01482       3301.1693    
       860   1.72           317.71317      128446.37     -807638.46     -9440.8406      0.36306984     0.055567138    30.009837      3300.8683    
       870   1.74           306.4015       127735.61     -807636.99     -9431.8503      0.36305745     0.055516118    29.989353      3300.5924    
       880   1.76           307.56947      127622.28     -807635.22     -9490.0267      0.3630449      0.055860475    30.007297      3300.2929    
       890   1.78           315.19912      131872.29     -807633.23     -9580.5422      0.36303222     0.056395241    29.995334      3300.0073    
       900   1.8            315.969        135463.03     -807629.46     -9701.6133      0.36301939     0.057109936    30.02552       3299.6838    
       910   1.82           319.9719       141415.78     -807621.5      -9969.6789      0.36300642     0.05869004     30.000003      3299.3909    
       920   1.84           308.00894      140585.5      -807618.56     -10009.241      0.36299331     0.058925062    29.987312      3299.1124    
       930   1.86           325.12345      139845.42     -807624.62     -9884.9552      0.36298005     0.058195511    29.946645      3298.8809    
       940   1.88           326.7253       131991.45     -807633.08     -9619.0731      0.36296665     0.056632279    29.905264      3298.696     
       950   1.9            316.07968      130793.29     -807633.17     -9564.0154      0.36295311     0.056310228    29.898819      3298.5153    
       960   1.92           309.3441       126308.33     -807636.23     -9438.3634      0.36293942     0.05557252     29.943664      3298.2798    
       970   1.94           315.95382      129004.43     -807637.52     -9421.5092      0.36292559     0.055475397    29.926459      3298.0619    
       980   1.96           311.40124      130182.12     -807634.21     -9506.8143      0.36291162     0.055979843    29.955893      3297.8084    
       990   1.98           323.9593       137053.53     -807626.26     -9817.7747      0.3628975      0.057813148    29.916417      3297.5974    
      1000   2              317.22266      139289.13     -807621.37     -9948.7434      0.36288325     0.058586675    29.936821      3297.3613    
      1010   2.02           318.24712      140683.99     -807622.29     -309.9566       0.36286884     0.058411548    30.05629       3296.9932    
      1020   2.04           323.06789      136993.91     -807627.04     -306.01901      0.3628543      0.05767182     30.071301      3296.6097    
      1030   2.06           313.43235      135700.17     -807627.5      -304.32371      0.36283961     0.057354648    30.05829       3296.2409    
      1040   2.08           310.404        130543.14     -807633.14     -298.34712      0.36282478     0.056230562    30.064785      3295.866     
      1050   2.1            317.63966      127070.08     -807639.97     -292.62896      0.3628098      0.055155117    30.116697      3295.4379    
      1060   2.12           302.48837      128086.58     -807636.73     -293.90529      0.36279469     0.055397988    30.08799       3295.0412    
      1070   2.14           318.41794      131553.16     -807632.23     -300.85837      0.36277943     0.056710955    30.089647      3294.644     
      1080   2.16           320.72549      136631.8      -807626.79     -306.85195      0.36276402     0.057843185    30.131153      3294.2061    
      1090   2.18           319.03638      138558.91     -807625.26     -308.35311      0.36274848     0.058128653    30.100242      3293.8011    
      1100   2.2            312.77561      140455.31     -807623.1      -309.89135      0.36273279     0.058421158    30.108825      3293.3888    
      1110   2.22           313.42283      136722.29     -807626.01     -307.41702      0.36271695     0.057957223    30.138567      3292.9488    
      1120   2.24           301.85834      134348.98     -807628.56     -303.46855      0.36270098     0.05721534     30.12624       3292.5226    
      1130   2.26           306.42653      128143.37     -807637.77     -295.147        0.36268486     0.055648885    30.131166      3292.0935    
      1140   2.28           302.03588      128376.53     -807638.4      -294.05834      0.3626686      0.055446108    30.110173      3291.6861    
      1150   2.3            304.84443      127886.34     -807636.82     -296.33061      0.36265219     0.055877083    30.111972      3291.2783    
      1160   2.32           308.20126      133335.01     -807632.07     -301.73988      0.36263564     0.056899669    30.112599      3290.8712    
      1170   2.34           309.16812      135148.79     -807629.47     -304.69965      0.36261895     0.057460444    30.074238      3290.5012    
      1180   2.36           309.11783      139400.06     -807625.11     -309.12049      0.36260212     0.058296834    30.084715      3290.1221    
      1190   2.38           304.75987      139204.16     -807624.1      -309.72682      0.36258514     0.058413917    30.01041       3289.8122    
      1200   2.4            298.02299      136957.85     -807625.24     -307.69364      0.36256802     0.058033203    30.01492       3289.4977    
      1210   2.42           308.56755      131467.72     -807634.83     -299.55718      0.36255076     0.056501298    29.998344      3289.198     
      1220   2.44           307.9916       128641.79     -807638.28     -295.98649      0.36253335     0.05583049     30.063485      3288.8392    
      1230   2.46           297.98679      126926.79     -807637.41     -295.52004      0.3625158      0.055745205    30.094225      3288.4535    
      1240   2.48           301.23172      129282.36     -807635.87     -297.50825      0.36249811     0.056122988    30.040235      3288.1163    
      1250   2.5            309.7666       132040.8      -807634.15     -300.35457      0.36248028     0.056662715    30.053489      3287.7676    
      1260   2.52           309.25197      136797.9      -807627.95     -306.46226      0.3624623      0.057817814    30.05043       3287.4217    
      1270   2.54           296.6938       139489.7      -807622.52     -310.14589      0.36244418     0.058515702    30.06166       3287.0665    
      1280   2.56           304.81559      139642.14     -807624.06     -309.58494      0.36242592     0.05841281     30.10633       3286.6735    
      1290   2.58           304.54611      135486.78     -807629.64     -303.8702       0.36240751     0.057337459    30.140115      3286.2529    
      1300   2.6            308.77746      131555.98     -807634.29     -299.65908      0.36238896     0.056545754    30.142209      3285.832     
      1310   2.62           311.26077      127462.29     -807637.63     -296.56051      0.36237027     0.055963939    30.078364      3285.4654    
      1320   2.64           305.05565      127562.7      -807638.18     -295.03079      0.36235143     0.05567816     30.094358      3285.0863    
      1330   2.66           298.06914      129805.2      -807636.6      -295.50758      0.36233245     0.055771061    30.081827      3284.718     
      1340   2.68           308.04309      133781.51     -807631.6      -301.76905      0.36231333     0.056955793    30.032485      3284.3905    
      1350   2.7            316.51667      137485.84     -807626.44     -308.07523      0.36229407     0.05814911     30.094814      3284.0125    
      1360   2.72           306.17995      140511.06     -807622.82     -310.07471      0.36227466     0.058529646    30.094447      3283.6356    
      1370   2.74           307.11973      138892.24     -807625.68     -307.17017      0.36225511     0.057984515    30.055653      3283.29      
      1380   2.76           316.31019      134975.66     -807629.45     -304.59119      0.36223542     0.057500808    30.028196      3282.9665    
      1390   2.78           316.5885       131336.56     -807632.53     -301.42768      0.36221558     0.056906716    30.070695      3282.6094    
      1400   2.8            303.07605      127971.93     -807636.73     -295.20979      0.3621956      0.05573591     30.036914      3282.279     
      1410   2.82           291.0477       128425.79     -807637.07     -292.99891      0.36217548     0.055321567    29.994624      3281.9815    
      1420   2.84           321.26482      128836.43     -807637.92     -296.35308      0.36215522     0.055958004    29.999457      3281.6796    
      1430   2.86           307.3922       134089.98     -807627.93     -304.32452      0.36213481     0.057466426    30.061174      3281.3302    
      1440   2.88           318.32693      136127.35     -807626.65     -307.01969      0.36211426     0.057978653    30.068358      3280.9755    
      1450   2.9            309.80166      140036.51     -807624.12     -308.20888      0.36209357     0.05820655     30.090475      3280.6046    
      1460   2.92           315.86908      137505.85     -807625.85     -307.27014      0.36207273     0.058032603    30.126031      3280.2077    
      1470   2.94           312.6268       136037.73     -807626.8      -305.74233      0.36205176     0.057747399    30.123812      3279.8133    
      1480   2.96           310.85935      130448.93     -807633.46     -298.78132      0.36203064     0.056435925    30.162119      3279.3917    
      1490   2.98           305.57612      128919.89     -807637.65     -293.69518      0.36200937     0.055478475    30.109418      3279.0096    
      1500   3              299.76612      127995.3      -807636.06     -294.45827      0.36198796     0.055625912    30.044015      3278.6758    
      1510   3.02           315.7027       130542.94     -807633.2      -9582.7925      0.36196642     0.056574581    29.972263      3278.3939    
      1520   3.04           327.0536       133131.71     -807631.68     -9681.0482      0.36194472     0.057158085    30.015874      3278.0799    
      1530   3.06           307.19663      137878.22     -807625.19     -9796.6024      0.36192289     0.057843821    30.021312      3277.7618    
      1540   3.08           308.17034      138719.3      -807623.13     -9867.6666      0.36190091     0.058266956    30.004345      3277.4555    
      1550   3.1            312.8715       138693.3      -807623.34     -9879.7934      0.36187879     0.058342129    29.989784      3277.1591    
      1560   3.12           304.8196       134291.2      -807627.84     -9699.2389      0.36185653     0.057279443    30.015667      3276.8442    
      1570   3.14           322.17695      130993        -807636.49     -9496.8221      0.36183412     0.056087531    30.024787      3276.5227    
      1580   3.16           299.8816       128023.76     -807636.13     -9409.0627      0.36181157     0.055572694    29.928928      3276.2674    
      1590   3.18           311.45447      129035.36     -807635.54     -9479.7466      0.36178888     0.055993685    29.971974      3275.9815    
      1600   3.2            316.60186      130136.63     -807635.14     -9514.7601      0.36176605     0.056204045    29.982361      3275.6879    
      1610   3.22           309.05416      135288.41     -807628.92     -9677.7727      0.36174307     0.057170598    30.014962      3275.3716    
      1620   3.24           319.22038      137506.87     -807626.36     -9806.7457      0.36171995     0.057936197    30.002383      3275.0636    
      1630   3.26           308.177        140129.29     -807621.37     -9916.2896      0.36169669     0.058587127    29.99454       3274.7605    
      1640   3.28           309.37055      138192.23     -807624.73     -9814.1224      0.36167329     0.057987258    29.969691      3274.4737    
      1650   3.3            323.24379      133379.62     -807632.12     -9637.6344      0.36164974     0.056948177    29.962924      3274.1908    
      1660   3.32           304.12344      130043.46     -807633.17     -9518.1091      0.36162605     0.056245594    29.985865      3273.8921    
      1670   3.34           311.23966      127607.05     -807636.85     -9432.0725      0.36160222     0.055740849    29.981168      3273.5962    
      1680   3.36           309.64386      129064.45     -807635.85     -9455.6339      0.36157824     0.055883796    30.022432      3273.2729    
      1690   3.38           305.24202      130295.3      -807633.52     -9511.4434      0.36155413     0.056217386    30.026065      3272.9472    
      1700   3.4            313.89239      136540.54     -807627.55     -9739.4655      0.36152987     0.057568973    30.017001      3272.6272    
      1710   3.42           309.41496      137601.11     -807623.82     -9843.2715      0.36150546     0.058186487    29.96182       3272.3423    
      1720   3.44           309.1594       140230.31     -807622.5      -9881.2786      0.36148092     0.058415125    30.00864       3272.0271    
      1730   3.46           313.96979      135078.33     -807628.15     -9726.0154      0.36145623     0.057501183    30.051134      3271.6849    
      1740   3.48           311.85094      134226.77     -807629.45     -9673.1442      0.3614314      0.057192532    30.061311      3271.3364    
      1750   3.5            306.27669      129080.79     -807634.62     -9485.4096      0.36140643     0.056086425    30.011401      3271.0193    
      1760   3.52           309.1239       129254.59     -807636.57     -9434.5317      0.36138131     0.055789465    30.055146      3270.6748    
      1770   3.54           302.86209      127702.98     -807637.17     -9390.7628      0.36135605     0.055534527    30.042439      3270.3383    
      1780   3.56           320.94373      132386.05     -807633.41     -9593.7959      0.36133065     0.0567392      30.046095      3269.9996    
      1790   3.58           309.00228      134504.5      -807628.08     -9720.1053      0.36130511     0.057490277    30.000762      3269.6885    
      1800   3.6            310.22673      139145.34     -807625.4      -9814.057       0.36127942     0.058050089    29.919578      3269.4266    
      1810   3.62           311.91184      136937.79     -807627.19     -9774.7864      0.3612536      0.057821937    29.936337      3269.1537    
      1820   3.64           302.0703       137901.96     -807625.62     -9786.4471      0.36122763     0.057895077    29.958936      3268.8665    
      1830   3.66           298.74077      133321.93     -807630.29     -9633.1993      0.36120151     0.056992607    29.943925      3268.5878    
      1840   3.68           301.36695      130233.36     -807635.75     -9475.4119      0.36117526     0.05606317     29.927589      3268.3183    
      1850   3.7            292.45833      128282.13     -807636.6      -9416.3293      0.36114886     0.055717667    29.958986      3268.0294    
      1860   3.72           300.83672      129584.75     -807635.51     -9496.9938      0.36112232     0.0561991      29.985199      3267.7247    
      1870   3.74           300.22081      132396.64     -807631.79     -9621.6314      0.36109564     0.056940859    29.963005      3267.4326    
      1880   3.76           302.07736      135547.86     -807629.41     -9709.9921      0.36106881     0.057468047    29.941376      3267.1527    
      1890   3.78           301.07762      137396.67     -807627.1      -9784.2581      0.36104184     0.057911911    29.995023      3266.8412    
      1900   3.8            305.92995      137451.69     -807626.95     -9815.874       0.36101474     0.058103405    29.995746      3266.529     
      1910   3.82           299.46115      135639.05     -807628.69     -9734.3118      0.36098748     0.057624962    30.049608      3266.186     
      1920   3.84           293.87256      131441.7      -807633.93     -9542.2075      0.36096009     0.056492034    30.079259      3265.8262    
      1930   3.86           305.77479      129153.37     -807638.2      -9457.3856      0.36093255     0.055994141    30.055259      3265.4803    
      1940   3.88           296.49557      128378.64     -807637.09     -9453.0214      0.36090487     0.055972594    30.05596       3265.1341    
      1950   3.9            295.52578      130880.12     -807634.48     -9530.8347      0.36087705     0.056437687    30.036162      3264.799     
      1960   3.92           289.58355      132943.62     -807631.64     -9593.9611      0.36084909     0.056815899    30.01977       3264.4731    
      1970   3.94           305.45878      137121.64     -807629.28     -9735.8312      0.36082098     0.057660551    29.999662      3264.1582    
      1980   3.96           293.41709      137578.45     -807624.96     -9818.7526      0.36079273     0.058156208    30.01931       3263.8324    
      1990   3.98           308.14265      137165.76     -807627.04     -9809.3814      0.36076434     0.058105274    30.033591      3263.4986    
      2000   4              300.31087      133489.23     -807631.97     -9609.9557      0.36073581     0.056928491    30.027671      3263.1681    
      2010   4.02           305.85979      131799.72     -807635.32     -297.40365      0.36070713     0.056381819    30.086559      3262.8057    
      2020   4.04           302.15685      127985.41     -807636.34     -295.6467       0.36067831     0.056053214    30.133186      3262.4188    
      2030   4.06           300.4576       128745.42     -807636.06     -295.36861      0.36064935     0.056004986    30.112159      3262.0435    
      2040   4.08           311.00076      129630.89     -807637.25     -295.38         0.36062025     0.056011666    30.077262      3261.6872    
      2050   4.1            298.96199      134369.92     -807629.03     -301.65955      0.36059101     0.057207069    30.066481      3261.3368    
      2060   4.12           308.73008      136618.77     -807626.21     -305.61647      0.36056162     0.057962188    30.021948      3261.01      
      2070   4.14           300.16306      139451.82     -807623.76     -306.54778      0.36053209     0.058143579    30.019902      3260.6843    
      2080   4.16           322.57946      135525.01     -807629.45     -303.70406      0.36050242     0.057608946    30.030612      3260.3529    
      2090   4.18           314.4618       134379.71     -807630.3      -301.39376      0.36047261     0.057175439    30.047552      3260.0126    
      2100   4.2            302.26797      131273.45     -807631.96     -297.88315      0.36044265     0.056514159    30.09175       3259.6497    
      2110   4.22           309.94631      128873.26     -807636.8      -293.86619      0.36041256     0.05575672     30.081041      3259.2925    
      2120   4.24           307.93652      128775.54     -807637.01     -293.14344      0.36038232     0.055624257    30.063255      3258.9447    
      2130   4.26           307.58338      130632.62     -807633.24     -296.75213      0.36035193     0.056313757    30.07205       3258.5925    
      2140   4.28           318.63727      135278.43     -807628.99     -302.44479      0.36032141     0.057398897    30.064183      3258.2445    
      2150   4.3            315.80639      136962.3      -807626.32     -304.61936      0.36029075     0.057816515    30.055594      3257.901     
      2160   4.32           318.49041      138766.77     -807625.97     -305.14978      0.36025994     0.057922141    30.051084      3257.5598    
      2170   4.34           313.70065      136231.18     -807626.44     -303.98666      0.36022899     0.057706321    30.062472      3257.213     
      2180   4.36           310.58964      134096.06     -807628.15     -301.69276      0.36019789     0.05727581     30.092585      3256.8514    
      2190   4.38           312.65435      129601.49     -807635.04     -295.05427      0.36016666     0.056020362    30.09182       3256.4904    
      2200   4.4            313.73839      129341.55     -807637.24     -292.86615      0.36013528     0.055609761    30.080428      3256.1353    
      2210   4.42           308.28165      128841.34     -807635.3      -294.01006      0.36010377     0.055831854    30.099904      3255.7709    
      2220   4.44           303.84736      133486.59     -807630.25     -298.33307      0.36007211     0.056657765    30.068893      3255.4219    
      2230   4.46           322.44683      133799.99     -807630.62     -300.63133      0.3600403      0.05709928     30.082646      3255.0664    
      2240   4.48           324.41432      137767.24     -807627.36     -304.01496      0.36000836     0.057747061    30.10284       3254.7013    
      2250   4.5            317.9397       137461.35     -807625.58     -304.99113      0.35997627     0.057937646    30.037542      3254.3679    
      2260   4.52           310.29995      137337.42     -807624.71     -304.71374      0.35994404     0.057890135    30.059733      3254.0239    
      2270   4.54           315.53841      132470.65     -807631.41     -298.73387      0.35991167     0.056759173    30.059058      3253.6803    
      2280   4.56           313.26449      130547.79     -807634.6      -295.15608      0.35987916     0.056084462    30.074425      3253.3295    
      2290   4.58           313.12135      128315.77     -807636.24     -293.53348      0.35984651     0.055781202    30.063943      3252.9838    
      2300   4.6            300.6117       130579.53     -807632.28     -295.76694      0.35981371     0.056210758    30.073768      3252.6336    
      2310   4.62           314.4265       131388.24     -807633.5      -296.53116      0.35978077     0.056361157    30.129033      3252.2577    
      2320   4.64           322.36562      135006.55     -807630.08     -301.03938      0.35974769     0.057223288    30.127074      3251.8832    
      2330   4.66           311.48715      137071.78     -807624.91     -304.80887      0.35971447     0.057945166    30.077856      3251.5318    
      2340   4.68           317.63658      138824.95     -807624.21     -306.36425      0.35968111     0.058246251    30.066986      3251.1855    
      2350   4.7            305.47883      134763.53     -807627.46     -301.53376      0.3596476      0.057333213    30.070105      3250.838     
      2360   4.72           321.76282      133446.11     -807633.21     -298.08914      0.35961396     0.056683563    30.069057      3250.4911    
      2370   4.74           303.45929      129981.47     -807633.72     -295.15993      0.35958017     0.056131828    30.088664      3250.1353    
      2380   4.76           309.47739      129132.01     -807635.53     -294.23635      0.35954624     0.055961467    30.085901      3249.781     
      2390   4.78           306.98768      128049.92     -807636.15     -293.46177      0.35951216     0.055819438    30.098113      3249.4214    
      2400   4.8            306.1733       132833.88     -807632.21     -297.4966       0.35947795     0.05659229     30.055625      3249.0811    
      2410   4.82           315.85452      134152.41     -807629.53     -301.80447      0.35944359     0.057417257    30.064334      3248.7369    
      2420   4.84           300.24602      138591.42     -807623.89     -305.47182      0.35940909     0.058120536    30.105233      3248.3747    
      2430   4.86           301.96757      136556.09     -807626.57     -303.27863      0.35937446     0.057708811    30.065881      3248.0301    
      2440   4.88           305.45766      135347.04     -807628.91     -301.61621      0.35933967     0.057398035    30.100594      3247.6703    
      2450   4.9            305.63193      132128.15     -807631.98     -298.83059      0.35930475     0.056873455    30.090106      3247.3153    
      2460   4.92           298.64924      129371.49     -807634.76     -295.36895      0.35926969     0.056220122    30.047016      3246.9795    
      2470   4.94           297.48287      129560.44     -807636.51     -293.58062      0.35923448     0.05588521     30.079587      3246.6294    
      2480   4.96           293.39481      129292.41     -807635.59     -294.17364      0.35919913     0.056003606    30.062598      3246.2868    
      2490   4.98           305.38255      133492.06     -807631.57     -300.01401      0.35916364     0.057121116    30.047722      3245.9508    
      2500   5              299.98626      133378.33     -807629.74     -301.30213      0.35912801     0.05737206     30.057064      3245.6107    
[...]
     98740   197.48         311.39926      135813.73     -807626.12     -9718.052       0.36236891     0.057309395    26.659258      42.944261    
     98750   197.5          316.04545      134582.31     -807628.3      -9672.6281      0.36238762     0.057038577    26.696747      42.603861    
     98760   197.52         319.08249      137777.69     -807626.49     -9745.1408      0.36240618     0.057463235    26.685681      42.263456    
     98770   197.54         325.45313      134611.07     -807628.24     -9723.3226      0.36242459     0.057331668    26.707095      41.92304     
     98780   197.56         319.45496      135402.77     -807627.08     -9735.0914      0.36244287     0.057398166    26.702502      41.582618    
     98790   197.58         319.59061      133338.4      -807631.04     -9617.4083      0.362461       0.056701469    26.750804      41.242181    
     98800   197.6          318.34524      133010.76     -807632.08     -9586.4837      0.36247899     0.056516342    26.709152      40.901744    
     98810   197.62         319.07966      132433.9      -807631.7      -9609.053       0.36249683     0.056646609    26.72973       40.561297    
     98820   197.64         313.35975      132901.85     -807629.11     -9676.721       0.36251453     0.057042735    26.715616      40.220845    
     98830   197.66         315.7592       134564.23     -807630.01     -9668.1365      0.36253209     0.05698937     26.725743      39.880385    
     98840   197.68         316.84645      134296.97     -807629.9      -9687.3955      0.36254951     0.05710015     26.743399      39.539915    
     98850   197.7          316.94664      135164.22     -807627.61     -9772.3269      0.36256678     0.057598014    26.740987      39.199439    
     98860   197.72         307.46484      135007.42     -807627.61     -9740.2815      0.36258391     0.057406427    26.738575      38.858956    
     98870   197.74         304.78779      134843.77     -807629.43     -9677.0107      0.3626009      0.057030855    26.7429        38.518466    
     98880   197.76         309.4623       132580.12     -807632.18     -9620.1437      0.36261774     0.056693079    26.716752      38.177973    
     98890   197.78         310.61781      133728.1      -807630.44     -9684.2464      0.36263445     0.057068219    26.705565      37.837475    
     98900   197.8          310.3524       131273.91     -807632        -9642.32        0.362651       0.056818556    26.706776      37.49697     
     98910   197.82         311.14182      133804.13     -807632.02     -9645.9951      0.36266742     0.05683764     26.692691      37.156461    
     98920   197.84         315.69775      132677.74     -807632.48     -9657.4279      0.36268369     0.056902453    26.716279      36.815941    
     98930   197.86         311.83886      135081.75     -807628.2      -9780.6411      0.36269982     0.057625874    26.72523       36.475412    
     98940   197.88         302.1502       134427.18     -807628.76     -9723.9526      0.36271581     0.05728935     26.720048      36.134878    
     98950   197.9          300.40838      135230.16     -807629.37     -9695.613       0.36273165     0.05711989     26.704828      35.794339    
     98960   197.92         299.30133      133743.12     -807629.83     -9679.8715      0.36274735     0.057024684    26.712545      35.453792    
     98970   197.94         306.14554      134780.64     -807629.46     -9723.4325      0.36276291     0.057278848    26.676762      35.113244    
     98980   197.96         312.29178      131907.03     -807633.73     -9615.6792      0.36277832     0.056641687    26.688755      34.772687    
     98990   197.98         310.6694       134216.19     -807633.02     -9629.4298      0.36279359     0.056720298    26.686581      34.432123    
     99000   198            297.11349      133375.69     -807630.96     -9638.2936      0.36280872     0.056770141    26.709097      34.091549    
     99010   198.02         313.59684      134075.26     -807630.06     -304.35764      0.3628237      0.057363557    26.80744       33.750955    
     99020   198.04         307.1508       133927.06     -807630.01     -303.57699      0.36283855     0.057214083    26.789017      33.410356    
     99030   198.06         302.98002      135213.08     -807628.78     -304.11988      0.36285324     0.057314079    26.836687      33.069745    
     99040   198.08         303.8688       134773.53     -807629.28     -303.76699      0.3628678      0.057245278    26.831065      32.729128    
     99050   198.1          310.36109      134119.07     -807630.06     -303.86981      0.36288221     0.05726238     26.81946       32.388506    
     99060   198.12         317.72813      133802.06     -807631.92     -302.94705      0.36289648     0.057086246    26.803977      32.047879    
     99070   198.14         304.66135      132658.28     -807632.36     -300.66528      0.36291061     0.056654073    26.789077      31.707248    
     99080   198.16         316.06688      133715.43     -807633.24     -301.28538      0.36292459     0.05676873     26.759863      31.366614    
     99090   198.18         304.81207      132863.25     -807630.47     -302.50976      0.36293843     0.056997256    26.807866      31.025967    
     99100   198.2          306.32909      135462.04     -807628.92     -304.1108       0.36295213     0.057296753    26.809648      30.685313    
     99110   198.22         296.88594      133762.18     -807629.49     -302.23515      0.36296568     0.05694124     26.806832      30.344654    
     99120   198.24         314.9802       135960.38     -807628.91     -305.12051      0.36297909     0.05748272     26.758203      30.003993    
     99130   198.26         311.13034      134004.67     -807628.91     -304.53784      0.36299236     0.057370851    26.790646      29.663322    
     99140   198.28         306.32123      135130.75     -807628.16     -304.40941      0.36300548     0.057344584    26.789133      29.322645    
     99150   198.3          317.45074      132181.81     -807633.49     -300.45886      0.36301846     0.056598356    26.790516      28.981961    
     99160   198.32         312.25365      133655.51     -807630.21     -302.86997      0.3630313      0.057050527    26.806155      28.641269    
     99170   198.34         312.8017       132575.98     -807630.33     -302.73434      0.36304399     0.057022984    26.831859      28.300567    
     99180   198.36         304.52971      134157.67     -807629.09     -302.59769      0.36305655     0.056995275    26.838287      27.959858    
     99190   198.38         310.86818      134303.21     -807630.05     -302.37108      0.36306895     0.056950647    26.817049      27.619144    
     99200   198.4          311.85799      135225.39     -807626.96     -305.42059      0.36308122     0.057523068    26.826209      27.278424    
     99210   198.42         315.34864      135880.63     -807626.76     -305.88332      0.36309334     0.057608296    26.772728      26.937702    
     99220   198.44         313.37434      135034.72     -807628.6      -303.51134      0.36310532     0.057159686    26.734421      26.596979    
     99230   198.46         320.0832       134463.53     -807630.33     -302.46292      0.36311715     0.056960381    26.740143      26.256248    
     99240   198.48         324.21977      133391.05     -807630.99     -302.14573      0.36312885     0.056898816    26.781812      25.915506    
     99250   198.5          320.17394      132978.24     -807629.65     -302.61386      0.3631404      0.05698516     26.77799       25.574757    
     99260   198.52         313.27499      132944.87     -807630.78     -300.24652      0.3631518      0.056537591    26.776538      25.234003    
     99270   198.54         315.7255       134619.17     -807630.01     -301.0697       0.36316306     0.05669084     26.808142      24.893238    
     99280   198.56         324.18628      133841.73     -807627.74     -304.33684      0.36317418     0.057304283    26.839474      24.552464    
     99290   198.58         330.22717      135895.91     -807627.13     -305.52513      0.36318516     0.057526289    26.836305      24.211684    
     99300   198.6          325.79504      134620.46     -807628.4      -303.51218      0.36319599     0.057145574    26.797836      23.870901    
     99310   198.62         311.89511      136933.94     -807626.06     -303.76204      0.36320668     0.057190934    26.777194      23.530113    
     99320   198.64         323.57546      134338.5      -807627.74     -303.70614      0.36321723     0.05717875     26.789609      23.189318    
     99330   198.66         323.37777      134892.85     -807627.13     -304.19362      0.36322763     0.057268886    26.806852      22.848515    
     99340   198.68         320.72616      131716.11     -807630.57     -300.39856      0.36323789     0.056552813    26.797551      22.507705    
     99350   198.7          321.93744      133933.43     -807630.06     -301.01407      0.36324801     0.056667111    26.825475      22.166887    
     99360   198.72         325.70422      133376.73     -807629.07     -302.67759      0.36325798     0.056978712    26.81483       21.826064    
     99370   198.74         321.61655      135622.21     -807626.51     -304.7252       0.36326781     0.057362619    26.795956      21.485235    
     99380   198.76         322.64524      133863.15     -807629.28     -302.31836      0.3632775      0.05690803     26.748885      21.144405    
     99390   198.78         318.88311      136601.56     -807626.97     -304.25624      0.36328704     0.057271308    26.749745      20.803567    
     99400   198.8          313.77248      135213.83     -807626.03     -304.85937      0.36329644     0.057383353    26.757008      20.462722    
     99410   198.82         324.71998      135662.64     -807628.24     -304.48148      0.3633057      0.057310762    26.772487      20.12187     
     99420   198.84         324.37321      132516.15     -807631.8      -301.33873      0.36331481     0.056717799    26.795494      19.781009    
     99430   198.86         315.60546      132939.78     -807631.39     -301.04114      0.36332378     0.056660388    26.832221      19.440138    
     99440   198.88         321.40385      132402.71     -807630.97     -302.86183      0.36333261     0.057001684    26.823525      19.099262    
     99450   198.9          300.13348      133946.67     -807627.83     -303.48575      0.36334129     0.057117746    26.798388      18.758381    
     99460   198.92         307.98552      133767.77     -807630.85     -301.99122      0.36334983     0.056835131    26.809076      18.417493    
     99470   198.94         301.79048      135446.87     -807627.94     -304.30082      0.36335823     0.057268477    26.788586      18.0766      
     99480   198.96         301.09756      135876.77     -807626.77     -305.62802      0.36336648     0.057516947    26.772232      17.735702    
     99490   198.98         312.66         134689.89     -807629.09     -305.0587       0.3633746      0.057408522    26.821515      17.394794    
     99500   199            313.14234      132675.36     -807631.96     -302.36888      0.36338256     0.056901082    26.816206      17.053879    
     99510   199.02         313.16086      132895.42     -807632.38     -9665.5192      0.36339039     0.056839375    26.733947      16.712964    
     99520   199.04         307.34424      133273.36     -807631.37     -9675.5828      0.36339807     0.056897352    26.737771      16.372042    
     99530   199.06         306.08778      132658.97     -807631.59     -9665.3473      0.3634056      0.056835984    26.7634        16.031111    
     99540   199.08         308.82749      132699.85     -807633.67     -9612.1784      0.363413       0.05652218     26.786045      15.690173    
     99550   199.1          307.99362      133687.8      -807630.92     -9700.0183      0.36342025     0.057037564    26.789794      15.349228    
     99560   199.12         312.8487       134511.4      -807628.1      -9813.2742      0.36342736     0.057702397    26.797049      15.008276    
     99570   199.14         294.88141      135429.55     -807626.96     -9768.902       0.36343432     0.057440387    26.786356      14.667318    
     99580   199.16         302.78723      135197.92     -807630.06     -9706.0566      0.36344114     0.057069789    26.723603      14.326357    
     99590   199.18         312.29379      133962.08     -807630.7      -9730.0268      0.36344782     0.057209679    26.738825      13.985388    
     99600   199.2          309.22089      133161.4      -807629.93     -9740.3911      0.36345435     0.057269588    26.789859      13.644411    
     99610   199.22         304.1851       131847.45     -807631.87     -9653.989       0.36346074     0.05676058     26.730623      13.303429    
     99620   199.24         296.81733      132515.47     -807633.01     -9582.5005      0.36346699     0.056339296    26.712276      12.962443    
     99630   199.26         308.52692      132349.39     -807632.23     -9661.6574      0.3634731      0.056803736    26.734152      12.621448    
     99640   199.28         314.60381      133718.32     -807630.06     -9756.9033      0.36347906     0.057362774    26.788035      12.280444    
     99650   199.3          302.75665      134591.59     -807628.81     -9742.6603      0.36348487     0.05727812     26.74951       11.939436    
     99660   199.32         299.06153      135597.25     -807628.87     -9721.0137      0.36349055     0.057149965    26.711534      11.598422    
     99670   199.34         315.17793      135209.53     -807629.59     -9769.4642      0.36349608     0.057433933    26.715416      11.257402    
     99680   199.36         316.85438      136070.35     -807627.77     -9833.3087      0.36350147     0.057808413    26.717241      10.916375    
     99690   199.38         305.34353      133786.72     -807630.81     -9682.6307      0.36350671     0.05692178     26.726008      10.575341    
     99700   199.4          314.13694      132779.61     -807634.11     -9611.4565      0.36351181     0.056502572    26.735365      10.2343      
     99710   199.42         307.38704      132033.99     -807632.33     -9638.6497      0.36351677     0.056661659    26.759863      9.8932514    
     99720   199.44         304.62065      133532.46     -807629.34     -9719.2638      0.36352158     0.0571348      26.770705      9.5521958    
     99730   199.46         308.00942      134256.93     -807630.12     -9704.926       0.36352625     0.057049782    26.739009      9.2111348    
     99740   199.48         298.27525      134623.23     -807628.72     -9703.1406      0.36353078     0.057038576    26.709222      8.8700683    
     99750   199.5          305.56077      135849.15     -807627.05     -9785.479       0.36353516     0.057521898    26.713512      8.528995     
     99760   199.52         311.56486      135354.18     -807627.03     -9810.5004      0.3635394      0.057668308    26.768859      8.1879132    
     99770   199.54         316.56568      134610.97     -807629.66     -9741.9631      0.3635435      0.057264785    26.733358      7.846826     
     99780   199.56         319.27954      132614.66     -807633.15     -9637.6017      0.36354745     0.056650716    26.714554      7.5057328    
     99790   199.58         307.44062      133293.29     -807630.07     -9679.7244      0.36355126     0.056897721    26.694676      7.1646335    
     99800   199.6          305.91084      133303.58     -807628.5      -9719.8013      0.36355493     0.057132719    26.717301      6.8235268    
     99810   199.62         315.57285      133427.75     -807631.13     -9676.1974      0.36355845     0.056875865    26.705949      6.4824138    
     99820   199.64         311.47827      134087.78     -807629.54     -9702.7937      0.36356183     0.057031665    26.735999      6.1412934    
     99830   199.66         307.00062      136215.58     -807625.5      -9807.5819      0.36356507     0.057647082    26.765786      5.8001656    
     99840   199.68         311.80647      135609.98     -807626.05     -9809.2928      0.36356816     0.057656648    26.769875      5.4590313    
     99850   199.7          323.09759      134988.39     -807629        -9758.1563      0.36357111     0.057355615    26.712042      5.1178917    
     99860   199.72         321.79838      133479.21     -807631.39     -9673.5108      0.36357392     0.056857654    26.777454      4.7767441    
     99870   199.74         319.38241      133583.27     -807630.54     -9687.8505      0.36357658     0.056941521    26.792195      4.4355898    
     99880   199.76         311.0972       132753.24     -807629.25     -9690.6738      0.3635791      0.05695772     26.780399      4.0944293    
     99890   199.78         311.84701      132607.06     -807631.27     -9626.9717      0.36358148     0.056582936    26.74841       3.7532628    
     99900   199.8          315.26125      134411.62     -807630.53     -9663.6497      0.36358371     0.056798164    26.689173      3.4120906    
     99910   199.82         311.19272      134879.18     -807626.35     -9781.1733      0.3635858      0.057488579    26.69605       3.0709116    
     99920   199.84         312.70454      137091.47     -807625.58     -9810.0821      0.36358775     0.057658181    26.796502      2.7297248    
     99930   199.86         321.2403       134507.06     -807629.51     -9723.5052      0.36358955     0.057149048    26.793133      2.3885316    
     99940   199.88         313.86749      135527.55     -807627.6      -9751.6259      0.36359121     0.057314063    26.734666      2.0473325    
     99950   199.9          320.8862       132982.87     -807629.18     -9735.1504      0.36359273     0.057216991    26.730378      1.7061269    
     99960   199.92         314.7013       133996.62     -807629.39     -9701.1124      0.3635941      0.057016722    26.7212        1.3649147    
     99970   199.94         318.18737      131083.44     -807633.51     -9588.6144      0.36359533     0.056355343    26.73789       1.0236959    
     99980   199.96         303.87767      134403.57     -807628.26     -9695.8555      0.36359641     0.056985463    26.755056      0.68247043   
     99990   199.98         314.45456      133066.32     -807629.15     -9722.664       0.36359736     0.057142877    26.759882      0.34123846   
    100000   200            310.9177       136477.38     -807626.73     -9787.4031      0.36359816     0.05752324     26.756031      0            
Loop time of 3412.42 on 32 procs for 100000 steps with 1080 atoms

Performance: 5.064 ns/day, 4.739 hours/ns, 29.305 timesteps/s, 31.649 katom-step/s
62.0% CPU use with 32 MPI tasks x 1 OpenMP threads

MPI task timing breakdown:
Section |  min time  |  avg time  |  max time  |%varavg| %total
---------------------------------------------------------------
Pair    | 2581.3     | 2795.7     | 3047.8     | 265.5 | 81.93
Neigh   | 0.0016762  | 0.0027211  | 0.016378   |   6.7 |  0.00
Comm    | 291.07     | 543.2      | 757.6      | 602.4 | 15.92
Output  | 2.3212     | 2.3496     | 2.3577     |   0.4 |  0.07
Modify  | 64.782     | 65.098     | 65.484     |   2.0 |  1.91
Other   |            | 6.042      |            |       |  0.18

Nlocal:          33.75 ave          46 max          25 min
Histogram: 2 3 6 5 4 8 1 1 1 1
Nghost:        1022.53 ave        1054 max         994 min
Histogram: 3 3 3 5 4 0 7 2 3 2
Neighs:              0 ave           0 max           0 min
Histogram: 32 0 0 0 0 0 0 0 0 0
FullNghs:      5357.06 ave        7374 max        3896 min
Histogram: 1 3 6 6 4 8 1 1 1 1

Total # of neighbors = 171426
Ave neighs/atom = 158.72778
Neighbor list builds = 4
Dangerous builds = 0

Total wall time: 1:00:14
