
units		metal
atom_style	atomic

read_data ${STRUCTURE}.data
read_data BaTiO3-sc333.data
Reading data file ...
  orthogonal box = (0 0 0) to (11.898253 11.898253 12.912076)
  2 by 4 by 4 MPI processor grid
  reading atoms ...
  135 atoms
  read_data CPU = 0.005 seconds
replicate $L $L $L
replicate 2 $L $L
replicate 2 2 $L
replicate 2 2 2
Replication is creating a 2x2x2 = 8 times larger system...
  orthogonal box = (0 0 0) to (23.796507 23.796507 25.824152)
  2 by 4 by 4 MPI processor grid
  1080 atoms
  replicate CPU = 0.003 seconds

pair_style allegro
pair_coeff	* * ${MODEL}.pth Ba Ti O
pair_coeff	* * BaTiO3-E0.pth Ba Ti O
mass 1 137.3
mass 2 47.9
mass 3 15.9994

timestep 0.002
compute polarization all allegro polarization 3
compute allegro will evaluate the quantity polarization of length 3 (src/compute_allegro.cpp:53)
compute polarizability all allegro polarizability 9
compute allegro will evaluate the quantity polarizability of length 9 (src/compute_allegro.cpp:53)

thermo_style custom pe fmax fnorm spcpu cpuremain

variable efield equal 1e-2*36.36
fix born all addbornforce 0.0 0.0 ${efield}
fix born all addbornforce 0.0 0.0 0.3636

thermo 10
min_style fire
#minimize 0.0 1e-6 100 100
velocity all create ${TEMP} ${SEED} dist gaussian rot yes mom yes
velocity all create 350 ${SEED} dist gaussian rot yes mom yes
velocity all create 350 8956 dist gaussian rot yes mom yes
fix nvt all nvt temp ${TEMP} ${TEMP} $(100*dt)
fix nvt all nvt temp 350 ${TEMP} $(100*dt)
fix nvt all nvt temp 350 350 $(100*dt)
fix nvt all nvt temp 350 350 0.2000000000000000111
run 5000
Neighbor list info ...
  update: every = 1 steps, delay = 0 steps, check = yes
  max neighbors/atom: 2000, page size: 100000
  master list distance cutoff = 8
  ghost atom cutoff = 8
  binsize = 8, bins = 3 3 4
  1 neighbor lists, perpetual/occasional/extra = 1 0 0
  (1) pair allegro/kk, perpetual
      attributes: full, newton on, kokkos_device
      pair build: full/bin/kk/device
      stencil: full/bin/3d
      bin: kk/device
Per MPI rank memory allocation (min/avg/max) = 3.516 | 3.516 | 3.516 Mbytes
    PotEng          Fmax          Fnorm          S/CPU         CPULeft    
-807708.29      1.5955592      37.041824      0              0            
-807643.13      3.3427261      46.537779      2.1546073      2315.9685    
-807633.83      2.6334238      36.694494      25.886197      1251.8538    
-807604.11      3.9971928      39.548641      25.90935       896.83429    
-807602.83      4.2302241      51.033089      25.875615      719.19385    
-807564.44      4.0670884      42.425002      25.854328      612.48651    
-807597.42      3.077262       40.821642      25.906135      541.15566    
-807640.22      3.8575316      37.019857      25.875306      490.12727    
-807680.71      2.5330441      36.126607      25.834484      451.79684    
-807663.78      4.2885572      36.769734      25.865892      421.87262    
-807649.36      3.9573616      36.755174      25.920485      397.81607    
-807656.72      2.6212397      29.842731      25.880432      378.08979    
-807627.85      3.2450991      33.134638      25.858194      361.60035    
-807584.35      3.1986954      40.474281      25.834609      347.60144    
-807564.03      2.8789412      39.928642      25.908905      335.50861    
-807625.69      3.4217247      35.198261      25.887278      324.9871     
-807650.1       3.8428782      32.362585      25.870009      315.7403     
-807660.08      2.9002369      35.329846      25.860179      307.54002    
-807642.2       4.8053243      45.679092      25.909913      300.18807    
-807677.55      3.3974046      37.253865      25.816355      293.60479    
-807640.14      4.7175979      40.988123      25.802379      287.64613    
-807616.13      3.5550533      39.780188      25.906486      282.18252    
-807560.49      4.8028986      46.538987      25.905174      277.18096    
-807600.41      4.133099       50.327611      25.852862      272.59693    
-807606.85      5.5354009      41.080567      25.809677      268.37551    
-807636.35      3.4104437      37.086277      25.91752       264.43018    
-807635.83      6.7195635      46.964261      25.914509      260.75948    
-807677.94      3.582025       38.805105      25.812175      257.35888    
-807659.38      4.3233622      36.787978      25.765523      254.18535    
-807636.96      3.1335262      34.116318      25.858566      251.18123    
-807605.79      4.1228383      35.957271      25.900658      248.34175    
-807605.19      3.7254014      42.471402      25.900349      245.66063    
-807592.82      3.4480882      38.404998      25.792588      243.14654    
-807602.62      2.983449       35.687955      25.913525      240.73572    
-807634.56      3.3662163      32.422963      25.879802      238.4509     
-807669.15      2.5264409      33.729633      25.884897      236.27355    
-807671.65      2.5781847      34.37177       25.807459      234.21065    
-807641.03      4.1097709      39.6348        25.85615       232.22918    
-807643.99      2.8288228      33.312136      25.900143      230.32365    
-807624.16      3.4719642      35.399072      25.906629      228.4949     
-807600.48      3.531571       43.690408      25.836289      226.75037    
-807566.44      3.8640583      42.975202      25.896124      225.06205    
-807617.36      3.2635306      37.313566      25.900274      223.43506    
-807643.98      3.93594        36.126896      25.87636       221.86958    
-807667.7       3.2680078      36.118715      25.823145      220.36595    
-807637.35      4.9473021      47.04974       25.813871      218.91333    
-807661.54      2.812059       37.024243      25.84446       217.50251    
-807642.42      3.7545389      38.172622      25.791621      216.1429     
-807623.56      3.1145054      38.373236      25.836285      214.81747    
-807565.03      4.896172       44.289764      25.846526      213.52893    
-807593.46      3.9461547      45.11031       25.897201      212.26964    
-807615.78      3.7623747      37.945182      25.819662      211.05481    
-807648.34      2.9565816      34.880205      25.853863      209.86739    
-807634.33      5.082829       43.113857      25.895557      208.70492    
-807665.7       3.1735403      36.626288      25.872147      207.5741     
-807660.18      3.4636894      36.522519      25.80838       206.47806    
-807640.72      3.4705665      33.841601      25.847567      205.40268    
-807598.8       3.288817       37.287939      25.875364      204.34822    
-807594.56      3.2854229      39.633672      25.866796      203.31778    
-807599.13      4.0626886      41.615096      25.753744      202.32184    
-807613.79      3.1305401      34.702402      25.835031      201.3372     
-807627.33      3.842017       35.610891      25.859821      200.36948    
-807656.26      3.7175009      35.370753      25.846867      199.42187    
-807667.82      3.4091053      37.521246      25.789354      198.49806    
-807645.06      4.9144752      38.94279       25.805557      197.58932    
-807630.34      3.1341909      35.161265      25.872372      196.68994    
-807612.72      4.0484746      37.350007      25.903554      195.80303    
-807604.32      4.1332216      44.50062       25.829331      194.93824    
-807578.5       3.7226298      41.446653      25.850334      194.08551    
-807605.91      3.1960237      38.197612      25.880719      193.24344    
-807636.07      3.6781186      38.189724      25.868104      192.41555    
-807665.73      3.2448853      38.054749      25.798824      191.60636    
-807646.06      4.7872908      42.68173       25.828898      190.8062     
-807645.84      3.2281561      37.639436      25.861045      190.01454    
-807639.31      4.4288956      37.011444      25.83759       189.23584    
-807626.49      3.3276048      38.538637      25.804887      188.47037    
-807580.01      3.5741981      40.332464      25.852556      187.71086    
-807582.67      3.7197746      41.725457      25.912808      186.95609    
-807618.19      3.3760567      34.608217      25.855011      186.21544    
-807650.6       3.0524841      33.952259      25.882076      185.4816     
-807645.4       3.6690116      37.43178       25.835851      184.76007    
-807650.56      3.5813222      37.914157      25.815393      184.04839    
-807660.22      3.6094099      34.890193      25.827737      183.34368    
-807642.5       3.2456107      34.292752      25.850035      182.64493    
-807604.8       3.7151728      36.941106      25.90466       181.94958    
-807582.03      3.3491055      40.166963      25.883311      181.26306    
-807600.31      3.7561833      41.807503      25.826508      180.58761    
-807621.35      3.5768984      36.244047      25.86012       179.91639    
-807633         3.7289144      36.004883      25.884139      179.24996    
-807644.51      4.7985534      38.80844       25.887682      178.58959    
-807665.48      2.7939766      36.460616      25.829051      177.93929    
-807650.51      3.4307252      36.903196      25.807711      177.29622    
-807630.06      2.743726       34.736022      25.894377      176.65296    
-807603.27      3.6936526      38.555459      25.925795      176.01317    
-807603.75      3.867993       42.357902      25.888159      175.38122    
-807594.35      3.2283341      39.467398      25.840383      174.75748    
-807611.53      2.6230554      36.486358      25.846237      174.1383     
-807630.26      4.2691015      38.136881      25.84606       173.52392    
-807661.05      3.1397208      36.86609       25.827327      172.91534    
-807652.71      4.2206377      38.369724      25.813689      172.31206    
-807644.18      3.0738149      36.186628      25.868118      171.70984    
-807629.97      3.6611844      36.343484      25.884888      171.11089    
-807622.23      3.2673499      37.546329      25.864735      170.51729    
-807591.09      4.2625184      40.271987      25.860082      169.92798    
-807587.08      2.9385379      41.028389      25.889938      169.34086    
-807614.98      3.5718537      36.62385       25.899445      168.75704    
-807647.57      3.325545       35.072644      25.901694      168.17683    
-807652.61      4.2276333      36.653029      25.84161       167.60354    
-807646.3       3.6234701      37.785533      25.824901      167.0346     
-807649.44      3.0726722      34.576132      25.845966      166.46788    
-807641.4       3.2680831      33.365692      25.832835      165.90511    
-807609.69      3.0617092      36.524062      25.818493      165.34627    
-807580.66      4.4033261      40.321689      25.839189      164.78941    
-807598.37      3.7196761      39.114024      25.8439        164.23532    
-807622.91      4.0727817      36.460739      25.820816      163.68534    
-807642.24      3.8935113      35.539589      25.847212      163.13686    
-807640.88      4.2091938      39.466081      25.85736       162.59066    
-807655.4       3.4244686      37.856869      25.797621      162.05011    
-807648.45      3.870501       37.967573      25.813871      161.51137    
-807629.98      3.5988458      35.597928      25.816785      160.97504    
-807595.28      4.5872592      39.462389      25.873442      160.4385     
-807594.97      3.649288       40.829752      25.839693      159.90602    
-807599.37      3.6204661      40.026752      25.804892      159.37755    
-807622.01      3.0252558      34.903805      25.827351      158.85033    
-807630.3       4.0408594      36.568234      25.856519      158.32405    
-807654.29      2.6230329      36.151198      25.774259      157.8037     
-807653.89      3.783616       37.054449      25.775207      157.28542    
-807643.52      3.503407       34.861331      25.777012      156.7691     
-807619.52      3.3746963      36.540184      25.811896      156.25327    
-807612.1       3.1251914      37.877349      25.787337      155.74049    
-807595.87      3.1442301      40.556444      25.781528      155.22988    
-807596.88      3.3549757      39.181388      25.82          154.71951    
-807612.01      3.9328419      37.379932      25.825523      154.21078    
-807644.05      3.991602       35.818072      25.811473      153.70446    
-807652.86      3.0158487      37.041711      25.789218      153.20083    
-807647.27      5.1283241      37.621491      25.786064      152.69904    
-807638.8       4.8565494      36.297006      25.822989      152.19745    
-807630.9       3.9364645      34.856009      25.824778      151.69745    
-807612.45      3.2070387      36.834134      25.780479      151.20083    
-807588.15      4.224592       38.927724      25.792061      150.70532    
-807598.77      4.0578896      37.714519      25.79873       150.2111     
-807626.08      5.2667384      35.021675      25.826101      149.71734    
-807648.31      2.9560577      34.163881      25.874217      149.22327    
-807644.99      3.7198744      37.353609      25.804235      148.73332    
-807651.06      2.9645843      35.556342      25.806634      148.2447     
-807644.33      3.1423283      35.423142      25.803337      147.7576     
-807630.53      2.8920285      34.416162      25.825816      147.27104    
-807598.09      3.1882143      37.700109      25.824214      146.7859     
-807592.95      3.3333779      39.1596        25.831221      146.30182    
-807606.16      3.4110424      38.881792      25.768119      145.82128    
-807628.84      3.2811401      35.743562      25.80923       145.34054    
-807635.67      4.723446       37.043641      25.829026      144.86034    
-807649.41      3.289118       37.156023      25.84819       144.3807     
-807652.71      3.7299329      36.989144      25.832298      143.90283    
-807642.97      2.9188988      35.501997      25.80556       143.42703    
-807617.26      4.0620297      35.616223      25.867102      142.95031    
-807605.25      3.5710905      36.621952      25.871098      142.47462    
-807601.8       3.1192884      38.506741      25.883838      141.99966    
-807606.51      2.9959169      37.193904      25.859642      141.52659    
-807621.74      3.51053        35.399861      25.883833      141.05384    
-807641.51      3.2753083      35.104882      25.855514      140.58306    
-807654.05      3.2378392      36.115063      25.786422      140.11552    
-807647.91      3.3010855      36.441566      25.709174      139.65138    
-807634.87      4.0424849      36.753785      25.791253      139.18561    
-807622.8       2.9539341      36.161621      25.883894      138.71795    
-807607.6       4.087241       38.783536      25.842466      138.25254    
-807595.7       3.8101494      40.178796      25.801552      137.7893     
-807602.99      5.3533917      37.765597      25.833155      137.32602    
-807626.27      3.9369585      35.218092      25.821341      136.864      
-807646.6       3.8538612      35.774949      25.835029      136.40246    
-807647.63      3.5317219      36.910037      25.846114      135.94148    
-807643.57      3.1768987      36.149128      25.861524      135.48092    
-807638.67      3.0218464      35.514069      25.813725      135.02258    
-807624.02      3.0899871      35.260751      25.829287      134.56462    
-807602.58      3.4535451      37.983339      25.803872      134.10819    
-807594.02      3.2676923      39.042711      25.757643      133.65384    
-807610.28      3.2225406      37.730809      25.843334      133.19788    
-807629.5       3.4363709      36.693194      25.837639      132.74284    
-807642.83      3.1715505      36.012141      25.834642      132.28865    
-807642.74      3.5346725      37.926627      25.839132      131.8351     
-807647.53      3.9970901      36.46086       25.821173      131.38276    
-807636.91      3.5279921      36.768682      25.816103      130.93127    
-807617.59      3.4233611      36.773946      25.849109      130.47962    
-807598.63      4.2239373      39.563638      25.875119      130.02801    
-807598.64      3.7556353      39.720601      25.833239      129.57818    
-807613.51      3.1091332      36.664469      25.868369      129.12813    
-807628.66      3.6416955      35.534477      25.902905      128.6779     
-807637.27      4.2941985      36.701924      25.877672      128.22898    
-807648.21      3.4389836      36.98703       25.858353      127.78121    
-807646.15      3.1622344      36.999372      25.784964      127.3359     
-807631.73      3.1406366      35.957127      25.868724      126.88914    
-807613.04      3.2198731      37.558194      25.891935      126.44245    
-807602.72      3.2106394      38.965305      25.847784      125.99745    
-807602.18      4.1617569      40.38146       25.838194      125.55327    
-807611.95      3.241515       36.95658       25.837117      125.10972    
-807626.09      3.5280197      36.692843      25.797242      124.66768    
-807644.45      3.035722       35.879038      25.812645      124.22583    
-807649.47      3.5020059      36.775655      25.839823      123.78391    
-807639.7       3.1314656      37.405756      25.806306      123.34332    
-807628.92      3.0978728      35.944266      25.835543      122.90259    
-807618.94      2.4839757      35.990109      25.801902      122.46316    
-807606.58      3.2016365      38.51718       25.859223      122.02296    
-807599.06      2.8182849      38.323765      25.844422      121.58362    
-807613.89      3.54198        36.888717      25.868791      121.14427    
-807633.26      4.7025444      36.351749      25.863502      120.70554    
-807645.05      3.1899545      36.452031      25.783949      120.26905    
-807643.09      4.4148086      37.584575      25.805948      119.83255    
-807639.23      3.3015841      36.854417      25.796161      119.39673    
-807633.76      3.7059692      35.37642       25.856687      118.9601     
-807617.52      3.1821346      36.842207      25.858877      118.52391    
-807601.24      3.7071017      38.297654      25.856444      118.08823    
-807605.03      3.3764804      37.649167      25.84257       117.65331    
-807619.33      3.6878495      36.316137      25.807045      117.21956    
-807635.73      3.236916       35.627131      25.786377      116.78666    
-807640.52      3.837761       36.434015      25.818842      116.35353    
-807646.37      3.5891992      36.303343      25.814955      115.92091    
-807642.17      4.4386455      36.075657      25.807924      115.48884    
-807630.59      3.2571626      35.227903      25.833427      115.05669    
-807612.6       3.5877878      36.534596      25.853727      114.62455    
-807603.37      3.852278       38.266767      25.871292      114.1925     
-807607.54      2.909809       37.895589      25.87053       113.76087    
-807621.09      4.020716       36.511099      25.847721      113.33008    
-807634.36      3.5160061      35.014742      25.804799      112.90049    
-807641.87      4.3138785      36.874838      25.793698      112.47149    
-807648.31      3.8566946      35.894925      25.802478      112.04269    
-807638.57      5.1108119      37.251388      25.790483      111.61448    
-807625.63      3.6172936      36.52466       25.83463       111.18582    
-807610.89      4.9755399      38.106924      25.877001      110.75677    
-807606.77      3.3479227      39.094772      25.867941      110.32826    
-807606.99      3.2133034      37.702094      25.849121      109.90044    
-807619.3       3.1813693      36.282274      25.800451      109.47383    
-807634.8       3.0954873      36.581532      25.847856      109.04674    
-807643.75      2.9732394      37.843044      25.855828      108.61985    
-807641.29      4.5509797      37.602689      25.851015      108.1934     
-807635.76      3.4919333      36.169668      25.845323      107.76737    
-807624.75      4.6428164      36.668086      25.851286      107.34158    
-807613.28      5.2323561      38.065069      25.869193      106.91582    
-807600.5       3.6478976      38.6056        25.872021      106.49035    
-807608.45      6.1677721      38.166071      25.884785      106.06499    
-807621.36      3.5822701      36.252971      25.812428      105.64114    
-807635.8       4.572302       36.380291      25.780546      105.21811    
-807639.74      3.6452128      37.41285       25.762599      104.79567    
-807641.31      3.5250262      36.523392      25.787993      104.3731     
-807636.03      4.0116319      36.467974      25.811926      103.95043    
-807624.16      3.3495318      36.448711      25.831265      103.52776    
-807609.32      4.2125253      38.243622      25.83952       103.10524    
-807601.25      3.410654       38.945239      25.823112      102.68326    
-807610.88      5.2528802      38.340355      25.817902      102.26165    
-807623.18      3.7810618      37.242313      25.821165      101.84027    
-807634.25      5.218915       37.378503      25.809664      101.41933    
-807641.7       3.6600479      36.49299       25.833091      100.99831    
-807641.36      4.0031765      37.815348      25.804399      100.57798    
-807635.01      3.9575754      35.934647      25.797063      100.15803    
-807621.26      4.9518617      38.070761      25.832551      99.737805    
-807608.47      3.192997       37.687263      25.872217      99.317271    
-807606.76      5.0848118      38.459571      25.858807      98.897196    
-807609.77      3.3476249      37.857584      25.824588      98.47787     
-807625.32      3.4072407      35.747984      25.83098       98.058704    
-807634.68      3.3934282      37.047607      25.848113      97.639545    
-807645.04      3.5524086      36.752872      25.792513      97.221411    
-807640.28      3.2941984      37.258155      25.80925       96.803279    
-807632.98      3.7325678      37.310352      25.786642      96.385694    
-807618.84      3.7508765      36.94124       25.820974      95.967867    
-807610.96      4.458272       38.140611      25.822041      95.550258    
-807605.49      3.1530845      37.798877      25.858074      95.132397    
-807613.24      4.0017631      37.172057      25.801707      94.71552     
-807626.68      3.3247338      35.161513      25.830948      94.298477    
-807637.65      3.3604589      35.972834      25.835781      93.881595    
-807642.58      3.5020277      36.316017      25.804897      93.465337    
-807639.39      3.785927       37.031754      25.818502      93.049117    
-807630.36      3.8169042      36.853586      25.839017      92.632849    
-807621.87      3.2387463      36.852654      25.782268      92.217517    
-807609.58      3.0899165      37.572821      25.81813       91.801935    
-807606.34      4.4244209      38.900225      25.845033      91.386225    
-807615.87      3.0499257      36.589502      25.817794      90.971061    
-807627.41      3.3047547      35.852638      25.783842      90.556518    
-807638.77      5.1053315      36.2117        25.827956      90.14163     
-807640.48      3.4945545      36.950627      25.832751      89.726884    
-807639.42      2.8235252      35.459249      25.845295      89.312189    
-807632.39      3.1823205      34.825145      25.826484      88.897914    
-807620.58      3.3933992      35.873117      25.860157      88.483437    
-807607.52      3.3928905      37.134607      25.835823      88.069442    
-807608.88      4.5311062      36.78673       25.848528      87.655491    
-807617.83      3.8399122      35.902861      25.813354      87.242135    
-807629.76      4.6010355      35.638305      25.845192      86.828599    
-807638.69      3.317896       35.884468      25.829012      86.415433    
-807642.24      4.1673927      35.278234      25.799901      86.002775    
-807639.08      3.1553049      35.247192      25.821382      85.590053    
-807630.66      4.0512578      35.026604      25.865602      85.17702     
-807616.05      3.4548591      36.017993      25.860627      84.764224    
-807607.88      3.7253172      37.098016      25.854313      84.351677    
-807610.26      3.5149174      37.060741      25.859898      83.939246    
-807621.15      2.7012785      35.028509      25.806164      83.527566    
-807631.19      3.2986438      35.73574       25.842703      83.115663    
-807640.06      3.9602205      35.665061      25.807848      82.704297    
-807642.31      3.2593444      35.391109      25.788479      82.293294    
-807636.4       3.5538213      36.372846      25.804267      81.882285    
-807626.46      3.337863       35.7771        25.843515      81.471032    
-807614.19      3.2631033      36.936718      25.812603      81.060256    
-807607.49      3.2723918      37.721533      25.816247      80.6496      
-807609.81      3.1395229      37.475482      25.803337      80.239228    
-807621.67      3.1874753      36.414521      25.818575      79.828857    
-807631.7       3.814628       36.176568      25.838366      79.418444    
-807639.37      3.4212013      36.092506      25.757619      79.008974    
-807639.57      3.4697927      36.028692      25.757754      78.599642    
-807634.72      3.3606787      35.842361      25.792864      78.190111    
-807624.5       2.9567485      36.36185       25.833607      77.780335    
-807613.34      3.3748582      37.332148      25.823059      77.370806    
-807605.16      3.670593       38.440206      25.815228      76.961495    
-807611.47      3.1855664      37.415368      25.825583      76.55223     
-807620.99      3.3433386      36.946418      25.811165      76.14324     
-807630.84      3.2922497      37.04334       25.856923      75.733972    
-807638.89      3.8197402      36.391137      25.80124       75.325351    
-807639.21      3.4175008      36.907151      25.791364      74.916953    
-807633.09      3.3674563      36.108036      25.78423       74.508751    
-807623.7       4.10465        36.893952      25.772961      74.100777    
-807611.9       3.0047815      37.038313      25.780395      73.692864    
-807608.17      3.4188655      37.733825      25.746902      73.28537     
-807611.4       3.8533092      37.093887      25.776306      72.877741    
-807623.47      3.8409085      36.652602      25.792544      72.470098    
-807630.26      4.0369432      37.026771      25.844887      72.062138    
-807640.95      2.8754235      35.850212      25.82454       71.654478    
-807638.3       3.2855988      36.63459       25.806992      71.247091    
-807633.72      2.8946503      35.719495      25.799241      70.839891    
-807624.25      3.7651755      36.071241      25.803337      70.432779    
-807613.11      3.4579312      37.217659      25.810532      70.025728    
-807608.09      3.3581493      37.815927      25.790407      69.61896     
-807613.58      3.0954395      37.603444      25.789166      69.212317    
-807624.47      2.6354613      36.104244      25.820986      68.805539    
-807634.72      3.5494384      36.3871        25.828276      68.398823    
-807638.84      3.0054776      36.493659      25.78944       67.992526    
-807640.03      3.3520537      35.782723      25.794523      67.586302    
-807632.44      3.3100164      35.738587      25.792074      67.180208    
-807622.65      3.0154857      36.253418      25.813236      66.774065    
-807614.28      2.6243338      36.947834      25.842899      66.367813    
-807609.43      2.8800662      36.791528      25.860543      65.961547    
-807617.23      3.3946251      36.877164      25.846916      65.555496    
-807625.43      3.6635213      36.096358      25.817238      65.149775    
-807635.91      3.4978854      35.964489      25.862967      64.743833    
-807636.79      3.2838691      36.865929      25.838632      64.338179    
-807640.23      3.5524429      35.955731      25.810835      63.93283     
-807630.62      3.7876541      35.901796      25.81607       63.52755     
-807623.07      2.8855243      36.119327      25.850108      63.122139    
-807613.73      2.8950913      36.598396      25.863457      62.716745    
-807612.83      3.6747061      37.102435      25.766969      62.312116    
-807615.58      3.26207        36.328022      25.765977      61.90759     
-807625.55      3.0728514      36.237091      25.791164      61.502991    
-807634.38      3.7601846      36.753826      25.787532      61.098512    
-807637.7       3.9733289      36.49968       25.791433      60.694104    
-807637.13      3.6128371      36.464965      25.811789      60.289659    
-807631.22      2.9316012      35.692364      25.839262      59.885135    
-807621.28      3.2282537      35.791208      25.842153      59.480692    
-807613.72      2.9857936      36.799532      25.822034      59.076476    
-807613.95      3.6050308      36.779689      25.798622      58.672501    
-807618         3.4749504      36.364553      25.789761      58.268675    
-807625.42      4.6061303      36.741359      25.790188      57.864936    
-807633.74      3.6899181      37.118097      25.77446       57.461382    
-807637.54      3.2676236      36.777975      25.814874      57.057673    
-807635.47      3.4297236      36.470069      25.829385      56.653968    
-807628.64      4.020426       36.281591      25.844905      56.250265    
-807619.76      3.6024759      36.530001      25.84345       55.846663    
-807613.81      4.3749061      37.28203       25.842731      55.443157    
-807612.98      3.8605741      37.102891      25.80302       55.03997     
-807619.72      3.1073577      36.528086      25.813864      54.636808    
-807627.61      4.3554703      37.536994      25.805715      54.233778    
-807633.2       3.2602661      38.022596      25.794387      53.830896    
-807636.63      3.4279488      37.895795      25.802369      53.428053    
-807633.41      3.3930261      38.094284      25.803857      53.025286    
-807626.99      3.6022636      37.482598      25.818099      52.622524    
-807620.46      3.8452411      37.283787      25.858365      52.219632    
-807612.99      3.0256892      37.062697      25.795986      51.817156    
-807613.01      3.5230502      37.525507      25.776421      51.414862    
-807621.44      3.6717702      36.52172       25.811029      51.012466    
-807629.69      3.2798402      36.158006      25.814761      50.610132    
-807633.7       3.853616       36.907793      25.790225      50.208001    
-807637.18      4.5238314      37.388279      25.83019       49.805748    
-807631.75      4.2776845      37.792417      25.830339      49.403574    
-807626.02      3.4841326      36.118766      25.817326      49.001543    
-807616.19      3.6090152      36.919927      25.80481       48.599651    
-807613.31      3.271361       37.224712      25.791135      48.1979      
-807612.96      3.5823412      38.332484      25.792143      47.796218    
-807622.93      3.685734       37.177718      25.792241      47.394609    
-807630.01      4.263347       37.027633      25.8137        46.992974    
-807636.66      4.1524537      36.786835      25.861859      46.591192    
-807635.95      3.5545011      37.622699      25.813798      46.189706    
-807633.04      3.4683351      36.759148      25.815418      45.788287    
-807623.63      3.0475552      37.480443      25.85802       45.386752    
-807617.09      3.2984245      37.679303      25.794843      44.985569    
-807612.98      3.7949349      37.813984      25.765076      44.584586    
-807614.45      4.206804       38.323365      25.802531      44.183508    
-807622.11      3.4501217      36.819621      25.812984      43.782455    
-807630.14      3.416213       36.748763      25.794824      43.381549    
-807634.43      4.2906277      37.563699      25.816013      42.980621    
-807635.54      3.0213876      37.541777      25.812923      42.579776    
-807631.78      3.7454125      36.818431      25.818671      42.178976    
-807625.15      2.8147608      36.502097      25.827949      41.778206    
-807615.18      4.0666087      37.451732      25.807284      41.377587    
-807613.04      3.1282074      37.321961      25.777271      40.977152    
-807616.33      3.7852839      37.701726      25.840389      40.576536    
-807621.96      3.0824623      37.685247      25.855713      40.17593     
-807630.35      4.1338761      37.470161      25.897765      39.775237    
-807635.13      3.0397724      37.448642      25.883706      39.374667    
-807634.66      3.3487297      37.494151      25.886368      38.97416     
-807630.22      3.4005194      37.730093      25.903424      38.573661    
-807623.4       3.8445882      37.291547      25.86568       38.173368    
-807616.72      3.6813662      37.234869      25.790587      37.773406    
-807612.15      2.9605246      37.81559       25.79785       37.373479    
-807617.59      2.8351039      36.642343      25.81552       36.973552    
-807624.08      3.3023399      36.928441      25.808587      36.57371     
-807630.11      3.0843859      36.434143      25.7614        36.174087    
-807635.94      3.6250722      37.02087       25.824744      35.77431     
-807634.15      3.7133637      37.597292      25.787805      35.374715    
-807629.99      4.0101149      37.149559      25.785195      34.975185    
-807621.35      4.2940686      37.534024      25.795596      34.575679    
-807616.6       3.6828636      37.630729      25.797125      34.176226    
-807611.74      3.4140816      38.357587      25.792083      33.776845    
-807617.71      3.2484077      37.477847      25.830563      33.377403    
-807626.25      2.8538977      36.757826      25.868877      32.977906    
-807632.51      3.8752833      37.1109        25.856614      32.578507    
-807635.74      3.7943839      37.423626      25.828191      32.179251    
-807634.22      3.0284308      36.194569      25.878901      31.779908    
-807628.35      4.2815926      36.244968      25.838496      31.38074     
-807620.83      2.9894187      36.710291      25.820222      30.98168     
-807614.94      3.2147135      36.892556      25.791284      30.582754    
-807614.42      3.0519406      37.186633      25.791326      30.183881    
-807619.57      3.0431115      36.486315      25.82452       29.784973    
-807627.98      3.5089098      36.71663       25.759203      29.38629     
-807634.84      3.1203615      36.428785      25.754649      28.987668    
-807634.55      3.8662514      37.610058      25.831126      28.588901    
-807634.2       3.0220256      36.357095      25.79547       28.190277    
-807628.24      3.1568487      37.145788      25.816893      27.791651    
-807619.71      4.0545519      38.283833      25.770325      27.39319     
-807614.7       3.6480437      37.84014       25.771527      26.994774    
-807613.56      4.4800822      38.770004      25.757428      26.596439    
-807621.72      3.6847018      37.763326      25.787433      26.198082    
-807626.65      3.3813485      37.057951      25.822937      25.799693    
-807634.25      3.3187812      36.670367      25.86526       25.401263    
-807633.5       3.5570337      37.184751      25.823822      25.002977    
-807633.44      3.6023994      36.493585      25.819468      24.60475     
-807629.05      3.5261238      35.856948      25.831327      24.206548    
-807619.86      3.0783815      37.006051      25.853005      23.808352    
-807614.71      3.1055987      37.402909      25.873883      23.410166    
-807615.88      3.860418       37.415564      25.8269        23.012125    
-807622.1       3.5217109      36.683025      25.815483      22.614155    
-807627.38      4.3403995      36.438559      25.814943      22.216234    
-807632.03      3.293155       36.848989      25.822713      21.818346    
-807635.31      4.9706571      36.947062      25.833932      21.420485    
-807631.9       3.3877624      37.275494      25.813691      21.022709    
-807624.17      3.6588759      38.009564      25.807656      20.624989    
-807617.19      3.0744523      37.352511      25.819328      20.227295    
-807613.93      3.377604       39.060332      25.864751      19.829572    
-807614.99      3.6990097      38.453109      25.858501      19.431908    
-807621.28      3.8007917      38.196436      25.792301      19.034398    
-807627.72      4.1146859      37.393487      25.770747      18.636965    
-807631.17      3.6953204      37.382276      25.805005      18.239521    
-807633.94      3.6103986      36.708978      25.793184      17.842138    
-807631.31      3.0958489      37.03812       25.789839      17.444803    
-807623.3       3.5941844      37.459028      25.803498      17.04749     
-807616.79      4.4408041      38.220181      25.806847      16.650215    
-807615.19      3.3514679      37.771635      25.814459      16.252972    
-807616.74      3.7397472      38.39323       25.830241      15.855752    
-807621.71      3.9393809      37.55557       25.794885      15.458621    
-807628.25      4.3071436      37.414518      25.794843      15.06153     
-807632.78      3.4618653      37.397425      25.833098      14.664435    
-807631.88      2.8569422      36.926853      25.862284      14.267348    
-807630.12      3.1081735      36.930169      25.871588      13.870296    
-807622.9       3.4258717      37.490884      25.85886       13.473303    
-807618.82      3.7244795      38.078275      25.78643       13.07643     
-807614.07      3.3072627      39.105788      25.799993      12.679583    
-807617.08      3.0741739      37.869649      25.757665      12.282817    
-807622.91      3.3266874      38.084884      25.80781       11.886039    
-807630.71      3.1098942      36.904801      25.816707      11.489293    
-807633.58      2.9432398      37.018492      25.808154      11.092594    
-807632.67      4.19285        37.514658      25.800286      10.69594     
-807630.22      3.3506828      36.4073        25.80281       10.299323    
-807624.46      4.1979135      37.274951      25.838781      9.9027156    
-807619.45      2.9117249      36.474511      25.821628      9.5061614    
-807616.42      2.9298238      37.213214      25.847907      9.1096272    
-807620.59      2.8153311      35.675664      25.853195      8.7131298    
-807626.77      3.3288507      36.063924      25.819382      8.316695     
-807631.74      2.8706897      36.772282      25.851184      7.9202784    
-807634.48      2.8689614      35.931116      25.863908      7.5238942    
-807632.31      4.1297157      37.277711      25.86146       7.1275517    
-807630.4       3.9020237      36.815353      25.859924      6.7312501    
-807621.68      4.0961643      38.381914      25.843527      6.3349964    
-807619.54      4.4287874      38.480821      25.831889      5.9387863    
-807616.41      3.5126705      38.52864       25.806878      5.5426245    
-807622.03      3.7503012      37.537399      25.799127      5.1465014    
-807627.04      3.3810446      36.922377      25.783248      4.7504191    
-807632.56      4.7235027      36.752048      25.819862      4.3543581    
-807633.64      3.229896       36.445609      25.843079      3.9583257    
-807632.65      3.0267173      36.72876       25.839404      3.5623313    
-807627.76      3.8931443      36.489424      25.850577      3.1663708    
-807621.96      3.1025895      35.718137      25.789907      2.7704602    
-807617.15      3.5352325      37.791871      25.802516      2.3745803    
-807617.23      3.3651823      37.911459      25.810237      1.9787329    
-807621.1       3.8967564      37.811403      25.899946      1.5829085    
-807625.63      4.0625077      38.323185      25.850824      1.1871277    
-807632.09      3.6780024      37.543147      25.859055      0.79138234   
-807633.2       4.4379618      38.119639      25.799819      0.39567495   
-807630.82      3.8026966      37.38566       25.826121      0            
Loop time of 197.829 on 32 procs for 5000 steps with 1080 atoms

Performance: 4.367 ns/day, 5.495 hours/ns, 25.274 timesteps/s, 27.296 katom-step/s
67.3% CPU use with 32 MPI tasks x 1 OpenMP threads

MPI task timing breakdown:
Section |  min time  |  avg time  |  max time  |%varavg| %total
---------------------------------------------------------------
Pair    | 102.19     | 144.95     | 193.57     | 313.0 | 73.27
Neigh   | 0          | 0          | 0          |   0.0 |  0.00
Comm    | 2.0022     | 50.614     | 93.369     | 529.6 | 25.58
Output  | 0.026157   | 0.026672   | 0.027921   |   0.2 |  0.01
Modify  | 1.9182     | 1.9306     | 1.9422     |   0.5 |  0.98
Other   |            | 0.3125     |            |       |  0.16

Nlocal:          33.75 ave          48 max          21 min
Histogram: 8 8 0 0 0 0 0 8 0 8
Nghost:        1106.25 ave        1119 max        1092 min
Histogram: 8 0 8 0 0 0 0 0 8 8
Neighs:              0 ave           0 max           0 min
Histogram: 32 0 0 0 0 0 0 0 0 0
FullNghs:       5494.5 ave        7896 max        3378 min
Histogram: 8 8 0 0 0 0 0 8 0 8

Total # of neighbors = 175824
Ave neighs/atom = 162.8
Neighbor list builds = 0
Dangerous builds = 0

reset_timestep 0


variable interval equal 1000
thermo 10

variable nintervals equal $(v_PERIOD/v_interval)
variable nintervals equal 100
variable efield equal 1e-2*36.36*cos((step/${PERIOD})*2*3.14)
variable efield equal 1e-2*36.36*cos((step/100000)*2*3.14)
fix born all addbornforce 0.0 0.0 v_efield

variable Px equal f_born[1]+c_polarization[1]
variable Py equal f_born[2]+c_polarization[2]
variable Pz equal (f_born[3]+c_polarization[3])/vol
variable pe equal pe

fix aveP all ave/time 1 $(v_interval/2) ${interval} v_efield v_Pz v_pe f_born file Pz.${MODEL}.${STRUCTURE}.${TEMP}.$L.${ITER}
fix aveP all ave/time 1 500 ${interval} v_efield v_Pz v_pe f_born file Pz.${MODEL}.${STRUCTURE}.${TEMP}.$L.${ITER}
fix aveP all ave/time 1 500 1000 v_efield v_Pz v_pe f_born file Pz.${MODEL}.${STRUCTURE}.${TEMP}.$L.${ITER}
fix aveP all ave/time 1 500 1000 v_efield v_Pz v_pe f_born file Pz.BaTiO3-E0.${STRUCTURE}.${TEMP}.$L.${ITER}
fix aveP all ave/time 1 500 1000 v_efield v_Pz v_pe f_born file Pz.BaTiO3-E0.BaTiO3-sc333.${TEMP}.$L.${ITER}
fix aveP all ave/time 1 500 1000 v_efield v_Pz v_pe f_born file Pz.BaTiO3-E0.BaTiO3-sc333.350.$L.${ITER}
fix aveP all ave/time 1 500 1000 v_efield v_Pz v_pe f_born file Pz.BaTiO3-E0.BaTiO3-sc333.350.2.${ITER}
fix aveP all ave/time 1 500 1000 v_efield v_Pz v_pe f_born file Pz.BaTiO3-E0.BaTiO3-sc333.350.2.9

thermo_style custom step time temp press pe f_born v_efield v_Pz spcpu cpuremain

# dump 4a all custom 1000 dump.hyst.${MODEL}.${STRUCTURE}.${TEMP}.$L.${ITER}.bin id type xu yu zu fx fy fz
# dump_modify 4a sort id

fix nvt all nvt temp ${TEMP} ${TEMP} $(100*dt)
fix nvt all nvt temp 350 ${TEMP} $(100*dt)
fix nvt all nvt temp 350 350 $(100*dt)
fix nvt all nvt temp 350 350 0.2000000000000000111

run $(v_PERIOD)
run 100000
WARNING: non-constant efield is experimental, strongly distrust scalar/vector output (src/fix_addbornforce.cpp:193)
Per MPI rank memory allocation (min/avg/max) = 3.516 | 3.516 | 3.516 Mbytes
   Step          Time           Temp          Press          PotEng         f_born        v_efield         v_Pz          S/CPU         CPULeft    
         0   0              344.01173      130879.44     -807630.82     -296.30981      0.3636         0.055727515    0              0            
        10   0.02           348.00941      135261.18     -807625.28     -302.43084      0.36359993     0.056878718    29.362585      3405.3737    
        20   0.04           359.1039       138339.65     -807622.12     -307.19915      0.36359971     0.057775537    29.435389      3400.8121    
        30   0.06           354.11543      141672.42     -807618.2      -310.38788      0.36359935     0.058375306    29.463226      3397.9957    
        40   0.08           349.18365      141199.7      -807617.22     -310.7616       0.36359885     0.058445672    29.44686       3396.8882    
        50   0.1            355.8489       138071.31     -807621.68     -307.2253       0.36359821     0.057780695    29.447569      3396.0731    
        60   0.12           363.82054      132910.97     -807629.95     -300.05642      0.36359742     0.056432547    29.445625      3395.4533    
        70   0.14           342.13902      131429.1      -807631.13     -295.83188      0.36359649     0.055638166    29.449749      3394.8455    
        80   0.16           333.98677      128737.64     -807631.54     -294.34657      0.36359541     0.055358983    29.422215      3394.7018    
        90   0.18           355.8589       131874.94     -807631.65     -297.18288      0.36359419     0.055892607    29.415614      3394.599     
       100   0.2            347.88932      134561.4      -807625.93     -301.94128      0.36359283     0.056787756    29.42603       3394.3292    
       110   0.22           351.15974      141284.2      -807618.74     -309.57616      0.36359132     0.05822393     29.342133      3394.9281    
       120   0.24           342.19507      142557.83     -807615.97     -311.11873      0.36358968     0.058514315    29.385804      3394.9492    
       130   0.26           344.26049      142715.4      -807616.32     -311.00065      0.36358788     0.058492395    29.457201      3394.2815    
       140   0.28           347.82198      137158.4      -807623.09     -304.87919      0.36358595     0.05734139     29.491633      3393.3773    
       150   0.3            350.38152      134259.65     -807626.95     -301.33217      0.36358387     0.056674593    29.518269      3392.345     
       160   0.32           341.18579      128768.95     -807631.52     -295.54512      0.36358165     0.055586504    29.512331      3391.4419    
       170   0.34           346.46556      129635.47     -807633.58     -294.15904      0.36357928     0.055326168    29.427808      3391.1768    
       180   0.36           345.75664      130583.09     -807630.88     -296.94896      0.36357677     0.055851289    29.40616       3391.0421    
       190   0.38           355.04233      136646.99     -807624.62     -304.50139      0.36357412     0.057272196    29.428746      3390.7486    
       200   0.4            348.61466      139423.41     -807620.44     -307.95165      0.36357132     0.057921585    29.401058      3390.6105    
       210   0.42           345.04647      141537.4      -807616.78     -311.07913      0.36356838     0.058510296    29.346559      3390.7528    
       220   0.44           354.99196      140370.54     -807619.88     -309.49657      0.3635653      0.058213128    29.371168      3390.7219    
       230   0.46           342.38442      137571.14     -807621.09     -306.61449      0.36356207     0.05767155     29.386081      3390.5892    
       240   0.48           348.1035       132945.86     -807628.72     -299.78181      0.3635587      0.056386905    29.416001      3390.2953    
       250   0.5            342.89564      128743.33     -807633.08     -294.75166      0.36355519     0.055441303    29.371728      3390.2021    
       260   0.52           341.27674      130621.86     -807631.89     -295.74627      0.36355153     0.055628943    29.33677       3390.2456    
       270   0.54           349.92348      131648.95     -807630.62     -298.44449      0.36354773     0.056137057    29.368704      3390.1237    
       280   0.56           346.84275      138354.86     -807623.22     -305.35702      0.36354379     0.057437919    29.398673      3389.8625    
       290   0.58           345.3422       138712.08     -807621.6      -306.99393      0.3635397      0.057746471    29.442906      3389.4202    
       300   0.6            342.27226      143702.87     -807616.3      -311.78938      0.36353547     0.058649193    29.480175      3388.8421    
       310   0.62           345.55077      138018.49     -807620.06     -308.67628      0.3635311      0.058064302    29.480406      3388.2787    
       320   0.64           346.35875      137961.17     -807623.03     -305.72484      0.36352658     0.057509828    29.485943      3387.7091    
       330   0.66           342.36522      130911.36     -807630.69     -297.61053      0.36352192     0.055984165    29.462911      3387.2338    
       340   0.68           342.85875      131646.07     -807631.4      -296.85403      0.36351712     0.055842595    29.511109      3386.604     
       350   0.7            341.78145      127981.93     -807632.22     -296.06235      0.36351217     0.055694426    29.486556      3386.071     
       360   0.72           341.31431      135400.85     -807626.86     -301.21002      0.36350708     0.056663586    29.449763      3385.6661    
       370   0.74           343.5442       134672.91     -807625.72     -302.82563      0.36350185     0.056968335    29.498836      3385.1127    
       380   0.76           352.59789      142244.72     -807618.29     -311.32851      0.36349647     0.058568785    29.48606       3384.609     
       390   0.78           334.30985      140616.52     -807617.94     -309.31935      0.36349095     0.058191694    29.511476      3384.0393    
       400   0.8            339.01922      141642.02     -807618.76     -308.90126      0.36348529     0.058113945    29.511872      3383.4799    
       410   0.82           347.41756      133350.31     -807627.56     -301.27522      0.36347948     0.056680156    29.470196      3383.0476    
       420   0.84           341.70057      132032.36     -807628.47     -299.37177      0.36347353     0.056322973    29.457531      3382.6544    
       430   0.86           337.15769      128457.72     -807630.92     -296.1934       0.36346744     0.055725938    29.484385      3382.1921    
       440   0.88           348.0557       131248.97     -807632.41     -296.05672      0.3634612      0.055701179    29.468007      3381.778     
       450   0.9            342.93857      133919.82     -807628.3      -299.33623      0.36345482     0.056319186    29.463241      3381.3794    
       460   0.92           355.31612      138122.27     -807622.67     -306.55596      0.3634483      0.057678591    29.422252      3381.0857    
       470   0.94           350.27679      140556.86     -807618.3      -310.02093      0.36344163     0.058331597    29.425191      3380.7829    
       480   0.96           343.29924      141150.73     -807618.21     -308.92396      0.36343482     0.058126287    29.424266      3380.4806    
       490   0.98           349.66457      139320.81     -807621.34     -306.4717       0.36342786     0.057665979    29.459682      3380.0939    
       500   1              356.24229      135895        -807625.29     -303.21819      0.36342077     0.057054911    29.403467      3379.8383    
       510   1.02           349.77755      131796.59     -807628.53     -9560.4598      0.36341353     0.056217979    29.369831      3379.6553    
       520   1.04           354.12937      129060.86     -807633.14     -9424.5481      0.36340614     0.055419909    29.32811       3379.5589    
       530   1.06           349.67057      131862.36     -807630.5      -9482.7895      0.36339862     0.055763546    29.327948      3379.4536    
       540   1.08           355.7345       134801.49     -807626.1      -9646.383       0.36339095     0.056726755    29.339156      3379.3157    
       550   1.1            354.8276       138458.95     -807620.79     -9804.5063      0.36338313     0.057657858    29.377231      3379.0904    
       560   1.12           351.71635      140016.02     -807618.08     -9871.5852      0.36337518     0.058053604    29.303279      3379.0137    
       570   1.14           356.5497       141685.65     -807617.65     -9898.2845      0.36336707     0.058211916    29.283023      3378.9687    
       580   1.16           359.71183      138372.23     -807620.54     -9817.3765      0.36335883     0.057737406    29.375404      3378.7295    
       590   1.18           361.33601      135954.38     -807624.78     -9680.9242      0.36335044     0.056936224    29.403256      3378.4325    
       600   1.2            354.48483      131228.41     -807629.73     -9487.1836      0.36334191     0.055798092    29.34126       3378.2531    
       610   1.22           357.07416      131318.28     -807630.71     -9461.5962      0.36333324     0.05564893     29.372711      3378.009     
       620   1.24           356.95652      130410.04     -807629.04     -9515.6714      0.36332442     0.055968334    29.326302      3377.8481    
       630   1.26           362.14244      135409.52     -807624.65     -9674.3561      0.36331546     0.056903073    29.379407      3377.5843    
       640   1.28           354.46688      137656.12     -807621.51     -9742.4696      0.36330636     0.057305142    29.37306       3377.3295    
       650   1.3            358.6768       142281.75     -807616.7      -9911.5351      0.36329711     0.058301068    29.371397      3377.075     
       660   1.32           362.96017      140802.87     -807618.27     -9881.9516      0.36328772     0.058128556    29.354873      3376.8467    
       670   1.34           359.15839      139557.83     -807620.06     -9806.4141      0.36327819     0.057685737    29.359839      3376.6066    
       680   1.36           362.27519      133475.04     -807627.3      -9589.804       0.36326851     0.056413041    29.297619      3376.4692    
       690   1.38           344.52604      132615.83     -807627.19     -9518.3547      0.36325869     0.055994246    29.299963      3376.3219    
       700   1.4            358.48303      129963.96     -807630.1      -9492.0674      0.36324873     0.055841136    29.31262       3376.1482    
       710   1.42           356.8498       133565.96     -807627.84     -9562.2539      0.36323863     0.056255603    29.393767      3375.838     
       720   1.44           354.54618      135285.89     -807625.52     -9636.0168      0.36322838     0.056691157    29.343888      3375.6068    
       730   1.46           356.29595      139593.05     -807621.44     -9783.8387      0.36321798     0.057562478    29.328291      3375.3972    
       740   1.48           354.10359      139519.04     -807618.92     -9866.2113      0.36320745     0.058048795    29.309841      3375.2128    
       750   1.5            362.04993      138940.83     -807621.16     -9841.1435      0.36319677     0.057903008    29.370783      3374.9306    
       760   1.52           347.24514      136076.9      -807623.42     -9718.2023      0.36318595     0.057181355    29.365873      3374.6543    
       770   1.54           349.38992      134572.91     -807626.99     -9627.1807      0.36317498     0.056647499    29.378954      3374.3567    
       780   1.56           347.18642      131705.88     -807630.26     -9526.2007      0.36316387     0.056055035    29.417543      3374.0012    
       790   1.58           345.11016      131092.46     -807630.78     -9512.0829      0.36315262     0.055973696    29.460403      3373.5841    
       800   1.6            346.87188      132712.54     -807630.18     -9550.1491      0.36314122     0.056199459    29.455506      3373.1759    
       810   1.62           338.84989      135995.23     -807624.89     -9691.0428      0.36312968     0.057030384    29.422754      3372.8157    
       820   1.64           348.73048      137958.78     -807622.89     -9804.8888      0.363118       0.057702208    29.43162       3372.4436    
       830   1.66           334.15241      138541.07     -807620.07     -9834.3923      0.36310618     0.057877722    29.425239      3372.081     
       840   1.68           341.15593      139529.21     -807621.42     -9823.1777      0.36309421     0.057813627    29.419858      3371.7264    
       850   1.7            344.43401      135361.4      -807625.44     -9712.8715      0.3630821      0.057166335    29.366337      3371.4444    
       860   1.72           338.65086      134286.24     -807626.97     -9636.9916      0.36306984     0.056721648    29.385816      3371.1349    
       870   1.74           344.49245      131489.39     -807631.98     -9503.9677      0.36305745     0.055940603    29.398408      3370.8082    
       880   1.76           336.30578      132567.4      -807629.72     -9538.4019      0.3630449      0.056145223    29.377113      3370.5089    
       890   1.78           350.45346      132508.29     -807630.7      -9570.7201      0.36303222     0.056337424    29.316697      3370.2868    
       900   1.8            327.22766      136951.7      -807623.06     -9710.9026      0.36301939     0.057164619    29.279576      3370.1097    
       910   1.82           358.42624      135659.67     -807625.79     -9760.6256      0.36300642     0.057459374    29.336591      3369.8567    
       920   1.84           342.13724      139529.08     -807620.47     -9852.556       0.36299331     0.05800265     29.310048      3369.635     
       930   1.86           357.90146      136448.29     -807624.57     -9790.4456      0.36298005     0.057639107    29.222985      3369.5191    
       940   1.88           344.76017      137101.56     -807624.54     -9725.8114      0.36296665     0.057260701    29.291897      3369.3135    
       950   1.9            343.12454      132423.66     -807629.49     -9557.6859      0.36295311     0.056272961    29.387192      3368.9896    
       960   1.92           340.51534      133230.37     -807628.41     -9572.1231      0.36293942     0.056360089    29.349447      3368.7105    
       970   1.94           337.34954      130791.99     -807629.65     -9516.641       0.36292559     0.056035549    29.322419      3368.4623    
       980   1.96           344.34957      135216.54     -807626.68     -9632.3338      0.36291162     0.056718951    29.304157      3368.2336    
       990   1.98           356.7748       134819.36     -807626.13     -9701.8494      0.3628975      0.057130508    29.38399       3367.9098    
      1000   2              352.8217       139364.27     -807622.31     -9799.152       0.36288325     0.057705754    29.286332      3367.6982    
      1010   2.02           341.68533      139317.44     -807621.15     -305.65707      0.36286884     0.057601301    29.423407      3367.3279    
      1020   2.04           353.70495      137916.77     -807622.76     -305.51676      0.3628543      0.057577165    29.46911       3366.9072    
      1030   2.06           350.04176      134946.35     -807625.39     -302.17341      0.36283961     0.05694939     29.465987      3366.4915    
      1040   2.08           353.93524      134139.94     -807628.28     -299.56508      0.36282478     0.056460115    29.518794      3366.0195    
      1050   2.1            340.88775      131820.89     -807628.39     -297.47319      0.3628098      0.056068163    29.483503      3365.5883    
      1060   2.12           346.9762       132852.17     -807628.73     -297.75132      0.36279469     0.056122924    29.464483      3365.1792    
      1070   2.14           350.88531      134156.18     -807626.77     -300.05763      0.36277943     0.056560018    29.460439      3364.7758    
      1080   2.16           368.64839      136096.27     -807625.16     -303.90785      0.36276402     0.057288207    29.484693      3364.3479    
      1090   2.18           346.53031      138685.76     -807620.45     -305.39538      0.36274848     0.057571082    29.475874      3363.9309    
      1100   2.2            354.20995      139238.96     -807620.54     -306.24749      0.36273279     0.057734212    29.49438       3363.4962    
      1110   2.22           357.22585      139048.23     -807621.84     -305.23068      0.36271695     0.057545033    29.438113      3363.1209    
      1120   2.24           349.92098      136014.71     -807624        -301.93572      0.36270098     0.056926343    29.475388      3362.7084    
      1130   2.26           360.60294      133548.98     -807628.53     -298.74654      0.36268486     0.056327565    29.443797      3362.3289    
      1140   2.28           353.54972      131777.43     -807628.82     -297.42715      0.3626686      0.056081312    29.422391      3361.9717    
      1150   2.3            346.54163      133636.83     -807626.63     -298.55306      0.36265219     0.056296155    29.4543        3361.583     
      1160   2.32           350.75942      133351.95     -807626.67     -299.06037      0.36263564     0.056394388    29.414383      3361.2345    
      1170   2.34           357.28825      137329.77     -807623.05     -303.52746      0.36261895     0.057239391    29.379908      3360.9198    
      1180   2.36           353.94865      138150.16     -807620.74     -305.40644      0.36260212     0.057596405    29.403727      3360.5816    
      1190   2.38           357.01522      140076.27     -807620.05     -306.38213      0.36258514     0.057783115    29.450944      3360.1981    
      1200   2.4            363.51176      136157.34     -807623.7      -303.73451      0.36256802     0.057286483    29.432147      3359.8331    
      1210   2.42           359.43222      135515.33     -807625.02     -301.85428      0.36255076     0.056934569    29.44209       3359.4593    
      1220   2.44           359.88456      132371.85     -807628.28     -298.7199       0.36253335     0.056346079    29.50363       3359.0285    
      1230   2.46           356.73041      132376.48     -807628.52     -298.06195      0.3625158      0.056224696    29.498974      3358.6036    
      1240   2.48           352.18662      133217.73     -807628.07     -297.96368      0.36249811     0.056208901    29.41509       3358.2571    
      1250   2.5            356.27348      135002.81     -807626.15     -300.56316      0.36248028     0.056702066    29.330119      3357.9885    
      1260   2.52           355.24623      136773.04     -807622.77     -303.93675      0.3624623      0.057341347    29.460657      3357.6004    
      1270   2.54           348.62871      138294.72     -807620.35     -305.52533      0.36244418     0.057643934    29.460591      3357.213     
      1280   2.56           358.74821      138297.03     -807622.78     -304.71837      0.36242592     0.05749458     29.447073      3356.8385    
      1290   2.58           351.6307       137122.47     -807622.63     -304.11545      0.36240751     0.057383735    29.425808      3356.4833    
      1300   2.6            345.1889       135459.64     -807624.33     -301.84696      0.36238896     0.056958608    29.483309      3356.0779    
      1310   2.62           345.5248       133243.65     -807627.3      -299.25751      0.36237027     0.056472891    29.455706      3355.6976    
      1320   2.64           348.32185      132269.26     -807630.67     -296.72949      0.36235143     0.05599874     29.426836      3355.3428    
      1330   2.66           344.54118      132582.84     -807629.42     -297.98285      0.36233245     0.056238218    29.418795      3354.995     
      1340   2.68           343.45266      134664.17     -807626.55     -301.20844      0.36231333     0.056849982    29.379697      3354.6807    
      1350   2.7            333.59895      136617.11     -807623.39     -303.50227      0.36229407     0.057285966    29.404627      3354.3449    
      1360   2.72           349.92029      138334.04     -807624.95     -304.56215      0.36227466     0.057489097    29.397328      3354.0152    
      1370   2.74           353.45772      137329.79     -807626.05     -304.33602      0.36225511     0.057449513    29.455451      3353.637     
      1380   2.76           343.31944      137538.07     -807624.33     -304.83079      0.36223542     0.05754604     29.425747      3353.2839    
      1390   2.78           329.19285      134875.22     -807626.46     -300.82775      0.36221558     0.056793453    29.427918      3352.9292    
      1400   2.8            346.53048      132714.41     -807632.23     -297.58276      0.3621956      0.056183929    29.463397      3352.5458    
      1410   2.82           336.52502      131138.27     -807630.96     -297.49347      0.36217548     0.056170192    29.47784       3352.1515    
      1420   2.84           330.09282      133400.53     -807627.53     -299.98168      0.36215522     0.056643163    29.482933      3351.7539    
      1430   2.86           340.44168      134156.5      -807628.44     -300.51492      0.36213481     0.056747048    29.437447      3351.3932    
      1440   2.88           341.89202      136402.54     -807625.62     -303.45276      0.36211426     0.05730506     29.38115       3351.0773    
      1450   2.9            340.30114      137526.57     -807623.58     -305.17748      0.36209357     0.057634057    29.421618      3350.7294    
      1460   2.92           344.46024      137847.78     -807623.38     -305.80763      0.36207273     0.057756385    29.424725      3350.379     
      1470   2.94           333.64897      136032.35     -807624.18     -303.33159      0.36205176     0.057292067    29.479515      3349.9865    
      1480   2.96           341.63685      133662.86     -807628.89     -299.50692      0.36203064     0.05657298     29.484183      3349.5911    
      1490   2.98           342.14356      132065.43     -807630.26     -298.05062      0.36200937     0.05630121     29.520772      3349.1688    
      1500   3              333.30826      132784.96     -807627.77     -299.05488      0.36198796     0.056494253    29.494259      3348.7675    
      1510   3.02           347.83287      133120.69     -807629.6      -9569.6029      0.36196642     0.056496712    29.379739      3348.4532    
      1520   3.04           336.86693      135530.99     -807626.45     -9614.8321      0.36194472     0.056767138    29.361767      3348.1521    
      1530   3.06           354.43526      136818.58     -807625.28     -9719.8334      0.36192289     0.05739054     29.344232      3347.8636    
      1540   3.08           338.70838      137990.79     -807621.03     -9778.384       0.36190091     0.057739757    29.360232      3347.5625    
      1550   3.1            352.56076      136943.23     -807624.39     -9724.5101      0.36187879     0.05742515     29.40418       3347.2286    
      1560   3.12           343.23515      136224.5      -807626.01     -9621.1542      0.36185653     0.056818309    29.414165      3346.8873    
      1570   3.14           343.25877      134820.8      -807625.55     -9629.04        0.36183412     0.0568684      29.401083      3346.5555    
      1580   3.16           356.70982      132579.33     -807628.47     -9586.0197      0.36181157     0.056617853    29.365844      3346.249     
      1590   3.18           344.61452      133022.55     -807628.8      -9514.6208      0.36178888     0.056199675    29.312466      3345.9805    
      1600   3.2            343.96777      134710.77     -807627.25     -9553.894       0.36176605     0.056435211    29.3079        3345.7144    
      1610   3.22           336.92351      135825.63     -807622.9      -9656.7117      0.36174307     0.057046182    29.340979      3345.4238    
      1620   3.24           362.69232      137152.45     -807623.7      -9738.7272      0.36171995     0.057534358    29.429382      3345.0704    
      1630   3.26           353.52677      137768.69     -807623.38     -9702.4426      0.36169669     0.057323683    29.45115       3344.702     
      1640   3.28           356.17018      137909.77     -807623.03     -9718.7121      0.36167329     0.057423521    29.461148      3344.3271    
      1650   3.3            349.41279      136502.03     -807623.76     -9661.3951      0.36164974     0.057088578    29.414286      3343.9848    
      1660   3.32           350.20468      135789.15     -807624.1      -9647.5774      0.36162605     0.057010664    29.39696       3343.6544    
      1670   3.34           355.3609       133736.56     -807629.42     -9498.1618      0.36160222     0.056131418    29.440147      3343.2946    
      1680   3.36           341.71544      134303.31     -807627.19     -9504.0233      0.36157824     0.056169782    29.398867      3342.9628    
      1690   3.38           352.41991      133996.46     -807626.07     -9585.7104      0.36155413     0.056656341    29.397322      3342.632     
      1700   3.4            355.76737      136014.57     -807623.79     -9670.0122      0.36152987     0.057158442    29.375122      3342.316     
      1710   3.42           361.95727      136758.64     -807624.02     -9686.7135      0.36150546     0.057261027    29.38071       3341.996     
      1720   3.44           356.31209      137706.69     -807622.08     -9722.2917      0.36148092     0.057475242    29.374851      3341.6796    
      1730   3.46           360.9451       137576.42     -807622.64     -9722.1272      0.36145623     0.057478196    29.366663      3341.3683    
      1740   3.48           346.79788      135657.64     -807623.3      -9638.4659      0.3614314      0.056987496    29.407194      3341.0302    
      1750   3.5            357.29856      134388.46     -807628.13     -9526.8266      0.36140643     0.05633132     29.353876      3340.7267    
      1760   3.52           352.55691      131998.08     -807629.94     -9448.6015      0.36138131     0.055872664    29.315658      3340.4476    
      1770   3.54           357.63306      133447.3      -807627.84     -9537.0817      0.36135605     0.056399818    29.333724      3340.1562    
      1780   3.56           352.82334      133748.96     -807626.45     -9562.0349      0.36133065     0.056551361    29.356638      3339.8495    
      1790   3.58           356.78229      136937.28     -807624.22     -9648.9486      0.36130511     0.057069416    29.408064      3339.5097    
      1800   3.6            345.7476       137527.75     -807621.46     -9691.1286      0.36127942     0.057322968    29.395385      3339.1779    
      1810   3.62           352.7125       140244.87     -807619.55     -9782.7964      0.3612536      0.05786932     29.43709       3338.82      
      1820   3.64           343.8741       136284.02     -807620.73     -9708.7514      0.36122763     0.057435442    29.440462      3338.4601    
      1830   3.66           361.53845      136770.11     -807626.04     -9615.6702      0.36120151     0.0568889      29.415688      3338.1158    
      1840   3.68           346.04191      133070.81     -807626.96     -9523.117       0.36117526     0.056345426    29.336711      3337.8203    
      1850   3.7            355.61719      134356.85     -807627.14     -9560.202       0.36114886     0.056568981    29.391674      3337.4905    
      1860   3.72           350.47007      131097.26     -807629.8      -9461.6053      0.36112232     0.055989686    29.364164      3337.1775    
      1870   3.74           349.56268      136343.8      -807626.39     -9567.8364      0.36109564     0.0566225      29.343607      3336.8767    
      1880   3.76           345.77047      135011.97     -807624.59     -9620.5655      0.36106881     0.05693878     29.319723      3336.5899    
      1890   3.78           336.86759      140025.14     -807619.03     -9764.8177      0.36104184     0.057796846    29.374236      3336.2697    
      1900   3.8            359.4149       136979.39     -807624.95     -9687.6067      0.36101474     0.057344149    29.383013      3335.944     
      1910   3.82           349.06912      137147.37     -807623.61     -9690.9965      0.36098748     0.057368545    29.388531      3335.6149    
      1920   3.84           359.93825      133575.92     -807628.64     -9592.8646      0.36096009     0.056791935    29.394076      3335.2824    
      1930   3.86           334.64979      133670.65     -807626.16     -9570.1211      0.36093255     0.056661611    29.422863      3334.9329    
      1940   3.88           339.14079      132303.69     -807630.45     -9463.602       0.36090487     0.056035243    29.352805      3334.6246    
      1950   3.9            334.74167      133070.24     -807629.74     -9476.5833      0.36087705     0.056116433    29.359215      3334.3121    
      1960   3.92           344.60911      133848.22     -807627.57     -9596.5011      0.36084909     0.056830941    29.361846      3333.9978    
      1970   3.94           332.08651      136514.33     -807623.86     -9666.4946      0.36082098     0.057249905    29.340078      3333.6959    
      1980   3.96           340.27326      137861.22     -807623.43     -9721.3376      0.36079273     0.057579221    29.326731      3333.4012    
      1990   3.98           343.00638      137130.04     -807625.27     -9677.681       0.36076434     0.057325155    29.326034      3333.1065    
      2000   4              342.9168       137442.5      -807623.93     -9722.2435      0.36073581     0.057593674    29.310822      3332.8199    
      2010   4.02           333.24375      134155.05     -807626.41     -300.08293      0.36070713     0.056889756    29.438246      3332.4608    
      2020   4.04           336.14797      133977.35     -807629.13     -297.62508      0.36067831     0.056428306    29.422972      3332.1105    
      2030   4.06           325.99579      130727.69     -807630.23     -295.11703      0.36064935     0.055957284    29.396453      3331.7751    
      2040   4.08           341.11204      133627.44     -807629.58     -297.80839      0.36062025     0.056472151    29.468315      3331.3998    
      2050   4.1            342.3865       132734.38     -807628.26     -299.31761      0.36059101     0.056762942    29.451253      3331.0342    
      2060   4.12           332.97594      137597.91     -807624.79     -301.2435       0.36056162     0.057132825    29.458687      3330.6648    
      2070   4.14           336.98229      136566.12     -807624.36     -302.11412      0.36053209     0.057302638    29.393201      3330.3315    
      2080   4.16           339.17737      138550.35     -807621.77     -304.80792      0.36050242     0.057818334    29.431838      3329.9771    
      2090   4.18           336.68407      136443.65     -807624.12     -301.95177      0.36047261     0.057281295    29.522275      3329.5741    
      2100   4.2            337.45997      135341.22     -807626.81     -299.0385       0.36044265     0.056733352    29.518301      3329.1738    
      2110   4.22           350.10307      131106.41     -807632.42     -295.04588      0.36041256     0.05598055     29.462567      3328.8038    
      2120   4.24           345.91803      132753.9      -807628.79     -297.78295      0.36038232     0.056504609    29.422258      3328.4556    
      2130   4.26           338.66549      132507.88     -807628.42     -296.95765      0.36035193     0.056352759    29.480735      3328.0765    
      2140   4.28           351.10379      134086.49     -807628.61     -298.18767      0.36032141     0.05659097     29.44536       3327.7164    
      2150   4.3            331.04862      136056.12     -807622.9      -300.91673      0.36029075     0.057113758    29.481973      3327.3372    
      2160   4.32           349.06342      137699.56     -807622.44     -303.6718       0.36025994     0.057641597    29.467794      3326.9659    
      2170   4.34           340.80127      138278.58     -807620.52     -304.21803      0.36022899     0.057750241    29.393985      3326.6332    
      2180   4.36           351.562        134856.52     -807625.94     -300.09073      0.36019789     0.056971667    29.466563      3326.2629    
      2190   4.38           352.61391      134699.39     -807627.24     -298.67571      0.36016666     0.056707945    29.453864      3325.8994    
      2200   4.4            342.6848       132667.82     -807627.83     -296.62738      0.36013528     0.056323946    29.482356      3325.5216    
      2210   4.42           345.72862      132510.34     -807629        -295.65424      0.36010377     0.05614408     29.499576      3325.1353    
      2220   4.44           348.37274      131336.64     -807630.43     -294.50517      0.36007211     0.055930792    29.406324      3324.7968    
      2230   4.46           327.84884      136410.5      -807622.7      -299.25491      0.3600403      0.056837856    29.399091      3324.4619    
      2240   4.48           358.7673       135664.68     -807624.67     -301.52101      0.36000836     0.05727334     29.478544      3324.0871    
      2250   4.5            342.11297      139349.36     -807620.2      -303.46192      0.35997627     0.057647151    29.456342      3323.7236    
      2260   4.52           352.68154      136447.21     -807624.49     -300.67893      0.35994404     0.057123593    29.437912      3323.3695    
      2270   4.54           354.68415      138099.91     -807623.74     -301.51166      0.35991167     0.05728695     29.440088      3323.0145    
      2280   4.56           347.57414      132613.74     -807626.95     -297.32004      0.35987916     0.056495649    29.486578      3322.6366    
      2290   4.58           344.6293       134825.77     -807627.34     -296.31236      0.35984651     0.056309282    29.476501      3322.2641    
      2300   4.6            347.5429       130980.04     -807631.16     -292.90545      0.35981371     0.055666928    29.421298      3321.9188    
      2310   4.62           345.48311      136625.87     -807625.47     -298.10802      0.35978077     0.056660869    29.37951       3321.5941    
      2320   4.64           354.06618      134339.08     -807624.84     -299.98464      0.35974769     0.057022798    29.342903      3321.2871    
      2330   4.66           365.98795      137519.83     -807624.94     -301.39436      0.35971447     0.057296056    29.307652      3320.997     
      2340   4.68           354.34679      137074        -807624.32     -300.43581      0.35968111     0.05711913     29.376496      3320.6731    
      2350   4.7            350.54101      138485.28     -807621.23     -302.89119      0.3596476      0.057591315    29.431918      3320.3224    
      2360   4.72           355.51909      133920.48     -807625.5      -299.2989       0.35961396     0.056913605    29.485722      3319.9462    
      2370   4.74           348.35056      134051.08     -807627.52     -296.12119      0.35958017     0.056314636    29.468712      3319.5783    
      2380   4.76           340.91985      130854.03     -807629.45     -293.15272      0.35954624     0.05575537     29.401548      3319.2425    
      2390   4.78           347.03796      132724.53     -807627.16     -296.17114      0.35951216     0.056334789    29.354958      3318.9286    
      2400   4.8            356.05645      133556.94     -807627        -297.59881      0.35947795     0.056611733    29.382597      3318.6015    
      2410   4.82           352.42075      135599.84     -807624.58     -299.42163      0.35944359     0.056963929    29.369036      3318.2807    
      2420   4.84           354.08487      137319.23     -807623        -301.19105      0.35940909     0.057306056    29.354615      3317.9665    
      2430   4.86           354.35505      138284.1      -807621.48     -302.75875      0.35937446     0.057609887    29.376737      3317.6417    
      2440   4.88           355.96449      138433.57     -807621.79     -302.60283      0.35933967     0.057585791    29.45249       3317.2818    
      2450   4.9            345.35253      134995.93     -807625.32     -297.58678      0.35930475     0.056636733    29.479166      3316.9099    
      2460   4.92           350.72586      134492.74     -807627.88     -295.70065      0.35926969     0.056283257    29.474705      3316.5402    
      2470   4.94           345.58646      131339.75     -807628.84     -294.08914      0.35923448     0.055982011    29.390269      3316.2093    
      2480   4.96           349.32348      133620.72     -807627.39     -295.96982      0.35919913     0.056345556    29.501068      3315.828     
      2490   4.98           346.29533      132424.29     -807627.89     -295.07856      0.35916364     0.056181433    29.499062      3315.448     
      2500   5              351.0739       136951.13     -807624.13     -299.42518      0.35912801     0.057014663    29.433322      3315.0978    
[...]
     98740   197.48         342.12323      134812.11     -807625.92     -9625.3453      0.36236891     0.056762684    29.005655      44.884877    
     98750   197.5          349.60658      134133.98     -807626.09     -9650.2578      0.36238762     0.056906661    29.088949      44.528491    
     98760   197.52         350.42988      134610.57     -807626.17     -9644.3053      0.36240618     0.056868647    29.082373      44.172107    
     98770   197.54         351.71135      134764.27     -807627.04     -9616.8158      0.36242459     0.056703671    29.032798      43.815734    
     98780   197.56         349.76831      136061.62     -807625.55     -9647.8814      0.36244287     0.056883975    28.991936      43.459369    
     98790   197.58         352.92641      137079.32     -807623.95     -9708.5016      0.362461       0.057238529    28.997819      43.103005    
     98800   197.6          358.81609      136254.93     -807624.99     -9695.4445      0.36247899     0.057158711    28.986243      42.746645    
     98810   197.62         351.40025      136172.12     -807624.35     -9675.5349      0.36249683     0.057038528    28.960657      42.390292    
     98820   197.64         348.52091      135103.66     -807624.39     -9657.7227      0.36251453     0.056930742    28.970103      42.033939    
     98830   197.66         351.4383       135004.03     -807624.33     -9664.8147      0.36253209     0.05696979     29.021311      41.677581    
     98840   197.68         357.68594      135926.3      -807625.78     -9642.8104      0.36254951     0.056837353    29.037319      41.321224    
     98850   197.7          338.44371      136296.27     -807623.04     -9640.3633      0.36256678     0.056820222    28.995147      40.964875    
     98860   197.72         359.36789      135855.51     -807625.07     -9661.9103      0.36258391     0.05694453     29.012426      40.608525    
     98870   197.74         361.04143      134958.96     -807625.38     -9655.0668      0.3626009      0.05690153     29.057661      40.252172    
     98880   197.76         361.85251      137013.05     -807623.61     -9708.9448      0.36261774     0.057216399    29.052774      39.895822    
     98890   197.78         359.29441      135037.46     -807625.12     -9647.9712      0.36263445     0.056854453    29.037773      39.539477    
     98900   197.8          366.48524      136524.05     -807625.41     -9665.9163      0.362651       0.056957601    29.063064      39.18313     
     98910   197.82         342.36993      135742.83     -807622.58     -9649.2119      0.36266742     0.056856594    29.097597      38.826782    
     98920   197.84         353.06696      137468.11     -807622.65     -9693.2876      0.36268369     0.057113741    29.101701      38.470435    
     98930   197.86         353.29371      135223.71     -807624.39     -9635.7609      0.36269982     0.056772264    29.098993      38.114092    
     98940   197.88         362.17986      136253.03     -807624.48     -9668.4462      0.36271581     0.05696233     29.073273      37.757754    
     98950   197.9          354.68657      135618.23     -807623.7      -9662.2086      0.36273165     0.056923094    29.052451      37.401422    
     98960   197.92         363.20875      137035.97     -807623.88     -9694.4432      0.36274735     0.057110526    29.03888       37.045093    
     98970   197.94         359.46082      135445.41     -807624.31     -9664.7942      0.36276291     0.056933421    29.007212      36.688771    
     98980   197.96         362.43425      135740.99     -807624.32     -9678.2041      0.36277832     0.057009993    28.980088      36.332455    
     98990   197.98         352.7542       136442.38     -807623.37     -9670.3373      0.36279359     0.056961256    28.996104      35.976138    
     99000   198            358.14211      136884.59     -807624.03     -9680.5243      0.36280872     0.057018883    28.982786      35.619826    
     99010   198.02         366.54957      135008.56     -807626.02     -301.92561      0.3628237      0.056905182    29.099815      35.263503    
     99020   198.04         360.57876      134909.79     -807625.8      -301.59349      0.36283855     0.056840261    29.087524      34.907183    
     99030   198.06         352.10352      135467.76     -807624.92     -301.75395      0.36285324     0.056868198    29.061772      34.550868    
     99040   198.08         345.99102      136777.87     -807624.06     -302.23476      0.3628678      0.056956527    29.047816      34.194558    
     99050   198.1          351.63613      135571.29     -807624.93     -302.69418      0.36288221     0.05704084     29.086254      33.838246    
     99060   198.12         344.46748      136781.74     -807624.4      -302.65164      0.36289648     0.057030582    29.0517        33.48194     
     99070   198.14         338.84425      136296.26     -807623.94     -302.77793      0.36291061     0.057052158    29.099389      33.125632    
     99080   198.16         346.65152      136146.57     -807625.17     -302.95624      0.36292459     0.057083556    29.090686      32.769327    
     99090   198.18         346.97196      135280.03     -807626.09     -302.42879      0.36293843     0.056982001    29.071036      32.413026    
     99100   198.2          352.08195      134325.99     -807627.89     -301.60198      0.36295213     0.056824074    29.116395      32.056724    
     99110   198.22         337.07269      134965.52     -807625.82     -301.78672      0.36296568     0.056856757    29.109517      31.700424    
     99120   198.24         343.01907      135104.23     -807625.89     -302.68937      0.36297909     0.05702471     29.09888       31.344128    
     99130   198.26         344.57616      136189.28     -807625.8      -303.12405      0.36299236     0.057104514    29.118006      30.987833    
     99140   198.28         342.08453      135758.83     -807625.97     -302.75304      0.36300548     0.057032557    29.121204      30.63154     
     99150   198.3          343.97033      135833.81     -807626.63     -302.49302      0.36301846     0.056981537    29.128141      30.275249    
     99160   198.32         331.19151      135709.47     -807624.53     -302.86176      0.3630313      0.05704898     29.094109      29.918964    
     99170   198.34         355.96278      135042.85     -807628.11     -302.78209      0.36304399     0.057031979    29.098449      29.562681    
     99180   198.36         329.85295      135485.23     -807625.62     -301.73402      0.36305655     0.0568326      29.137038      29.206397    
     99190   198.38         337.18304      135624.35     -807626.28     -302.06637      0.36306895     0.056893254    29.128645      28.850116    
     99200   198.4          343.3147       135003.53     -807626.95     -302.2388       0.36308122     0.056923809    29.193207      28.493832    
     99210   198.42         334.16274      135478.19     -807624.9      -302.96808      0.36309334     0.057059257    29.148516      28.137555    
     99220   198.44         345.50694      135000.36     -807627.12     -302.24743      0.36310532     0.056921655    29.08967       27.781286    
     99230   198.46         335.93049      136268.33     -807625.03     -302.92154      0.36311715     0.05704675     29.096142      27.425019    
     99240   198.48         345.08558      135505.9      -807625.44     -303.67043      0.36312885     0.057185941    29.044104      27.068759    
     99250   198.5          351.0305       135304.55     -807625.55     -304.21209      0.3631404      0.057286122    29.103387      26.712496    
     99260   198.52         338.40837      134941.3      -807625.29     -302.61421      0.3631518      0.056983437    29.097975      26.356236    
     99270   198.54         348.80252      135756.33     -807627.13     -301.93617      0.36316306     0.056853996    29.085622      25.99998     
     99280   198.56         345.40408      134417.48     -807625.6      -302.8532       0.36317418     0.057024925    29.083241      25.643726    
     99290   198.58         340.91479      134692.52     -807625.15     -302.41632      0.36318516     0.056940943    29.1025        25.287474    
     99300   198.6          341.69782      136179.25     -807625.28     -302.10718      0.36319599     0.056881039    29.131792      24.931221    
     99310   198.62         342.7064       135747.32     -807624.91     -302.36532      0.36320668     0.056927967    29.130446      24.574972    
     99320   198.64         354.15475      136735.89     -807624.62     -303.97805      0.36321723     0.057229942    29.165775      24.218722    
     99330   198.66         341.08582      136574.58     -807622.76     -303.78095      0.36322763     0.057191196    29.122963      23.862478    
     99340   198.68         355.36017      136861.37     -807625.07     -303.17271      0.36323789     0.057075074    29.088836      23.506239    
     99350   198.7          352.43789      135210.67     -807625.57     -302.08041      0.36324801     0.056867853    29.117656      23.150001    
     99360   198.72         357.72922      135898.19     -807625.13     -303.05236      0.36325798     0.057049261    29.14263       22.793763    
     99370   198.74         356.95888      134370.4      -807626.49     -301.46422      0.36326781     0.056748761    29.084535      22.437532    
     99380   198.76         345.30947      136075.14     -807624.17     -301.97158      0.3632775      0.056842752    27.02013       22.081468    
     99390   198.78         351.93271      134732.43     -807624.68     -302.30312      0.36328704     0.056903664    29.10237       21.725238    
     99400   198.8          344.74953      136719.52     -807622.02     -303.79811      0.36329644     0.057183594    29.114761      21.36901     
     99410   198.82         350.08512      136316.1      -807622.52     -303.98462      0.3633057      0.057217243    29.103257      21.012786    
     99420   198.84         353.93726      136485.16     -807623.18     -303.76314      0.36331481     0.057174119    29.057407      20.656567    
     99430   198.86         364.54554      135738.59     -807624.5      -303.87191      0.36332378     0.05719318     29.057195      20.30035     
     99440   198.88         345.16241      136755.26     -807622.59     -303.07288      0.36333261     0.057041405    28.990996      19.944141    
     99450   198.9          360.10253      136057.4      -807625.06     -302.63856      0.36334129     0.0569583      29.02097       19.587931    
     99460   198.92         355.98327      135028.46     -807626.12     -300.97015      0.36334983     0.056642964    29.055285      19.231722    
     99470   198.94         361.00242      135624.49     -807625.28     -302.54596      0.36335823     0.056938218    29.080908      18.875514    
     99480   198.96         348.98007      135093.61     -807623.17     -303.04992      0.36336648     0.057031766    29.0451        18.51931     
     99490   198.98         364.80583      135899.39     -807625.12     -303.28658      0.3633746      0.057075029    29.05509       18.163108    
     99500   199            351.70686      135844.78     -807623.87     -302.79629      0.36338256     0.056981514    29.070221      17.806908    
     99510   199.02         354.2925       136438.28     -807623.1      -9727.4787      0.36339039     0.057203736    28.982822      17.450715    
     99520   199.04         348.88751      137267.42     -807622.66     -9721.584       0.36339807     0.057167863    28.982211      17.094524    
     99530   199.06         362.39439      136035.93     -807625.63     -9687.4578      0.3634056      0.056966002    29.009951      16.738334    
     99540   199.08         348.93002      135950.43     -807624.61     -9664.3717      0.363413       0.056829091    29.039592      16.382145    
     99550   199.1          356.46041      134827.34     -807625.74     -9667.5059      0.36342025     0.056846386    29.040988      16.025958    
     99560   199.12         344.43621      135495.72     -807623.19     -9700.1727      0.36342736     0.057037357    29.045312      15.669773    
     99570   199.14         350.47923      135492.73     -807624.85     -9678.5431      0.36343432     0.056909083    29.016958      15.313593    
     99580   199.16         355.92057      135362.36     -807625.49     -9688.3662      0.36344114     0.056965773    29.048871      14.957412    
     99590   199.18         346.06263      136688.45     -807622.88     -9733.9207      0.36344782     0.057232574    29.028071      14.601236    
     99600   199.2          341.56387      136954.35     -807622.76     -9724.1668      0.36345435     0.057174195    29.017394      14.245062    
     99610   199.22         362.32891      135420.88     -807626.27     -9711.571       0.36346074     0.057099134    28.962309      13.888893    
     99620   199.24         349.89704      135508.94     -807625.81     -9680.5618      0.36346699     0.056915837    28.949666      13.532726    
     99630   199.26         337.39224      136236.68     -807623.19     -9718.144       0.3634731      0.057135838    28.985761      13.176561    
     99640   199.28         336.34243      135740.68     -807624.33     -9688.8697      0.36347906     0.056962791    28.919355      12.8204      
     99650   199.3          357.55415      134659.89     -807628.94     -9646.5469      0.36348487     0.056713059    28.947764      12.46424     
     99660   199.32         347.44328      135523.31     -807626.51     -9692.9665      0.36349055     0.056985075    28.949807      12.108083    
     99670   199.34         337.67964      136596.22     -807624.27     -9734.0435      0.36349608     0.057225697    29.002764      11.751925    
     99680   199.36         337.99334      136468        -807625.62     -9700.8991      0.36350147     0.057029998    29.025611      11.395769    
     99690   199.38         346.75367      134983.56     -807627.98     -9677.0209      0.36350671     0.056888802    28.997249      11.039616    
     99700   199.4          349.55633      135765.39     -807626.86     -9734.8978      0.36351181     0.057228243    29.006125      10.683465    
     99710   199.42         326.53151      134745.45     -807624.17     -9727.4307      0.36351677     0.057183567    29.018664      10.327316    
     99720   199.44         340.29564      135359.59     -807627.27     -9691.3342      0.36352158     0.056970616    29.02627       9.9711695    
     99730   199.46         335.96237      134202.16     -807628.24     -9647.3448      0.36352625     0.056711295    29.029436      9.6150248    
     99740   199.48         352.08324      135006.67     -807628.38     -9716.5298      0.36353078     0.057117283    29.005308      9.2588832    
     99750   199.5          323.1838       134260.06     -807624.71     -9708.3317      0.36353516     0.057068404    29.054554      8.9027424    
     99760   199.52         333.29553      135715.66     -807626.53     -9691.6024      0.3635394      0.056969399    29.040334      8.5466044    
     99770   199.54         332.12078      134977.29     -807627.19     -9667.2957      0.3635435      0.056825878    29.021046      8.1904693    
     99780   199.56         333.83518      136092.85     -807624.34     -9764.4691      0.36354745     0.057396455    29.054902      7.8343356    
     99790   199.58         338.6696       135355.71     -807626.11     -9725.9778      0.36355126     0.0571696      29.060515      7.4782042    
     99800   199.6          337.12172      135146.78     -807625.84     -9724.041       0.36355493     0.057157639    29.083205      7.1220747    
     99810   199.62         338.63756      134746.9      -807628.07     -9656.0394      0.36355845     0.056757378    29.103908      6.7659472    
     99820   199.64         337.93194      135331.48     -807625.89     -9720.243       0.36356183     0.057134229    29.078799      6.4098226    
     99830   199.66         340.54393      134731.12     -807626.5      -9708.5698      0.36356507     0.057065108    29.037095      6.0537014    
     99840   199.68         345.21927      134584.94     -807627.93     -9677.6158      0.36356816     0.056882683    28.99931       5.6975833    
     99850   199.7          328.00903      135488.15     -807625.05     -9687.4061      0.36357111     0.056939765    28.977044      5.3414678    
     99860   199.72         348.01165      135935.14     -807626.53     -9725.5232      0.36357392     0.057163366    29.037961      4.9853535    
     99870   199.74         349.75839      135184.56     -807625.28     -9768.5089      0.36357658     0.0574156      29.064167      4.6292412    
     99880   199.76         338.57903      135692.7      -807626.14     -9685.1795      0.3635791      0.056925427    29.053363      4.2731314    
     99890   199.78         340.17885      135835.49     -807626.72     -9667.697       0.36358148     0.056822301    29.015812      3.9170245    
     99900   199.8          333.80047      135140.27     -807624.78     -9697.4633      0.36358371     0.056996904    29.024476      3.5609198    
     99910   199.82         355.83907      134861.46     -807627.22     -9710.6847      0.3635858      0.057074285    29.027618      3.2048174    
     99920   199.84         335.3535       133954.39     -807625.96     -9653.9525      0.36358775     0.056740539    28.995587      2.8487176    
     99930   199.86         340.59494      135887.62     -807625.61     -9680.0308      0.36358955     0.05689353     28.971169      2.4926202    
     99940   199.88         340.84481      135894.11     -807624.54     -9711.7667      0.36359121     0.057079795    29.031479      2.1365247    
     99950   199.9          346.80044      136322.98     -807623.12     -9774.5382      0.36359273     0.057448488    28.973895      1.7804317    
     99960   199.92         353.03372      134238.08     -807626.29     -9695.4796      0.3635941      0.056983616    29.021087      1.4243408    
     99970   199.94         353.06905      136300.22     -807625.7      -9708.0918      0.36359533     0.05705755     29.069837      1.068252     
     99980   199.96         342.33985      134989.01     -807623.74     -9719.0578      0.36359641     0.05712183     29.055438      0.71216559   
     99990   199.98         363.49379      134696.63     -807626.27     -9723.0563      0.36359736     0.057145183    29.022346      0.35608164   
    100000   200            355.52945      133142.6      -807627.28     -9650.2231      0.36359816     0.056716996    28.981912      0            
Loop time of 3560.81 on 32 procs for 100000 steps with 1080 atoms

Performance: 4.853 ns/day, 4.946 hours/ns, 28.084 timesteps/s, 30.330 katom-step/s
63.5% CPU use with 32 MPI tasks x 1 OpenMP threads

MPI task timing breakdown:
Section |  min time  |  avg time  |  max time  |%varavg| %total
---------------------------------------------------------------
Pair    | 2515.5     | 2808.5     | 3149.1     | 275.9 | 78.87
Neigh   | 0.0016554  | 0.0035824  | 0.0073772  |   3.3 |  0.00
Comm    | 336.66     | 677.38     | 970.48     | 561.8 | 19.02
Output  | 2.3618     | 2.3686     | 2.3732     |   0.2 |  0.07
Modify  | 65.977     | 66.31      | 66.727     |   2.6 |  1.86
Other   |            | 6.233      |            |       |  0.18

Nlocal:          33.75 ave          42 max          29 min
Histogram: 5 3 1 12 2 4 4 0 0 1
Nghost:        1042.94 ave        1062 max        1023 min
Histogram: 1 2 4 3 5 6 2 7 1 1
Neighs:              0 ave           0 max           0 min
Histogram: 32 0 0 0 0 0 0 0 0 0
FullNghs:      5340.12 ave        6699 max        4555 min
Histogram: 5 3 4 8 3 4 3 1 0 1

Total # of neighbors = 170884
Ave neighs/atom = 158.22593
Neighbor list builds = 4
Dangerous builds = 0

Total wall time: 1:02:57
