
units		metal
atom_style	atomic

read_data ${STRUCTURE}.data
read_data BaTiO3-sc333.data
Reading data file ...
  orthogonal box = (0 0 0) to (11.898253 11.898253 12.912076)
  2 by 4 by 4 MPI processor grid
  reading atoms ...
  135 atoms
  read_data CPU = 0.005 seconds
replicate $L $L $L
replicate 2 $L $L
replicate 2 2 $L
replicate 2 2 2
Replication is creating a 2x2x2 = 8 times larger system...
  orthogonal box = (0 0 0) to (23.796507 23.796507 25.824152)
  2 by 4 by 4 MPI processor grid
  1080 atoms
  replicate CPU = 0.003 seconds

pair_style allegro
pair_coeff	* * ${MODEL}.pth Ba Ti O
pair_coeff	* * BaTiO3-E0.pth Ba Ti O
mass 1 137.3
mass 2 47.9
mass 3 15.9994

timestep 0.002
compute polarization all allegro polarization 3
compute allegro will evaluate the quantity polarization of length 3 (src/compute_allegro.cpp:53)
compute polarizability all allegro polarizability 9
compute allegro will evaluate the quantity polarizability of length 9 (src/compute_allegro.cpp:53)

thermo_style custom pe fmax fnorm spcpu cpuremain

variable efield equal 1e-2*36.36
fix born all addbornforce 0.0 0.0 ${efield}
fix born all addbornforce 0.0 0.0 0.3636

thermo 10
min_style fire
#minimize 0.0 1e-6 100 100
velocity all create ${TEMP} ${SEED} dist gaussian rot yes mom yes
velocity all create 280 ${SEED} dist gaussian rot yes mom yes
velocity all create 280 16496 dist gaussian rot yes mom yes
fix nvt all nvt temp ${TEMP} ${TEMP} $(100*dt)
fix nvt all nvt temp 280 ${TEMP} $(100*dt)
fix nvt all nvt temp 280 280 $(100*dt)
fix nvt all nvt temp 280 280 0.2000000000000000111
run 5000
Neighbor list info ...
  update: every = 1 steps, delay = 0 steps, check = yes
  max neighbors/atom: 2000, page size: 100000
  master list distance cutoff = 8
  ghost atom cutoff = 8
  binsize = 8, bins = 3 3 4
  1 neighbor lists, perpetual/occasional/extra = 1 0 0
  (1) pair allegro/kk, perpetual
      attributes: full, newton on, kokkos_device
      pair build: full/bin/kk/device
      stencil: full/bin/3d
      bin: kk/device
Per MPI rank memory allocation (min/avg/max) = 3.516 | 3.516 | 3.516 Mbytes
    PotEng          Fmax          Fnorm          S/CPU         CPULeft    
-807708.29      1.5959724      37.042336      0              0            
-807649.34      3.5465323      44.44555       2.3494537      2123.8989    
-807637.75      2.7418848      34.951249      25.877732      1156.0431    
-807608.82      3.5549338      37.130463      25.918486      833.06611    
-807605.74      4.0191559      50.264648      25.882588      671.45109    
-807571.31      3.5514968      39.579553      25.871261      574.3443     
-807604.42      2.6987554      38.479473      25.948703      509.38259    
-807648.94      3.3922304      33.431011      25.968841      462.85024    
-807687.43      2.3305256      34.024996      25.923817      427.89583    
-807670.2       3.91484        33.939069      25.888971      400.65166    
-807655         3.384106       34.228809      25.965139      378.72357    
-807662.98      2.1660528      26.278618      25.95048       360.72204    
-807630.83      2.9367384      30.06025       25.951026      345.65621    
-807587.67      3.2953746      39.622947      25.95701       332.84559    
-807571.87      3.2856158      37.403512      25.981597      321.79737    
-807636.43      3.4803546      32.393109      25.949427      312.18635    
-807658.38      2.7508218      29.557259      25.943893      303.73103    
-807667.97      3.1292866      33.08537       25.944184      296.22498    
-807650.13      4.5068702      43.989007      25.953994      289.50621    
-807683.84      3.2323924      35.060677      25.895002      283.47634    
-807644.85      4.2625049      38.106697      25.89732       278.01001    
-807617.07      3.1386185      38.524091      25.940208      273.01295    
-807564.86      4.0471831      44.975924      25.950382      268.43183    
-807609.32      4.2523689      48.700757      25.945656      264.21702    
-807618.42      4.3701731      38.402678      25.938962      260.3233     
-807646.26      3.0846827      34.404383      25.938281      256.71043    
-807647.55      4.7402054      44.480071      25.95144       253.34225    
-807686.11      2.740226       36.743208      25.910048      250.2058     
-807667.27      4.002167       33.64343       25.860654      247.27825    
-807640.44      3.1365315      30.42939       25.935429      244.50782    
-807610.34      4.2947929      32.047668      25.97016       241.8883     
-807608.06      3.9847859      41.279769      25.922596      239.42364    
-807601.79      3.7386868      34.99523       25.868919      237.1006     
-807613.81      3.1311641      31.472452      26.044983      234.85795    
-807648.69      2.9017913      28.900541      25.956549      232.74256    
-807677.52      2.7451874      30.986347      25.895273      230.73816    
-807680.65      2.3736764      31.490917      25.84184       228.83394    
-807646.2       4.3913566      37.983393      25.950349      226.99149    
-807652.76      2.7078622      29.269361      25.946206      225.22648    
-807622.69      4.3192083      34.057065      25.942097      223.53294    
-807604.64      3.5833001      42.569852      25.922122      221.90821    
-807573.18      4.5136806      41.268124      25.974362      220.33524    
-807632.66      3.1718946      33.980619      25.955133      218.82195    
-807653.37      4.13266        35.855994      25.940076      217.3635     
-807678.03      3.1411659      33.894651      25.934917      215.95462    
-807643.98      5.251657       46.75373       25.976167      214.58503    
-807672.01      3.0070518      33.808794      25.982361      213.25733    
-807646.8       3.5283851      35.133966      25.95894       211.97311    
-807623.96      3.4618131      37.685862      25.956342      210.7267     
-807567.91      3.5240849      42.427473      25.957222      209.51533    
-807609.32      3.8413934      41.958746      25.963915      208.3361     
-807631.15      3.7013512      34.159088      25.924586      207.19317    
-807659.25      2.9077224      31.45654       25.940142      206.07736    
-807648.39      4.5031562      40.190456      25.949032      204.98799    
-807676.3       2.7635079      33.180848      25.903134      203.93034    
-807670.13      2.6727114      30.952138      25.885709      202.89922    
-807642.69      3.1967627      29.561742      25.977769      201.88027    
-807602.47      2.585487       33.474981      25.979476      200.88336    
-807600.99      3.3574345      37.147398      25.968634      199.90879    
-807613.51      4.0222725      36.959406      25.840786      198.96844    
-807625.18      3.6794305      31.137001      25.946779      198.03494    
-807644.8       3.0435944      31.288659      25.96577       197.11738    
-807668.04      4.4174102      33.847615      25.959133      196.2177     
-807679.83      2.8955281      34.131338      25.952273      195.33505    
-807647.43      4.2164827      37.132297      25.947983      194.46838    
-807636.36      2.9801381      31.900295      25.967744      193.61455    
-807614.28      4.740442       34.642338      25.947936      192.77686    
-807607.13      4.2372869      44.312982      25.913317      191.956      
-807585.43      4.1704989      39.497973      25.951402      191.14434    
-807625.61      2.8440991      33.723801      25.961726      190.34407    
-807652.15      4.4942137      35.610127      25.962621      189.55559    
-807678.49      2.756956       34.939472      25.892698      188.78475    
-807650.79      4.0403556      41.245789      25.914695      188.02264    
-807656.62      3.217658       34.163682      25.923394      187.27009    
-807643.78      3.1239294      32.828411      25.949719      186.52519    
-807623.46      3.2596212      37.6648        25.91055       185.79319    
-807577.43      3.7722832      38.748683      25.913392      185.07005    
-807599.57      3.3577115      38.129955      25.929868      184.35433    
-807636.84      3.347847       30.7151        25.946629      183.64572    
-807664.61      2.7217951      30.710514      25.944866      182.94544    
-807654.85      3.790463       35.412453      25.935288      182.25377    
-807663.36      2.8519826      33.257333      25.867106      181.57492    
-807668.54      3.3935502      30.769957      25.928938      180.89849    
-807643.93      2.5844531      29.91253       25.920119      180.22974    
-807600.99      3.2737693      34.713665      25.949798      179.56553    
-807589.73      3.2991828      37.356744      25.96739       178.90661    
-807615.29      3.4959887      37.601449      25.934447      178.25642    
-807635.79      3.395473       30.865995      25.952658      177.61102    
-807645.81      3.2942408      33.429221      25.974098      176.97004    
-807659.04      4.8203433      35.935964      25.985841      176.33401    
-807676.08      2.8776734      34.454357      25.928605      175.70744    
-807653.92      4.3224347      34.717427      25.911286      175.08732    
-807629.04      2.7595784      32.473203      25.951713      174.46962    
-807605.23      3.5826136      34.420205      25.964711      173.85608    
-807610.2       3.6403747      41.538302      25.922376      173.25011    
-807602.59      3.5434067      34.634314      25.922169      172.64879    
-807627.15      2.7756565      32.240355      25.97032       172.04895    
-807649.47      3.7121871      33.892039      25.993521      171.45212    
-807676.22      3.0050397      34.019086      25.873309      170.86694    
-807659.33      3.801096       35.19043       25.899212      170.28421    
-807648.32      3.4534056      32.72625       25.969642      169.70123    
-807635.78      3.7643399      31.298346      25.925816      169.12473    
-807623.09      4.0243668      36.650497      25.941002      168.5511     
-807592.3       3.9544543      36.991293      25.974683      167.97919    
-807601.64      3.1746756      35.540623      25.980484      167.41055    
-807636.14      3.1065883      31.056386      25.916985      166.84896    
-807665.02      2.4322158      30.891148      25.871611      166.2932     
-807662.48      3.148052       33.242549      25.872855      165.74053    
-807654.02      3.7323554      34.880851      25.917482      165.18852    
-807661.57      3.004197       29.490124      25.885517      164.64128    
-807640.76      3.0790177      30.258704      25.956013      164.09324    
-807608.11      2.8052802      33.500069      25.970579      163.54737    
-807585.62      3.2049822      37.023864      25.980112      163.00389    
-807620.06      3.036622       33.898097      25.892955      162.46765    
-807642.9       3.6744201      30.652445      25.917167      161.93282    
-807655.11      3.4661843      31.38154       25.959043      161.3985     
-807653.22      4.5040556      36.494356      25.944147      160.86748    
-807671.16      2.8727981      32.893969      25.918322      160.3402     
-807654.29      3.3572809      32.071178      25.88292       159.81704    
-807628.46      3.0845462      32.107588      25.939747      159.29346    
-807596.15      2.9455257      35.684761      25.947852      158.7718     
-807609.06      3.7256806      38.939046      25.930756      158.25319    
-807618.03      3.1632876      33.137486      25.905501      157.73793    
-807635.18      2.9425907      31.451611      25.892632      157.22535    
-807647.46      4.5125492      34.921409      25.912796      156.7139     
-807671.02      2.7239017      33.041643      25.898135      156.20512    
-807662.42      3.1114539      32.86354       25.870845      155.69949    
-807643.05      3.187541       32.160069      25.965036      155.19162    
-807623.42      3.4375696      32.037571      25.988723      154.68464    
-807615.93      4.1492153      36.281007      25.960441      154.18077    
-807604.99      3.2720333      36.019289      25.893236      153.68157    
-807609.15      3.5708577      34.072044      25.937581      153.18223    
-807636.29      2.8837197      31.316788      25.90844       152.68583    
-807661.94      3.2800479      32.442161      25.784692      152.19619    
-807665.27      2.9036218      33.324025      25.879687      151.70419    
-807649.83      3.9318475      35.003927      25.922822      151.21202    
-807647.85      2.8999373      31.18317       25.990553      150.71872    
-807633.7       3.7323272      31.539943      25.966651      150.22794    
-807610.41      3.6394735      35.883046      25.896116      149.74145    
-807590.86      3.1610169      35.463555      25.915812      149.25563    
-807619.65      2.9832837      32.745757      25.954135      148.76978    
-807647.8       3.3586136      30.264019      25.882728      148.28807    
-807661.5       3.3349355      31.67011       25.928844      147.80596    
-807651.2       4.429351       36.40851       25.932987      147.32505    
-807660.15      2.5140009      32.519326      25.911328      146.84625    
-807650.56      3.1481749      31.775003      25.924319      146.36827    
-807627.46      3.0670322      32.839253      25.932808      145.89125    
-807590.2       3.954436       36.786909      25.951882      145.41478    
-807604.7       3.2765166      37.407983      25.958262      144.93932    
-807626.44      3.5350917      33.014879      25.928774      144.46611    
-807646.58      2.5782277      31.287502      25.92783       143.9941     
-807646.71      4.5749269      35.615683      25.917275      143.52359    
-807665.68      3.3212801      32.810141      25.924493      143.05395    
-807661.84      3.4296465      33.250061      25.857301      142.58768    
-807644.19      3.3525711      30.384421      25.89495       142.12118    
-807611.16      2.7643676      33.145676      25.965803      141.65337    
-807607.21      3.1496849      35.173562      25.963788      141.18669    
-807611.1       3.6206384      35.554322      25.912477      140.72271    
-807623.43      4.5714382      31.326399      25.93231       140.25908    
-807636.45      3.1734514      31.419672      25.972195      139.79516    
-807659.83      3.098253       31.409736      25.988992      139.33171    
-807666.94      2.9039647      32.842567      25.894908      138.87217    
-807652.55      3.5317922      33.015566      25.897999      138.41344    
-807635.78      3.1835388      31.897635      25.94252       137.95423    
-807623.84      3.402913       32.280715      25.960483      137.49537    
-807612.41      3.8237957      37.357607      25.867036      137.04023    
-807600.94      3.3070892      34.969637      25.905632      136.58476    
-807620.34      3.5135658      31.948972      25.99471       136.12749    
-807646.86      3.3179908      30.846363      25.965177      135.67194    
-807664.44      2.8761482      32.280686      25.944668      135.21782    
-807653.5       4.1924474      34.350321      25.860355      134.76695    
-807651.48      3.1338469      31.787176      25.940635      134.31453    
-807643.31      3.3689271      30.943762      25.920705      133.86345    
-807628.77      3.2109757      33.093579      25.91213       133.41336    
-807596.52      2.6691725      34.731772      25.972689      132.96233    
-807604.92      2.9844242      34.857623      26.024689      132.51063    
-807630.88      3.2553175      31.645229      25.954474      132.0616     
-807654.95      2.5629326      30.103422      25.989746      131.61234    
-807651.04      3.3092149      33.691907      25.976695      131.16415    
-807658.45      3.1028468      32.262815      25.901194      130.71869    
-807658.7       3.0346042      31.623715      25.898229      130.27396    
-807644.53      2.68465        30.130095      25.901724      129.82979    
-807609.65      2.8631614      33.326904      25.957678      129.3848     
-807601.35      3.2094975      35.639785      25.991072      128.93961    
-807615.34      3.4896177      34.42821       25.989449      128.49511    
-807634.1       3.4127282      31.570468      25.961185      128.05198    
-807642.27      3.1083358      32.008561      25.986327      127.60883    
-807657.13      3.7340522      32.323201      25.92469       127.16785    
-807666.46      3.4134583      31.824494      25.953241      126.72675    
-807652.83      3.7166575      31.817087      25.892496      126.28772    
-807630.84      3.0066253      31.030734      25.940048      125.8481     
-807613.31      4.3619771      33.003742      25.95501       125.40868    
-807610.46      3.6441292      36.970651      25.949164      124.96997    
-807612.87      3.1775259      34.421938      25.8934        124.53312    
-807626.51      3.0191744      31.933932      25.954469      124.09537    
-807646.23      3.1161295      32.508157      25.95302       123.65819    
-807663.62      2.5633726      33.133829      25.922169      123.22225    
-807656.92      3.2651797      34.079255      25.919039      122.78689    
-807643.51      3.2537989      33.218166      25.923249      122.35194    
-807631.9       3.1740579      32.29342       25.95773       121.9167     
-807622.46      3.32722        34.680972      25.915971      121.4829     
-807604.42      3.2063298      35.328224      25.973872      121.0483     
-807608.87      3.2878012      33.746764      25.91941       120.61537    
-807632.51      3.1045166      30.9939        25.917871      120.18295    
-807653.16      2.8340165      32.030466      25.911717      119.75112    
-807656.36      3.0795248      32.937307      25.860355      119.32083    
-807649.18      4.9286716      34.653049      25.893316      118.89027    
-807647.65      4.1083363      32.019336      25.931427      118.45933    
-807637.14      3.8037889      32.195451      25.912144      118.02923    
-807613.25      3.1940491      34.807227      25.94511       117.59887    
-807598.07      3.4760833      36.596025      25.987562      117.16807    
-807617.93      2.9245915      33.618404      25.943559      116.7386     
-807640.14      3.433327       31.944403      25.935528      116.30971    
-807648.42      2.7991767      31.804661      25.930699      115.88132    
-807649.76      3.4142004      34.068711      25.908905      115.45376    
-807658.71      2.455574       32.237213      25.86491       115.02747    
-807650.47      2.9887055      31.105218      25.852506      114.60178    
-807627.07      3.3817632      32.399947      25.873398      114.17604    
-807604.46      3.3184642      34.461498      25.954842      113.74909    
-807609.5       3.1545564      34.952089      25.925948      113.32308    
-807623.4       3.1494942      33.417118      25.961086      112.89677    
-807634.7       3.0166809      31.481021      25.93147       112.47138    
-807645.49      4.0955821      33.049694      25.951854      112.04598    
-807660.84      2.5861189      32.760861      25.919739      111.62152    
-807658.66      2.8774932      31.917938      25.924869      111.19732    
-807640.08      2.9767199      32.53455       25.961501      110.77279    
-807621.23      3.6825763      32.585963      25.939423      110.34901    
-807614.57      2.9809159      34.75784       25.917919      109.92596    
-807610.9       3.3927401      34.742304      25.848133      109.50447    
-807617.7       3.2421897      32.905338      25.924357      109.08193    
-807634.47      3.6640469      31.578303      25.941125      108.65943    
-807656.09      3.066488       31.758686      25.929352      108.23745    
-807660.17      3.2517084      32.492603      25.862714      107.81693    
-807649.28      3.0769482      32.504521      25.906026      107.39595    
-807637.73      4.0238211      31.920128      25.932597      106.97483    
-807630.07      4.2587534      31.744152      25.923625      106.55416    
-807614.6       3.5003512      34.72633       25.911441      106.13399    
-807605.62      3.0762398      34.042656      25.898749      105.71432    
-807621.52      3.9823254      32.233232      25.968879      105.29379    
-807644.83      3.1608921      30.582029      25.925075      104.87426    
-807654.55      2.703674       32.05309       25.918622      104.45511    
-807652.71      3.9522706      32.906157      25.926281      104.03612    
-807648.4       3.1069222      32.644427      25.927385      103.61739    
-807645.45      3.461805       30.661296      25.916549      103.1991     
-807625.71      3.1064163      32.569214      25.92592       102.78093    
-807605.03      2.9132456      34.794795      25.934936      102.36288    
-807610.27      2.8941138      34.331192      25.944081      101.94496    
-807631.91      2.8091024      31.707534      25.934589      101.52745    
-807644.71      2.6077699      31.541537      25.915906      101.11048    
-807648.53      3.3900528      32.227444      25.935091      100.69346    
-807654.65      2.6447583      32.588727      25.921311      100.27691    
-807655.48      2.8980833      30.612101      25.903575      99.86086     
-807640.38      3.0057967      30.438402      25.926878      99.444708    
-807615.96      2.9097585      32.816743      25.945854      99.028522    
-807609.14      3.0564451      33.868896      25.936604      98.612711    
-807617.96      2.8756199      34.138122      25.913251      98.197472    
-807630.19      2.9327743      31.314924      25.923329      97.782318    
-807637.62      3.0091603      32.769112      25.96353       97.366829    
-807654.49      2.9101355      31.148042      25.927681      96.952074    
-807658.49      3.3291714      32.498983      25.864985      96.538414    
-807649.51      3.248283       31.387806      25.867017      96.124933    
-807630.41      3.5090796      32.198507      25.937548      95.710696    
-807619.88      2.5368718      32.777327      25.965258      95.296304    
-807613.18      2.9324378      35.568356      25.908937      94.88289     
-807614.4       3.3948751      33.821481      25.931709      94.46938     
-807625.4       2.7131792      32.481012      25.95168       94.055817    
-807644.23      2.6376101      32.202664      25.943009      93.64258     
-807655.9       2.7642962      33.055105      25.917848      93.229878    
-807653.62      3.5534398      33.545063      25.919364      92.817356    
-807642.53      3.0205652      33.298311      25.936172      92.404819    
-807631.67      4.1842514      33.34301       25.918449      91.992706    
-807622.5       4.1191902      33.956995      25.966336      91.580185    
-807606.01      4.1462827      36.082102      25.930911      91.168307    
-807610.81      3.0319099      34.481242      25.912613      90.756848    
-807631.95      2.7368115      32.256934      25.929131      90.345373    
-807649.16      3.0070323      31.776327      25.915784      89.934247    
-807650.95      3.0188835      32.703121      25.886444      89.52366     
-807649.49      2.866195       32.72978       25.933508      89.112683    
-807646.55      3.2133988      32.041761      25.916661      88.70209     
-807635.83      3.2201626      31.973604      25.916469      88.291676    
-807613.46      4.3709892      34.074264      25.916056      87.881442    
-807605.76      3.530719       35.395675      25.879688      87.471804    
-807619.21      4.8971826      33.830378      25.891921      87.06219     
-807638.4       3.2082895      31.649203      25.888021      86.652786    
-807643.14      4.2405927      32.732666      25.922606      86.243153    
-807649.57      3.0832916      33.124777      25.895747      85.833989    
-807653.83      2.4792967      32.32861       25.855989      85.42543     
-807647.86      3.246862       31.67336       25.860916      85.016969    
-807626.61      2.84548        32.304242      25.898206      84.608248    
-807612.71      3.0490967      34.231021      25.964429      84.198966    
-807614.14      3.2503066      34.26358       25.921409      83.790312    
-807623.8       3.255198       33.582878      25.912379      83.381913    
-807633.07      3.6891571      32.069417      25.902919      82.973767    
-807645.44      3.0143201      32.409271      25.957401      82.565201    
-807656.06      2.7328019      32.11112       25.921813      82.157162    
-807652.24      2.7118513      32.806399      25.931451      81.749176    
-807640.07      3.2628305      31.909746      25.934157      81.341313    
-807626.65      3.2331461      31.186638      25.951671      80.933421    
-807618.52      3.0028925      33.161061      25.921846      80.525983    
-807612.94      2.9364583      34.248504      25.941266      80.118494    
-807622.04      2.7086859      31.371626      25.910649      79.711456    
-807634.36      3.5991639      31.977022      25.923611      79.304431    
-807652.57      2.6342306      31.436946      25.926028      78.897523    
-807655.28      3.2139865      32.092211      25.919772      78.490815    
-807648.13      3.5044716      32.433444      25.960046      78.083859    
-807639.2       3.1989099      31.874828      25.926605      77.677363    
-807630.36      2.6231755      31.69564       25.859048      77.271642    
-807615.65      3.5484569      33.761117      25.882424      76.865826    
-807609.93      3.0387967      33.892264      25.920893      76.459778    
-807624.49      2.7012599      32.332342      25.907878      76.053981    
-807642.97      3.0409902      31.603885      25.924699      75.648158    
-807650.88      2.8464164      32.209661      25.922282      75.242487    
-807650.05      3.1535465      33.003183      25.943094      74.836756    
-807650.17      3.634714       31.86313       25.935542      74.431222    
-807641.57      2.4613618      32.257397      25.920551      74.025948    
-807625.71      2.7776842      32.434551      25.905862      73.620925    
-807610.62      3.0453369      34.191024      25.922217      73.215881    
-807614.35      2.9956665      33.726878      25.933884      72.810859    
-807631.36      2.5437206      31.651334      25.926821      72.406019    
-807642.5       2.7307093      31.667704      25.940744      72.001181    
-807647.39      3.4437167      32.390306      25.928718      71.596565    
-807651.48      3.4528413      32.88758       25.919898      71.192139    
-807651.21      3.0216623      31.902069      25.919012      70.787838    
-807637.23      2.6765127      31.558562      25.903341      70.383778    
-807617.8       3.2511427      33.62487       25.928145      69.979629    
-807612.54      3.250824       34.740437      25.932517      69.575558    
-807619.21      3.1757145      34.086064      25.923503      69.171672    
-807628.15      3.4028166      32.684151      25.92992       68.767847    
-807638.82      3.2547489      32.15808       25.907428      68.364308    
-807650.52      2.9896106      33.623945      25.874525      67.961131    
-807654.41      2.7827873      32.881195      25.864849      67.55813     
-807644.86      3.0201736      32.789418      25.856036      67.155294    
-807631.06      3.3511965      32.770148      25.868251      66.752464    
-807620.9       2.6848589      33.316688      25.905319      66.349453    
-807613.02      2.8379113      35.365284      25.952329      65.946197    
-807616.08      2.4758967      34.254016      25.97016       65.542917    
-807626.44      3.2285658      32.878253      25.936834      65.139987    
-807644.61      2.7529656      32.781382      25.931456      64.737199    
-807651.78      3.4681147      33.433265      25.924385      64.334564    
-807650.53      2.5255521      33.390841      25.904587      63.932167    
-807640.33      2.9491912      32.828406      25.918594      63.529769    
-807635.48      2.6792981      31.668242      25.928695      63.127398    
-807619.36      2.8763535      33.858585      25.926263      62.725142    
-807610.99      2.8865028      35.678891      25.924948      62.32299     
-807615.85      3.1571884      34.350929      25.928465      61.920911    
-807634.39      3.0532723      33.171898      25.910189      61.519049    
-807644.87      3.4631712      33.627861      25.891546      61.117402    
-807650.27      3.3164465      33.296388      25.932198      60.715578    
-807647.93      4.7123035      33.748346      25.953101      60.313711    
-807644.89      3.3340916      31.952767      25.930883      59.912081    
-807631.71      3.9577239      32.633984      25.935636      59.510513    
-807617.74      3.2016491      33.597952      25.91071       59.109194    
-807612.03      3.5708518      34.670526      25.928235      58.707852    
-807622.94      2.9553349      33.479322      25.926746      58.306608    
-807635.38      2.5658292      32.556893      25.916328      57.905515    
-807646.24      3.1062166      32.569714      25.881096      57.504724    
-807650.46      3.6639749      33.238714      25.912965      57.10382     
-807650.81      3.3933293      32.851175      25.911014      56.703013    
-807644.26      2.9088383      31.877872      25.882387      56.302458    
-807626.71      3.0866051      32.126377      25.913556      55.901799    
-807616.77      2.7401513      33.094272      25.922719      55.50117     
-807614.75      2.9388291      34.4404        25.919162      55.100643    
-807623.71      3.4416836      33.2166        25.875146      54.700448    
-807634.71      3.1762633      32.140397      25.88519       54.300271    
-807648.42      3.0243401      31.757863      25.903739      53.900068    
-807653.43      3.1907484      32.330101      25.905956      53.499929    
-807650.8       3.3003485      31.931221      25.926225      53.099758    
-807638.98      2.8800336      31.995494      25.921292      52.699692    
-807626.7       4.2011873      32.853644      25.937351      52.299618    
-807618.54      2.9505016      33.873602      25.92247       51.899701    
-807615.15      3.2996846      34.787269      25.92539       51.499845    
-807622.81      3.1745277      33.054925      25.923296      51.100077    
-807638.59      3.028682       31.597452      25.915123      50.700425    
-807649.9       2.9982247      32.085026      25.897808      50.300936    
-807652.36      2.8732277      32.099924      25.912754      49.901442    
-807646.58      3.2513841      32.170523      25.905848      49.502056    
-807638.52      2.8274375      31.79265       25.921409      49.102664    
-807626.78      3.2928299      32.667973      25.927281      48.703316    
-807616.69      2.8381418      34.423408      25.925188      48.30405     
-807614.57      2.9957026      34.08899       25.928033      47.904842    
-807628.2       2.9239485      32.694534      25.907423      47.505803    
-807641.58      2.7011883      32.409799      25.899953      47.106866    
-807647.83      3.0687803      32.709834      25.925958      46.707877    
-807650.16      2.846903       32.588331      25.915747      46.309004    
-807647.59      3.2033463      31.184227      25.896679      45.910284    
-807636.25      2.6085521      31.684976      25.933673      45.511465    
-807623.54      4.2150273      32.422555      25.923507      45.11276     
-807615.77      3.7290789      32.921507      25.929418      44.714095    
-807617.8       3.4602868      33.774901      25.921606      44.315531    
-807630.3       3.9241852      33.152181      25.924408      43.917021    
-807641.15      2.9918598      33.331677      25.929244      43.518557    
-807648.11      4.8906508      33.595392      25.86999       43.120403    
-807648.95      3.2986833      33.801375      25.844363      42.722415    
-807644.44      3.5685121      33.254636      25.877672      42.324348    
-807632.81      3.1133396      32.438449      25.901448      41.926244    
-807620.77      3.4814116      33.476826      25.884853      41.528266    
-807614.54      3.6290012      34.13231       25.912989      41.130238    
-807620.89      2.9473971      33.066142      25.845674      40.732531    
-807631.99      3.3393807      31.291753      25.826574      40.334952    
-807641.7       3.5902821      31.604964      25.858263      39.937304    
-807647.97      3.6898813      32.901326      25.879823      39.539631    
-807650.94      2.9233142      32.138143      25.873828      39.142036    
-807641.26      3.8134585      32.453825      25.875544      38.74449     
-807631.09      3.276343       32.698265      25.895878      38.346926    
-807619.25      3.0713485      34.321322      25.885129      37.949457    
-807615.95      3.5724278      35.36368       25.874033      37.552081    
-807620.29      3.1837217      33.72389       25.956874      37.154474    
-807630.92      3.4051729      33.214639      25.947607      36.756959    
-807643.53      3.1200223      32.724001      25.94915       36.359498    
-807650.16      2.9947407      32.661199      25.893747      35.962279    
-807646.19      2.5537403      33.501461      25.896234      35.565106    
-807640.38      2.7732874      32.143375      25.893222      35.167997    
-807630.22      2.6772962      33.093582      25.925103      34.770839    
-807621.03      3.6344477      34.138159      25.897311      34.373824    
-807615.67      3.2393395      34.551586      25.927474      33.976767    
-807622.14      4.3775149      34.4346        25.930841      33.579756    
-807637.56      3.555852       32.420933      25.942558      33.182764    
-807645.22      4.4117395      32.98272       25.897859      32.785959    
-807648.25      3.5155669      33.178123      25.896229      32.38921     
-807645.71      3.7916969      32.593917      25.902464      31.992494    
-807641.06      3.0571475      31.780843      25.867674      31.595928    
-807628.99      3.8495534      32.828535      25.899945      31.199319    
-807618.35      3.8510504      33.103165      25.902447      30.802752    
-807617.13      3.1062516      33.792619      25.923382      30.406178    
-807627.65      3.1254515      32.805433      25.923372      30.009656    
-807637.85      4.0087033      32.863864      25.92173       29.613188    
-807645.57      4.0711412      32.661428      25.922509      29.216769    
-807649.06      2.9477388      32.279997      25.917244      28.820413    
-807648.13      3.1046713      31.880782      25.862664      28.424243    
-807638.83      2.9280592      32.081706      25.88675       28.028058    
-807626.79      3.3567041      32.556981      25.897275      27.631893    
-807618.68      2.7160937      33.159393      25.916597      27.235729    
-807619.33      3.0234979      33.720151      25.867266      26.839728    
-807628         3.0437284      32.931289      25.889235      26.44372     
-807637.36      4.1311238      32.570674      25.921857      26.047683    
-807647.39      3.208416       32.117002      25.893753      25.651756    
-807650.27      3.2534317      33.127049      25.924696      25.255806    
-807646.22      3.1651295      33.453619      25.930452      24.85989     
-807636.69      3.2548938      31.850707      25.925691      24.464031    
-807626.48      3.0858256      32.326396      25.970741      24.068125    
-807618.52      3.167798       33.845814      25.943772      23.672324    
-807619.44      2.6969382      32.833937      25.941478      23.276573    
-807627.53      2.9676002      31.87428       25.915049      22.880921    
-807640.5       2.9577085      31.583572      25.913248      22.485316    
-807646.4       3.246676       32.072845      25.903745      22.089773    
-807649.19      2.9544445      32.178614      25.912563      21.694257    
-807643.09      3.1649061      32.090166      25.922861      21.298765    
-807635.24      2.697876       32.016691      25.929001      20.903305    
-807623.79      2.9256295      32.636534      25.885734      20.507964    
-807617.74      2.7566118      34.040405      25.850701      20.112723    
-807618.21      3.2562424      33.803939      25.870029      19.717487    
-807631.03      2.5999778      32.224331      25.907139      19.32223     
-807639.65      2.7765734      32.447638      25.932641      18.926973    
-807647.51      2.617857       31.792186      25.920885      18.531777    
-807644.15      3.237134       33.404694      25.948813      18.13658     
-807642.16      3.0326717      32.288047      25.929226      17.741455    
-807633.94      2.830951       31.507353      25.884442      17.346436    
-807623.53      3.0890974      32.523149      25.882758      16.951457    
-807617.02      2.7785638      33.825224      25.864612      16.556541    
-807621.07      2.9493114      32.63449       25.869561      16.161655    
-807634.36      2.7855582      31.605226      25.913187      15.766748    
-807638.92      2.926682       32.431125      25.924344      15.371866    
-807645.77      3.5144665      32.486318      25.91997       14.977029    
-807646.06      2.963048       32.318296      25.894587      14.582261    
-807640.45      2.7815489      32.525564      25.889563      14.187536    
-807631.49      3.6583265      32.909966      25.887887      13.79285     
-807621.87      2.8454783      33.055243      25.893622      13.398193    
-807617.86      2.9266538      33.415328      25.892091      13.003574    
-807624         3.0419288      33.369509      25.880947      12.609002    
-807634.44      3.1632339      31.810659      25.906749      12.21444     
-807640.14      3.2423188      32.6442        25.912329      11.819909    
-807646.3       3.2661212      32.24189       25.877444      11.425447    
-807646.23      2.3424611      32.503202      25.863683      11.03103     
-807639.34      2.8957769      32.35768       25.867579      10.636644    
-807629.11      2.5497332      32.596517      25.906867      10.242258    
-807621.81      2.7531648      32.721623      25.887976      9.8479218    
-807619.88      3.2096056      32.933291      25.916827      9.4535982    
-807625.25      2.742055       32.408281      25.889127      9.05933      
-807633.69      2.8547652      32.182684      25.882079      8.6651002    
-807643.68      3.5538305      32.155878      25.865986      8.2709137    
-807648.02      3.4795593      32.114968      25.885107      7.8767469    
-807646.33      3.0664505      31.696272      25.902372      7.4826026    
-807637.88      2.8785767      32.070654      25.917601      7.0884832    
-807629.62      2.7104498      32.595612      25.930344      6.6943916    
-807622.08      3.3853026      32.91202       25.896029      6.3003517    
-807619.91      2.6854208      34.015955      25.892634      5.9063458    
-807624.07      2.8199598      32.748369      25.923166      5.5123589    
-807636.96      3.1296529      32.69074       25.896273      5.1184166    
-807644.43      2.9217281      32.450973      25.926442      4.724495     
-807648.11      2.9770267      32.189154      25.880391      4.3306226    
-807643.94      2.9693693      32.542007      25.878566      3.9367812    
-807638.96      3.2985397      31.867542      25.874989      3.542971     
-807629.1       3.0269283      32.654716      25.881017      3.1491892    
-807620.34      3.4603407      33.351806      25.904884      2.7554323    
-807618.77      2.4359624      33.079926      25.889605      2.3617095    
-807629.59      2.5877497      31.999211      25.865729      1.9680205    
-807640.42      2.5769675      31.099541      25.855491      1.5743613    
-807642.9       4.2496418      32.705549      25.881532      1.1807274    
-807646.24      3.1201784      32.11411       25.903351      0.78712137   
-807644.94      3.4856058      32.392477      25.920594      0.39354512   
-807637.63      3.0894396      31.786489      25.890775      0            
Loop time of 196.765 on 32 procs for 5000 steps with 1080 atoms

Performance: 4.391 ns/day, 5.466 hours/ns, 25.411 timesteps/s, 27.444 katom-step/s
68.7% CPU use with 32 MPI tasks x 1 OpenMP threads

MPI task timing breakdown:
Section |  min time  |  avg time  |  max time  |%varavg| %total
---------------------------------------------------------------
Pair    | 104.34     | 145.5      | 192.49     | 310.0 | 73.95
Neigh   | 0          | 0          | 0          |   0.0 |  0.00
Comm    | 1.9853     | 48.977     | 90.136     | 534.3 | 24.89
Output  | 0.025054   | 0.026524   | 0.027694   |   0.3 |  0.01
Modify  | 1.9323     | 1.9502     | 1.9615     |   0.5 |  0.99
Other   |            | 0.3127     |            |       |  0.16

Nlocal:          33.75 ave          48 max          21 min
Histogram: 8 8 0 0 0 0 0 8 0 8
Nghost:        1106.25 ave        1119 max        1092 min
Histogram: 8 0 8 0 0 0 0 0 8 8
Neighs:              0 ave           0 max           0 min
Histogram: 32 0 0 0 0 0 0 0 0 0
FullNghs:       5494.5 ave        7896 max        3378 min
Histogram: 8 8 0 0 0 0 0 8 0 8

Total # of neighbors = 175824
Ave neighs/atom = 162.8
Neighbor list builds = 0
Dangerous builds = 0

reset_timestep 0


variable interval equal 1000
thermo 10

variable nintervals equal $(v_PERIOD/v_interval)
variable nintervals equal 100
variable efield equal 1e-2*36.36*cos((step/${PERIOD})*2*3.14)
variable efield equal 1e-2*36.36*cos((step/100000)*2*3.14)
fix born all addbornforce 0.0 0.0 v_efield

variable Px equal f_born[1]+c_polarization[1]
variable Py equal f_born[2]+c_polarization[2]
variable Pz equal (f_born[3]+c_polarization[3])/vol
variable pe equal pe

fix aveP all ave/time 1 $(v_interval/2) ${interval} v_efield v_Pz v_pe f_born file Pz.${MODEL}.${STRUCTURE}.${TEMP}.$L.${ITER}
fix aveP all ave/time 1 500 ${interval} v_efield v_Pz v_pe f_born file Pz.${MODEL}.${STRUCTURE}.${TEMP}.$L.${ITER}
fix aveP all ave/time 1 500 1000 v_efield v_Pz v_pe f_born file Pz.${MODEL}.${STRUCTURE}.${TEMP}.$L.${ITER}
fix aveP all ave/time 1 500 1000 v_efield v_Pz v_pe f_born file Pz.BaTiO3-E0.${STRUCTURE}.${TEMP}.$L.${ITER}
fix aveP all ave/time 1 500 1000 v_efield v_Pz v_pe f_born file Pz.BaTiO3-E0.BaTiO3-sc333.${TEMP}.$L.${ITER}
fix aveP all ave/time 1 500 1000 v_efield v_Pz v_pe f_born file Pz.BaTiO3-E0.BaTiO3-sc333.280.$L.${ITER}
fix aveP all ave/time 1 500 1000 v_efield v_Pz v_pe f_born file Pz.BaTiO3-E0.BaTiO3-sc333.280.2.${ITER}
fix aveP all ave/time 1 500 1000 v_efield v_Pz v_pe f_born file Pz.BaTiO3-E0.BaTiO3-sc333.280.2.8

thermo_style custom step time temp press pe f_born v_efield v_Pz spcpu cpuremain

# dump 4a all custom 1000 dump.hyst.${MODEL}.${STRUCTURE}.${TEMP}.$L.${ITER}.bin id type xu yu zu fx fy fz
# dump_modify 4a sort id

fix nvt all nvt temp ${TEMP} ${TEMP} $(100*dt)
fix nvt all nvt temp 280 ${TEMP} $(100*dt)
fix nvt all nvt temp 280 280 $(100*dt)
fix nvt all nvt temp 280 280 0.2000000000000000111

run $(v_PERIOD)
run 100000
WARNING: non-constant efield is experimental, strongly distrust scalar/vector output (src/fix_addbornforce.cpp:193)
Per MPI rank memory allocation (min/avg/max) = 3.516 | 3.516 | 3.516 Mbytes
   Step          Time           Temp          Press          PotEng         f_born        v_efield         v_Pz          S/CPU         CPULeft    
         0   0              281.09783      130028.1      -807637.63     -301.65981      0.3636         0.056733698    0              0            
        10   0.02           284.42586      139983.28     -807625.55     -314.22383      0.36359993     0.059096648    29.840107      3350.8781    
        20   0.04           271.07653      143257.49     -807620.25     -317.75053      0.36359971     0.059759957    29.826798      3351.2814    
        30   0.06           276.03741      143391.36     -807622.77     -315.82403      0.36359935     0.059397693    29.777546      3353.0398    
        40   0.08           284.86977      135883.67     -807631.6      -308.33418      0.36359885     0.057989142    29.875023      3351.014     
        50   0.1            286.98587      129407.13     -807638.27     -301.818        0.36359821     0.056763729    29.769225      3352.041     
        60   0.12           269.70689      122749.72     -807646.02     -291.59711      0.36359742     0.054841578    29.804081      3351.9601    
        70   0.14           255.80822      123425.45     -807646.74     -288.81918      0.36359649     0.054319262    29.894628      3350.3556    
        80   0.16           277.98986      125099.58     -807644.52     -294.15498      0.36359541     0.05532295     29.934816      3348.5084    
        90   0.18           282.34492      133517.16     -807633.42     -305.82066      0.36359419     0.057517157    29.897861      3347.4546    
       100   0.2            284.75604      140030.62     -807625.55     -313.90089      0.36359283     0.059037064    29.816954      3347.4519    
       110   0.22           271.78206      143222.29     -807621.7      -315.77455      0.36359132     0.059389701    29.772184      3347.8466    
       120   0.24           283.26174      141622.39     -807624.33     -314.62959      0.36358968     0.059174629    29.798176      3347.8758    
       130   0.26           280.47613      136239.28     -807628.94     -309.43439      0.36358788     0.058197817    29.790327      3347.917     
       140   0.28           285.28268      128200.41     -807639.96     -298.83215      0.36358595     0.056204068    29.808722      3347.7561    
       150   0.3            266.95968      123735.03     -807646.23     -289.71791      0.36358387     0.054490182    29.826407      3347.4401    
       160   0.32           269.06744      122769.9      -807646.47     -289.51041      0.36358165     0.054451487    29.836059      3347.0537    
       170   0.34           281.85155      126801.72     -807639.52     -298.01597      0.36357928     0.05605159     29.804484      3346.8816    
       180   0.36           292.75477      134120.42     -807632.72     -306.10558      0.36357677     0.057573501    29.831484      3346.5231    
       190   0.38           288.79468      140209.21     -807625.77     -312.17307      0.36357412     0.058715125    29.82957       3346.1785    
       200   0.4            279.93657      144016.91     -807620.04     -316.44015      0.36357132     0.059518157    29.812875      3345.9286    
       210   0.42           284.90538      142245.69     -807621.49     -315.4623       0.36356838     0.059334716    29.773794      3345.8794    
       220   0.44           287.10901      136159.96     -807629.15     -307.8111       0.3635653      0.057896109    29.757977      3345.8849    
       230   0.46           285.43593      127765.32     -807641.09     -295.44499      0.36356207     0.055570664    29.856839      3345.3788    
       240   0.48           288.00424      123594.68     -807645.76     -290.90004      0.3635587      0.054716305    29.873023      3344.8112    
       250   0.5            269.37741      123435.14     -807642.01     -292.00214      0.36355519     0.054924132    29.891688      3344.1786    
       260   0.52           299.75595      127987.67     -807640.76     -297.43461      0.36355153     0.055946515    29.830285      3343.8335    
       270   0.54           293.12384      133562.61     -807633.06     -304.23087      0.36354773     0.057225469    29.92428       3343.1001    
       280   0.56           300.27556      141884.54     -807624.39     -313.85301      0.36354379     0.059036023    29.982838      3342.1625    
       290   0.58           287.30309      143403.23     -807618.94     -317.55972      0.3635397      0.059733928    29.919678      3341.509     
       300   0.6            289.33563      141279.99     -807623.52     -313.24335      0.36353547     0.058922692    29.951316      3340.7591    
       310   0.62           293.17437      133078.58     -807634.26     -303.08308      0.3635311      0.05701218     29.911346      3340.1798    
       320   0.64           285.78853      127914.58     -807639.4      -296.94478      0.36352658     0.055858214    29.925124      3339.5676    
       330   0.66           281.22714      123378.79     -807643.41     -292.41764      0.36352192     0.055007319    29.909415      3339.0254    
       340   0.68           267.41194      125162.5      -807641.93     -291.96217      0.36351712     0.054922365    29.888949      3338.5624    
       350   0.7            288.02775      128484.94     -807640.27     -296.66256      0.36351217     0.055807336    29.893024      3338.0939    
       360   0.72           288.26619      136226.51     -807628.64     -308.47383      0.36350708     0.058030052    29.941808      3337.4821    
       370   0.74           293.06477      141555        -807622.27     -315.67772      0.36350185     0.059386102    29.891794      3337.0356    
       380   0.76           285.37306      142698.26     -807620.82     -316.05403      0.36349647     0.059457774    29.896157      3336.5822    
       390   0.78           295.50937      138555.74     -807628.37     -310.03701      0.36349095     0.058326706    29.798852      3336.4139    
       400   0.8            287.63615      133347.08     -807633.32     -304.21195      0.36348529     0.05723174     29.795411      3336.2469    
       410   0.82           285.52011      126476.08     -807639.92     -297.36994      0.36347948     0.055945439    29.84825       3335.9273    
       420   0.84           272.33145      122906.03     -807645.44     -290.11242      0.36347353     0.054580944    29.820189      3335.6818    
       430   0.86           265.8394       125631.97     -807643.02     -291.64287      0.36346744     0.054869799    29.795727      3335.4959    
       440   0.88           283.32292      129526.21     -807637.1      -300.26825      0.3634612      0.056493551    29.766539      3335.3775    
       450   0.9            287.36725      137982.53     -807627.04     -310.9666       0.36345482     0.058507404    29.847964      3335.0468    
       460   0.92           291.77924      140467.83     -807625.54     -313.21273      0.3634483      0.058931064    29.863801      3334.6775    
       470   0.94           279.87459      143004.98     -807622.48     -314.60262      0.36344163     0.059193659    29.791257      3334.4823    
       480   0.96           273.94553      138055.12     -807626.07     -310.40846      0.36343482     0.058405606    29.794964      3334.2726    
       490   0.98           294.5995       132708.62     -807634.7      -304.65587      0.36342786     0.057324312    29.799497      3334.0473    
       500   1              287.6196       123669.59     -807644.34     -294.09965      0.36342077     0.055339124    29.892787      3333.6093    
       510   1.02           255.68652      125457.04     -807643.23     -9304.9627      0.36341353     0.05471559     29.833206      3333.3057    
       520   1.04           279.8113       124852.43     -807643.9      -9397.079       0.36340614     0.05525838     29.795281      3333.0825    
       530   1.06           286.42688      132440.31     -807635.84     -9686.1825      0.36339862     0.056959599    29.727672      3332.9982    
       540   1.08           292.46281      135831.85     -807631.56     -9854.9349      0.36339095     0.05795317     29.704896      3332.9521    
       550   1.1            279.30175      142490.65     -807623.79     -10043.863      0.36338313     0.059065453    29.792063      3332.7173    
       560   1.12           270.3764       140560.9      -807622.78     -10042.563      0.36337518     0.059059104    29.809337      3332.4445    
       570   1.14           279.66988      139232.88     -807626        -9979.2527      0.36336707     0.058688092    29.777348      3332.2323    
       580   1.16           280.25737      129982.51     -807637.14     -9627.9424      0.36335883     0.056623316    29.772239      3332.0257    
       590   1.18           273.49053      126960.17     -807642.44     -9425.3174      0.36335044     0.055432929    29.745518      3331.8655    
       600   1.2            264.90182      123962.17     -807644.13     -9335.353       0.36334191     0.054905112    29.754964      3331.6818    
       610   1.22           274.73136      127628.07     -807640.49     -9494.4944      0.36333324     0.055842422    29.732244      3331.535     
       620   1.24           285.7503       130206.19     -807637.81     -9631.9166      0.36332442     0.056652054    29.678806      3331.4791    
       630   1.26           287.71356      137929.57     -807629.8      -9897.0849      0.36331546     0.05821313     29.733455      3331.3166    
       640   1.28           273.40507      141557.02     -807621.93     -10086.777      0.36330636     0.059330359    29.779873      3331.0673    
       650   1.3            277.132        142176.1      -807622.45     -10087.288      0.36329711     0.059334875    29.788094      3330.8012    
       660   1.32           283.1242       135910.3      -807630.91     -9843.7845      0.36328772     0.057904046    29.790629      3330.5287    
       670   1.34           273.862        130264.52     -807637.11     -9601.7         0.36327819     0.056481516    29.73009       3330.3556    
       680   1.36           270.5778       125504.3      -807641.84     -9436.9248      0.36326851     0.055513713    29.762014      3330.125     
       690   1.38           270.54281      123944.02     -807643.83     -9369.51        0.36325869     0.055118628    29.74199       3329.9239    
       700   1.4            272.44979      126827.66     -807641.8      -9442.3344      0.36324873     0.055548561    29.765782      3329.6809    
       710   1.42           289.21035      131661.59     -807637        -9671.1566      0.36323863     0.056896288    29.812879      3329.361     
       720   1.44           281.33043      139606.69     -807626.02     -9987.1346      0.36322838     0.058756873    29.733671      3329.1638    
       730   1.46           284.40922      141555.12     -807624.13     -10059.894      0.36321798     0.059186627    29.779037      3328.8932    
       740   1.48           283.07517      140665.82     -807626.03     -9987.5047      0.36320745     0.058762436    29.76225       3328.6463    
       750   1.5            273.61746      135344.97     -807631.5      -9768.8039      0.36319677     0.057477379    29.801641      3328.3381    
       760   1.52           286.19318      128953.64     -807637.97     -9613.8218      0.36318595     0.056567186    29.748998      3328.1068    
       770   1.54           274.41427      124602.54     -807642.87     -9399.8648      0.36317498     0.055309945    29.754246      3327.8652    
       780   1.56           271.02246      125274.11     -807643.84     -9345.951       0.36316387     0.054994392    29.78644       3327.5749    
       790   1.58           274.19421      128274.61     -807639.17     -9505.3501      0.36315262     0.055934077    29.741335      3327.3475    
       800   1.6            293.04393      134207.23     -807632.51     -9795.1968      0.36314122     0.057641484    29.703902      3327.1697    
       810   1.62           286.76985      139751.11     -807624.74     -10007.241      0.36312968     0.058891167    29.806691      3326.8459    
       820   1.64           285.50211      141238.54     -807624.36     -10002.521      0.363118       0.058865282    29.77916       3326.5594    
       830   1.66           287.31112      140093.06     -807625.79     -9954.2103      0.36310618     0.05858288     29.766723      3326.2884    
       840   1.68           288.94538      133717.22     -807630.42     -9805.3243      0.36309421     0.057708552    29.815312      3325.9513    
       850   1.7            295.22694      129476        -807638.28     -9568.9372      0.3630821      0.056319191    29.828114      3325.5974    
       860   1.72           280.44953      124727.9      -807644.06     -9310.5555      0.36306984     0.054800303    29.762126      3325.3296    
       870   1.74           284.21755      126327.49     -807642.09     -9382.5673      0.36305745     0.055226037    29.792823      3325.0209    
       880   1.76           285.19946      128083.85     -807636.17     -9575.8727      0.3630449      0.056365785    29.775191      3324.7338    
       890   1.78           302.57077      135372.17     -807631.25     -9805.2909      0.36303222     0.057718209    29.702891      3324.5368    
       900   1.8            298.64604      138880.18     -807627.7      -9899.8426      0.36301939     0.058276841    29.733504      3324.2984    
       910   1.82           289.31892      143315.04     -807622.03     -10036.767      0.36300642     0.059084977    29.69375       3324.107     
       920   1.84           284.60455      140227.27     -807623.5      -9968.6653      0.36299331     0.058686192    29.709326      3323.8934    
       930   1.86           292.4356       134145.36     -807631.59     -9742.9565      0.36298005     0.057359525    29.73009       3323.6521    
       940   1.88           296.87997      127927.43     -807641.62     -9441.8437      0.36296665     0.055588841    29.684264      3323.4634    
       950   1.9            289.04257      125043.73     -807642.73     -9372.0082      0.36295311     0.055179744    29.67808       3323.279     
       960   1.92           276.96712      126188.65     -807638.88     -9443.2236      0.36293942     0.055601136    29.702121      3323.0632    
       970   1.94           297.88136      129392.6      -807638.64     -9548.7497      0.36292559     0.05622461     29.715269      3322.8298    
       980   1.96           300.94627      135911.78     -807632.33     -9768.7257      0.36291162     0.05752208     29.727479      3322.5803    
       990   1.98           290.46017      140323.58     -807624.81     -9971.0748      0.3628975      0.058715874    29.768171      3322.2831    
      1000   2              286.11352      142174.89     -807620.87     -10083.09       0.36288325     0.059377819    29.779247      3321.9726    
      1010   2.02           292.57735      137128.51     -807628.29     -308.80302      0.36286884     0.058194155    29.912063      3321.5156    
      1020   2.04           292.26481      132999.71     -807635.05     -302.16359      0.3628543      0.056945234    29.898371      3321.0758    
      1030   2.06           269.63959      127635.74     -807637.42     -296.89433      0.36283961     0.055954463    29.856457      3320.6832    
      1040   2.08           280.59848      125827.37     -807642.06     -293.9045       0.36282478     0.055393245    29.913425      3320.231     
      1050   2.1            287.20314      125129.75     -807643.65     -293.50016      0.3628098      0.055319322    29.871032      3319.8258    
      1060   2.12           281.87164      130679.28     -807637.09     -299.5826       0.36279469     0.056468102    29.877602      3319.415     
      1070   2.14           283.28052      135289.03     -807629.96     -307.12769      0.36277943     0.057892705    29.929595      3318.9519    
      1080   2.16           288.14144      140278.26     -807624.97     -312.94088      0.36276402     0.058990979    29.927224      3318.4936    
      1090   2.18           275.92762      139721.77     -807625.46     -311.01472      0.36274848     0.058630401    29.893864      3318.0714    
      1100   2.2            285.98414      137263.38     -807629.7      -308.1648       0.36273279     0.058095666    29.828139      3317.7171    
      1110   2.22           282.09129      130662.58     -807635.09     -302.38177      0.36271695     0.057007929    29.882123      3317.3091    
      1120   2.24           273.75868      128143.56     -807638.86     -297.52635      0.36270098     0.056095009    29.927336      3316.8579    
      1130   2.26           265.06696      124871.71     -807643.33     -291.87405      0.36268486     0.055031783    29.801728      3316.5319    
      1140   2.28           271.68854      127449.4      -807641.44     -294.6828       0.3626686      0.055563853    29.832936      3316.1753    
      1150   2.3            282.38022      130076.08     -807636.43     -301.31141      0.36265219     0.05681628     29.926755      3315.7288    
      1160   2.32           283.24743      136755.64     -807629.41     -308.46114      0.36263564     0.058167111    29.836691      3315.3701    
      1170   2.34           280.40638      139029.58     -807627        -310.49962      0.36261895     0.058554205    29.855424      3314.9941    
      1180   2.36           274.77649      140600.39     -807625.59     -311.1471       0.36260212     0.058679032    29.796165      3314.6746    
      1190   2.38           276.56743      136018        -807628.95     -308.08382      0.36258514     0.05810405     29.87221       3314.2839    
      1200   2.4            289.29106      130813.73     -807636.61     -302.14476      0.36256802     0.056986645    29.796897      3313.9637    
      1210   2.42           264.1773       126846.45     -807640.13     -295.07395      0.36255076     0.055655689    29.790809      3313.6489    
      1220   2.44           271.88409      126099.18     -807642.84     -293.39         0.36253335     0.055340726    29.815517      3313.3112    
      1230   2.46           277.70722      127809.64     -807640.09     -296.98456      0.3625158      0.056021462    29.768419      3313.0162    
      1240   2.48           283.65976      132224.74     -807635.36     -302.50726      0.36249811     0.057066018    29.808944      3312.6841    
      1250   2.5            285.8655       135961.48     -807631.62     -306.56133      0.36248028     0.057833637    29.876374      3312.2922    
      1260   2.52           274.68295      140117.3      -807625.44     -311.13566      0.3624623      0.058699509    29.887843      3311.8912    
      1270   2.54           274.49982      138960.35     -807625.81     -310.76908      0.36244418     0.058633279    29.965329      3311.4239    
      1280   2.56           275.45327      136006.05     -807629.47     -307.1299       0.36242592     0.05794959     29.882011      3311.0305    
      1290   2.58           283.28255      130299.88     -807638.27     -299.34928      0.36240751     0.056484404    29.927543      3310.5989    
      1300   2.6            273.84945      127155.18     -807641.17     -295.06405      0.36238896     0.055678672    29.936247      3310.1616    
      1310   2.62           271.44259      125967.57     -807641.18     -294.57792      0.36237027     0.055589805    29.903123      3309.7537    
      1320   2.64           272.17313      127722.32     -807639.03     -296.84418      0.36235143     0.056020382    29.871232      3309.3736    
      1330   2.66           284.13261      132808.48     -807634.93     -302.48718      0.36233245     0.05708832     29.87562       3308.9905    
      1340   2.68           278.31569      136823.37     -807628.39     -308.18804      0.36231333     0.058167311    29.865145      3308.6168    
      1350   2.7            271.35404      140461.15     -807623.73     -311.75223      0.36229407     0.058843144    29.912756      3308.2047    
      1360   2.72           280.4239       138143.86     -807627.28     -309.38401      0.36227466     0.058399271    29.96099       3307.7547    
      1370   2.74           284.7271       135837.66     -807631.52     -305.49259      0.36225511     0.05766784     29.965191      3307.3031    
      1380   2.76           285.78613      129418.59     -807638.53     -298.45699      0.36223542     0.056342792    29.832259      3306.9594    
      1390   2.78           279.52355      127977.93     -807639.78     -296.0077       0.36221558     0.055883474    29.845958      3306.605     
      1400   2.8            285.51124      123930.13     -807643.63     -292.82435      0.3621956      0.055285536    29.866191      3306.2349    
      1410   2.82           282.08315      130099.32     -807637.59     -298.03627      0.36217548     0.056272678    29.801139      3305.9163    
      1420   2.84           279.9719       131573.48     -807633.07     -302.15083      0.36215522     0.057052747    29.749857      3305.6376    
      1430   2.86           286.89838      139326.83     -807625.9      -309.94676      0.36213481     0.058528088    29.764873      3305.3465    
      1440   2.88           280.79203      138583.88     -807624.56     -310.24668      0.36211426     0.058588048    29.887331      3304.9605    
      1450   2.9            291.50742      139813.84     -807625.93     -310.01428      0.36209357     0.058547507    29.844011      3304.6082    
      1460   2.92           290.38749      133323.54     -807631.93     -303.6324       0.36207273     0.057345561    29.920582      3304.1984    
      1470   2.94           287.23517      131466.48     -807635.4      -299.43144      0.36205176     0.056555423    29.886296      3303.8152    
      1480   2.96           274.57688      126356.37     -807640.08     -292.85139      0.36203064     0.055315837    29.885185      3303.4335    
      1490   2.98           288.31766      127826.9      -807641.09     -293.47244      0.36200937     0.055436401    29.836965      3303.0882    
      1500   3              294.77028      128286.58     -807638.41     -297.01131      0.36198796     0.056108205    29.850992      3302.7327    
      1510   3.02           286.40043      135185.6      -807630.01     -9732.9661      0.36196642     0.057461171    29.77916       3302.4302    
      1520   3.04           295.83747      137941.69     -807627.13     -9865.4938      0.36194472     0.058247074    29.794987      3302.1157    
      1530   3.06           293.46214      140178.26     -807624.51     -9935.7693      0.36192289     0.058665529    29.787239      3301.8065    
      1540   3.08           291.60479      138457.43     -807626.6      -9861.5697      0.36190091     0.058230955    29.739451      3301.5315    
      1550   3.1            293.88996      134882.49     -807631.17     -9723.7773      0.36187879     0.057420823    29.75659       3301.2433    
      1560   3.12           291.92401      129968.59     -807637.66     -9508.7521      0.36185653     0.056154511    29.728442      3300.9747    
      1570   3.14           275.39046      126955.1      -807640.39     -9350.3267      0.36183412     0.05522234     29.7308        3300.7035    
      1580   3.16           284.07672      126887.99     -807640.16     -9399.5         0.36181157     0.055516213    29.758866      3300.4117    
      1590   3.18           291.71674      128826.35     -807637.01     -9541.0443      0.36178888     0.05635575     29.727084      3300.1416    
      1600   3.2            287.96123      135497.06     -807629.74     -9761.5814      0.36176605     0.057662028    29.706262      3299.8852    
      1610   3.22           289.49533      138304.42     -807626.87     -9868.1597      0.36174307     0.058295292    29.753041      3299.5954    
      1620   3.24           283.17748      140957.75     -807623.77     -9946.679       0.36171995     0.058762894    29.714048      3299.3319    
      1630   3.26           290.36489      137122.28     -807627.69     -9862.6603      0.36169669     0.058270276    29.743714      3299.0471    
      1640   3.28           291.91609      133490.09     -807633.82     -9679.0193      0.36167329     0.057188995    29.780046      3298.7372    
      1650   3.3            280.03094      126669.57     -807640.17     -9432.3583      0.36164974     0.055735214    29.768146      3298.4349    
      1660   3.32           276.20275      126833.49     -807640.76     -9400.5089      0.36162605     0.055550656    29.725751      3298.1607    
      1670   3.34           278.29022      125578.39     -807641.09     -9409.6442      0.36160222     0.055608305    29.787047      3297.8449    
      1680   3.36           284.9645       131750.92     -807636.65     -9584.3439      0.36157824     0.056644486    29.831047      3297.4999    
      1690   3.38           277.39489      134144.25     -807631.95     -9708.9223      0.36155413     0.057384584    29.796878      3297.1774    
      1700   3.4            284.3544       140319.73     -807625.04     -9960.2734      0.36152987     0.058874146    29.762596      3296.8771    
      1710   3.42           286.33258      138506.49     -807626.87     -9916.4542      0.36150546     0.058619092    29.737024      3296.5929    
      1720   3.44           278.33232      137864.24     -807629.03     -9810.5034      0.36148092     0.057996723    29.746878      3296.3018    
      1730   3.46           285.60881      131068.09     -807637.54     -9572.3936      0.36145623     0.056592955    29.732386      3296.0195    
      1740   3.48           277.03258      128673.7      -807639.16     -9480.88        0.3614314      0.056055768    29.71617       3295.7469    
      1750   3.5            276.10941      124448.05     -807642.87     -9360.0381      0.36140643     0.055345113    29.76066       3295.4454    
      1760   3.52           280.18678      127397.2      -807642.54     -9386.8602      0.36138131     0.055507568    29.797219      3295.1204    
      1770   3.54           273.19609      130330.25     -807636.38     -9555.9828      0.36135605     0.056511595    29.748126      3294.8261    
      1780   3.56           283.93173      136893.24     -807629.95     -9810.334       0.36133065     0.05801984     29.784314      3294.5088    
      1790   3.58           276.54198      139155.74     -807625.54     -9917.9374      0.36130511     0.05866037     29.75604       3294.2087    
      1800   3.6            285.51806      138570.02     -807627.83     -9883.5541      0.36127942     0.058461164    29.739402      3293.9185    
      1810   3.62           279.46074      136186.35     -807630.79     -9762.1578      0.3612536      0.057747233    29.68872       3293.659     
      1820   3.64           277.8225       131469.11     -807634.73     -9628.7357      0.36122763     0.056962081    29.686652      3293.3998    
      1830   3.66           277.95323      127341.85     -807640.37     -9446.7866      0.36120151     0.055889739    29.64431       3293.1657    
      1840   3.68           268.39578      125846.15     -807643.49     -9302.24        0.36117526     0.055038563    29.634763      3292.9361    
      1850   3.7            274.66159      127682.31     -807640.7      -9418.8939      0.36114886     0.055732843    29.669427      3292.6846    
      1860   3.72           286.38173      130626.09     -807635.79     -9630.6601      0.36112232     0.056990079    29.635456      3292.4525    
      1870   3.74           279.94803      137429.3      -807628.72     -9825.1847      0.36109564     0.058145488    29.616986      3292.2303    
      1880   3.76           276.54931      138561.4      -807627.7      -9842.2994      0.36106881     0.0582511      29.674746      3291.9725    
      1890   3.78           284.82723      138721.42     -807628.5      -9851.442       0.36104184     0.058309565    29.703483      3291.6971    
      1900   3.8            287.42609      133836.98     -807631.69     -9761.8538      0.36101474     0.057783642    29.651161      3291.4516    
      1910   3.82           275.90259      131218.66     -807635.13     -9595.94        0.36098748     0.056805831    29.673756      3291.192     
      1920   3.84           272.43883      126921.59     -807642.68     -9337.2821      0.36096009     0.055278829    29.655988      3290.9419    
      1930   3.86           277.62154      126564.39     -807642.57     -9361.4988      0.36093255     0.055426426    29.708259      3290.6607    
      1940   3.88           279.04984      128042.81     -807638.19     -9508.0584      0.36090487     0.056298476    29.787177      3290.3339    
      1950   3.9            280.63189      133640.51     -807633.31     -9667.8919      0.36087705     0.057249284    29.779551      3290.0113    
      1960   3.92           289.93628      135848.05     -807632.22     -9743.1936      0.36084909     0.057699661    29.814841      3289.6688    
      1970   3.94           286.40823      138878.84     -807627.95     -9859.1477      0.36082098     0.058390895    29.7882        3289.3412    
      1980   3.96           280.78777      138176.46     -807626.36     -9884.241       0.36079273     0.058544093    29.890382      3288.9567    
      1990   3.98           283.0313       133841.75     -807631.73     -9718.2199      0.36076434     0.057565284    29.788429      3288.6291    
      2000   4              279.0933       130183.48     -807638.64     -9475.5975      0.36073581     0.056132565    29.781781      3288.3051    
      2010   4.02           270.77276      126153.69     -807640.98     -292.47616      0.36070713     0.055447665    29.838737      3287.9497    
      2020   4.04           275.53059      127298.2      -807639.12     -294.90469      0.36067831     0.055912533    29.836269      3287.5959    
      2030   4.06           280.54458      128827.02     -807637.92     -296.76879      0.36064935     0.056270476    29.829966      3287.2457    
      2040   4.08           288.28307      134106.52     -807635.12     -300.40669      0.36062025     0.056964856    29.799427      3286.9122    
      2050   4.1            283.84038      135992.12     -807629.98     -304.91923      0.36059101     0.05782524     29.854067      3286.5492    
      2060   4.12           285.64894      139789.49     -807625.16     -309.82734      0.36056162     0.058760808    29.780288      3286.226     
      2070   4.14           290.10716      136573.1      -807629.7      -305.7981       0.36053209     0.058001386    29.810123      3285.8868    
      2080   4.16           279.51933      134645.24     -807632.67     -301.11006      0.36050242     0.057116895    29.820609      3285.542     
      2090   4.18           288.88681      128953.64     -807639.59     -295.38012      0.36047261     0.05603463     29.750908      3285.2342    
      2100   4.2            280.77256      127810.12     -807638.88     -294.73424      0.36044265     0.055916751    29.792879      3284.904     
      2110   4.22           286.11075      126452.76     -807641.17     -293.11078      0.36041256     0.055613394    29.796097      3284.5721    
      2120   4.24           284.03001      130794.54     -807637.99     -295.81377      0.36038232     0.056130955    29.800264      3284.2379    
      2130   4.26           288.04021      133902.71     -807632.78     -301.50611      0.36035193     0.057215907    29.795489      3283.9062    
      2140   4.28           288.28212      138359.02     -807627.29     -306.88442      0.36032141     0.058241465    29.803608      3283.5704    
      2150   4.3            286.04282      137502.25     -807626.81     -306.97488      0.36029075     0.058263591    29.829754      3283.2211    
      2160   4.32           288.28425      136440.14     -807629.58     -304.28895      0.36025994     0.057758742    29.839558      3282.867     
      2170   4.34           289.27286      132392.35     -807634.14     -299.80104      0.36022899     0.056911757    29.785083      3282.5406    
      2180   4.36           296.67396      129525.07     -807637.48     -297.33786      0.36019789     0.056449039    29.798968      3282.2072    
      2190   4.38           285.83002      126700.42     -807640.01     -293.24957      0.36016666     0.055677714    29.950004      3281.7982    
      2200   4.4            288.41706      127720.25     -807640.16     -293.39728      0.36013528     0.055710612    29.916138      3281.4066    
      2210   4.42           281.46092      131535.99     -807635.12     -297.4477       0.36010377     0.056484653    29.818485      3281.064     
      2220   4.44           285.28713      134934.77     -807629.91     -303.20212      0.36007211     0.057582469    29.856457      3280.7027    
      2230   4.46           296.8319       137397.22     -807628.55     -306.15959      0.3600403      0.05814927     29.87188       3280.3341    
      2240   4.48           286.58571      137712.6      -807628.3      -304.99147      0.36000836     0.057932547    29.854969      3279.974     
      2250   4.5            296.53826      136747.77     -807630.31     -304.36817      0.35997627     0.057819306    29.865282      3279.6091    
      2260   4.52           285.53476      132478.04     -807633.59     -299.69134      0.35994404     0.056935969    29.867144      3279.2436    
      2270   4.54           293.09001      130109.99     -807638.99     -295.36357      0.35991167     0.056118817    29.801437      3278.9101    
      2280   4.56           277.78965      126089.86     -807641.07     -291.36774      0.35987916     0.055364614    29.731707      3278.6104    
      2290   4.58           276.70445      130254.35     -807637.99     -294.44572      0.35984651     0.055954557    29.817641      3278.269     
      2300   4.6            285.08735      130678.19     -807635.86     -298.08588      0.35981371     0.056651473    29.817703      3277.9275    
      2310   4.62           288.1327       135921.01     -807631.53     -303.01481      0.35978077     0.057593493    29.784661      3277.6019    
      2320   4.64           279.51911      135909.08     -807628.79     -304.83087      0.35974769     0.057943997    29.804563      3277.2668    
      2330   4.66           285.33426      138614.15     -807627.94     -306.66294      0.35971447     0.058297631    29.802565      3276.9326    
      2340   4.68           281.35588      134113.45     -807631.07     -303.32731      0.35968111     0.057668864    29.799446      3276.5998    
      2350   4.7            280.3279       132894.97     -807634.33     -300.01985      0.3596476      0.057045362    29.81219       3276.2611    
      2360   4.72           275.72616      127535.43     -807640.53     -293.45785      0.35961396     0.055802892    29.822802      3275.9174    
      2370   4.74           268.15233      128401.12     -807639.3      -293.73911      0.35958017     0.055861624    29.810235      3275.5797    
      2380   4.76           272.93017      127719.31     -807639.85     -294.06576      0.35954624     0.055929024    29.803037      3275.2453    
      2390   4.78           282.2772       131901.62     -807636.9      -298.34939      0.35951216     0.056749114    29.820758      3274.9027    
      2400   4.8            274.67265      133391.9      -807632.83     -301.5051       0.35947795     0.05735482     29.808367      3274.5659    
      2410   4.82           279.91401      137074.15     -807628.64     -306.45041      0.35944359     0.058301131    29.817405      3274.2249    
      2420   4.84           278.59021      135589.75     -807629.64     -305.38098      0.35940909     0.058103253    29.910188      3273.8421    
      2430   4.86           272.0763       135093.17     -807631.03     -303.04685      0.35937446     0.057664707    29.888261      3273.4695    
      2440   4.88           280.21685      130799.09     -807637.46     -297.76231      0.35933967     0.056664633    29.863986      3273.1081    
      2450   4.9            274.20171      129219.8      -807639.36     -294.98469      0.35930475     0.056141503    29.859072      3272.7491    
      2460   4.92           280.32015      126433.62     -807642.18     -292.98493      0.35926969     0.05576635     29.920182      3272.3631    
      2470   4.94           274.78643      127293.41     -807640.8      -293.56811      0.35923448     0.055882828    29.889003      3271.9914    
      2480   4.96           278.73768      131101.85     -807637.38     -297.49871      0.35919913     0.056636621    29.831731      3271.6452    
      2490   4.98           282.54384      133630.56     -807633.18     -302.23514      0.35916364     0.057544008    29.924853      3271.2583    
      2500   5              262.26056      137826.03     -807626.76     -305.7359       0.35912801     0.05821631     29.845         3270.9066    
[...]
     98740   197.48         276.65547      133315.9      -807632.48     -9730.2746      0.36236891     0.057381474    29.409106      43.748099    
     98750   197.5          285.37846      134396.85     -807633.78     -9727.2206      0.36238762     0.057360504    29.418308      43.400799    
     98760   197.52         274.77852      131947.8      -807635.37     -9632.4577      0.36240618     0.056798787    29.39715       43.053505    
     98770   197.54         273.69053      133593.45     -807633.85     -9674.7063      0.36242459     0.057045011    29.418961      42.706208    
     98780   197.56         282.57193      130732.35     -807635.71     -9657.9667      0.36244287     0.056943438    29.43261       42.358911    
     98790   197.58         278.8321       132777.03     -807633.49     -9710.6767      0.362461       0.057251353    29.414338      42.011618    
     98800   197.6          282.00829      131090.6      -807636.62     -9628.8132      0.36247899     0.056765892    29.420237      41.664326    
     98810   197.62         269.45995      134415.67     -807631.66     -9729.1881      0.36249683     0.05735482     29.450124      41.317031    
     98820   197.64         272.1934       133260.43     -807632.65     -9713.4812      0.36251453     0.05725943     29.407547      40.969744    
     98830   197.66         273.71409      134669.07     -807631.86     -9743.3436      0.36253209     0.057432682    29.371431      40.622463    
     98840   197.68         281.37226      131558.17     -807635.21     -9669.0877      0.36254951     0.056992239    29.368208      40.275184    
     98850   197.7          282.60111      133192.8      -807634.69     -9689.7408      0.36256678     0.057111253    29.354047      39.927908    
     98860   197.72         277.80049      131794.94     -807633.65     -9704.5166      0.36258391     0.057195639    29.305604      39.58064     
     98870   197.74         283.08334      132421.68     -807634.68     -9694.1042      0.3626009      0.057131595    29.320439      39.233371    
     98880   197.76         280.90385      132116.5      -807635.58     -9655.3645      0.36261774     0.056900641    29.372064      38.886097    
     98890   197.78         271.25934      133877.78     -807632.7      -9704.0723      0.36263445     0.05718505     29.376131      38.538824    
     98900   197.8          278.29496      133347.32     -807632.47     -9744.5746      0.362651       0.057421104    29.382003      38.191551    
     98910   197.82         281.78357      133705.86     -807632.88     -9744.6378      0.36266742     0.057418878    29.386387      37.844279    
     98920   197.84         273.37641      133054.23     -807633.04     -9702.2141      0.36268369     0.057166337    29.401684      37.497006    
     98930   197.86         282.17496      132725.21     -807634.57     -9690.9788      0.36269982     0.057097599    29.403048      37.149735    
     98940   197.88         283.01152      132412.72     -807634        -9713.0554      0.36271581     0.057225148    29.373076      36.802469    
     98950   197.9          282.60031      131243.2      -807635.23     -9671.513       0.36273165     0.056977909    29.37063       36.455205    
     98960   197.92         278.49738      132565.36     -807635.01     -9656.7014      0.36274735     0.056888187    29.411824      36.107937    
     98970   197.94         278.06112      132040.03     -807634.82     -9661.9864      0.36276291     0.05691688     29.446847      35.760666    
     98980   197.96         279.2741       133908.52     -807631.91     -9758.3416      0.36277832     0.057482048    29.468234      35.413394    
     98990   197.98         287.14842      133457.58     -807634.23     -9719.4017      0.36279359     0.05725026     29.46824       35.066124    
     99000   198            268.96424      134536.85     -807631.57     -9720.7878      0.36280872     0.057256037    29.413117      34.718862    
     99010   198.02         287.78381      132311.69     -807634.75     -303.23665      0.3628237      0.057152279    29.527114      34.371588    
     99020   198.04         281.92905      133609.17     -807632.38     -304.68071      0.36283855     0.057422098    29.488845      34.02432     
     99030   198.06         278.72064      132062.35     -807634.11     -302.51983      0.36285324     0.057012535    29.45694       33.677058    
     99040   198.08         271.18217      133397.85     -807633.51     -301.93869      0.3628678      0.056900733    29.476642      33.329795    
     99050   198.1          286.70537      131022.54     -807635.55     -302.0713       0.36288221     0.056923461    29.511327      32.98253     
     99060   198.12         289.73226      133899.2      -807633.64     -304.33216      0.36289648     0.057347252    29.515975      32.635266    
     99070   198.14         276.83599      133196.11     -807632.64     -303.54252      0.36291061     0.057196229    29.526395      32.288002    
     99080   198.16         285.14946      134220.86     -807633.52     -303.69991      0.36292459     0.057223681    29.464741      31.940747    
     99090   198.18         278.72416      132620.23     -807633.06     -303.26466      0.36293843     0.05713949     29.437929      31.593496    
     99100   198.2          291.25636      134345.94     -807632.85     -305.13135      0.36295213     0.057489032    29.463365      31.246244    
     99110   198.22         282.10169      132000.22     -807633.71     -303.02095      0.36296568     0.057089287    29.408169      30.899       
     99120   198.24         277.9414       133566.54     -807633.65     -302.31052      0.36297909     0.056953336    29.48338       30.551749    
     99130   198.26         285.35027      131476.85     -807635.28     -301.79442      0.36299236     0.056854029    29.512227      30.204497    
     99140   198.28         280.23904      133741.68     -807632.06     -304.22086      0.36300548     0.057309066    29.458218      29.857252    
     99150   198.3          295.57106      131928.46     -807635.76     -302.6436       0.36301846     0.057009903    29.536348      29.51        
     99160   198.32         286.99075      133572.21     -807633.85     -303.28323      0.3630313      0.057128372    29.49848       29.162755    
     99170   198.34         288.62914      133233.54     -807633.5      -303.86772      0.36304399     0.057236468    29.469235      28.815513    
     99180   198.36         277.31027      134409.58     -807630.24     -305.52266      0.36305655     0.057546204    29.408248      28.46828     
     99190   198.38         286.22881      132976.34     -807633.42     -303.546        0.36306895     0.057171939    29.414773      28.121047    
     99200   198.4          276.26179      132834.78     -807632.31     -303.26432      0.36308122     0.057116955    29.447313      27.773812    
     99210   198.42         284.09807      132952.14     -807633.64     -303.01859      0.36309334     0.05706877     29.469229      27.426577    
     99220   198.44         290.70959      132124.47     -807634.05     -303.5507       0.36310532     0.057167098    29.475627      27.079343    
     99230   198.46         286.54312      132772.76     -807633.37     -303.63635      0.36311715     0.057181365    29.462518      26.732112    
     99240   198.48         284.94992      132259.21     -807635.09     -301.76764      0.36312885     0.056827615    29.462106      26.384882    
     99250   198.5          284.42044      132899.86     -807633.52     -303.28944      0.3631404      0.057112378    29.467667      26.037653    
     99260   198.52         285.8083       132496.25     -807633.4      -303.73984      0.3631518      0.057195396    29.466423      25.690427    
     99270   198.54         287.116        134045.96     -807632.81     -304.54253      0.36316306     0.057344768    29.445456      25.343203    
     99280   198.56         288.61792      132327.53     -807634.88     -302.87554      0.36317418     0.057029132    29.453894      24.99598     
     99290   198.58         283.35217      134240.12     -807632.97     -304.07215      0.36318516     0.057252712    29.48507       24.648757    
     99300   198.6          279.75036      131969.77     -807632.94     -303.87771      0.36319599     0.057214395    29.532482      24.301531    
     99310   198.62         276.55563      135042.16     -807632.11     -304.30536      0.36320668     0.057293228    29.516117      23.954308    
     99320   198.64         285.20323      131121.55     -807636.57     -301.35244      0.36321723     0.056735619    29.504318      23.607088    
     99330   198.66         285.10683      133999.42     -807634.23     -303.78545      0.36322763     0.057192043    29.55558       23.259865    
     99340   198.68         275.27945      131863.83     -807633.58     -303.36444      0.36323789     0.057111169    29.506197      22.912648    
     99350   198.7          283.92954      134707.27     -807633.14     -305.07067      0.36324801     0.057430783    29.435045      22.565438    
     99360   198.72         284.36774      131570.31     -807636.14     -302.46519      0.36325798     0.056938727    29.499546      22.218225    
     99370   198.74         282.27686      134758.83     -807632.29     -306.17311      0.36326781     0.057635179    29.488525      21.871014    
     99380   198.76         262.55282      132232.69     -807632.08     -303.96305      0.3632775      0.057217623    29.487311      21.523805    
     99390   198.78         267.90578      134672.23     -807632.39     -304.44586      0.36328704     0.057307001    29.497687      21.176597    
     99400   198.8          271.54538      130432.71     -807636.73     -300.89637      0.36329644     0.056637402    29.474551      20.829392    
     99410   198.82         271.58254      134426.06     -807632.87     -304.76978      0.3633057      0.057365027    29.47338       20.482189    
     99420   198.84         277.74563      131026.94     -807635.8      -302.96816      0.36331481     0.057024489    29.452991      20.134989    
     99430   198.86         276.23958      133544.43     -807634.79     -303.75413      0.36332378     0.057171012    29.430682      19.787791    
     99440   198.88         271.75335      130975.18     -807635.7      -302.43115      0.36333261     0.056920625    29.399742      19.440598    
     99450   198.9          280.09807      134374.35     -807633.3      -305.98303      0.36334129     0.057587748    29.446092      19.093402    
     99460   198.92         268.6366       132730.96     -807632.63     -305.22491      0.36334983     0.057443715    29.426588      18.74621     
     99470   198.94         266.17001      134316.57     -807633.19     -304.25587      0.36335823     0.057260018    29.455033      18.399017    
     99480   198.96         277.61565      132307.36     -807636.18     -302.9664       0.36336648     0.057016048    29.494946      18.051823    
     99490   198.98         271.50297      133542.83     -807633.03     -305.25989      0.3633746      0.057446384    29.510995      17.70463     
     99500   199            274.89109      131982.57     -807635.02     -303.79009      0.36338256     0.057168532    29.504397      17.35744     
     99510   199.02         282.04046      132106.12     -807637.18     -9680.6476      0.36339039     0.056928339    29.346938      17.010259    
     99520   199.04         265.62349      132785.66     -807634.35     -9697.0688      0.36339807     0.057023701    29.379599      16.663078    
     99530   199.06         270.01199      132526.71     -807632.7      -9769.64        0.3634056      0.057449265    29.406994      16.315897    
     99540   199.08         271.15622      133268.62     -807632.79     -9767.5843      0.363413       0.057436008    29.426436      15.968717    
     99550   199.1          276.88931      131839.58     -807635.28     -9709.4412      0.36342025     0.057092972    29.448908      15.621537    
     99560   199.12         270.35085      133856.07     -807632.74     -9755.3981      0.36342736     0.057362084    29.434488      15.274359    
     99570   199.14         277.0741       131752.49     -807634.11     -9739.214       0.36343432     0.057265824    29.419894      14.927183    
     99580   199.16         275.97961      133359.39     -807633.6      -9740.727       0.36344114     0.057273645    29.416534      14.580009    
     99590   199.18         280.7969       130803.79     -807637.04     -9647.3381      0.36344782     0.056723494    29.3508        14.232839    
     99600   199.2          268.87264      133891.08     -807632.26     -9735.9992      0.36345435     0.057243765    29.381408      13.885669    
     99610   199.22         274.71914      131762.51     -807633.53     -9717.2221      0.36346074     0.057132359    29.423818      13.538499    
     99620   199.24         280.62301      134843.9      -807632.3      -9767.6168      0.36346699     0.057427667    29.399458      13.191332    
     99630   199.26         280.21184      132022.88     -807634.83     -9676.7064      0.3634731      0.056892214    29.389031      12.844166    
     99640   199.28         287.40262      134854.7      -807632.67     -9766.1908      0.36347906     0.057417377    29.407918      12.497       
     99650   199.3          278.51262      132498.98     -807631.34     -9763.9809      0.36348487     0.057403467    29.430217      12.149836    
     99660   199.32         289.22477      133951        -807633        -9748.3363      0.36349055     0.057310596    29.38347       11.802674    
     99670   199.34         287.8055       131403.14     -807635.29     -9665.7315      0.36349608     0.056824096    29.391945      11.455514    
     99680   199.36         289.47642      133189.36     -807633.79     -9717.7343      0.36350147     0.05712897     29.414467      11.108354    
     99690   199.38         280.08829      132667.1      -807631.88     -9735.4459      0.36350671     0.057232268    29.453791      10.761194    
     99700   199.4          287.288        133901.31     -807632.74     -9735.7121      0.36351181     0.05723303     29.436152      10.414037    
     99710   199.42         290.15149      133220.38     -807634.89     -9680.7584      0.36351677     0.056909199    29.446916      10.06688     
     99720   199.44         282.53236      134124.56     -807631.55     -9752.3169      0.36352158     0.057329103    29.455694      9.719725     
     99730   199.46         283.23642      134041.19     -807631.52     -9758.0905      0.36352625     0.057362306    29.42253       9.3725723    
     99740   199.48         286.00527      132457.72     -807633.25     -9715.4601      0.36353078     0.057110995    29.358967      9.025423     
     99750   199.5          292.61494      132463.51     -807634.7      -9697.3774      0.36353516     0.057004011    29.345031      8.6782754    
     99760   199.52         278.50772      131476.62     -807633.09     -9691.2844      0.3635394      0.05696753     29.320417      8.3311298    
     99770   199.54         290.80083      133769.86     -807633.03     -9746.9094      0.3635435      0.05729386     29.326813      7.9839852    
     99780   199.56         279.92748      131878.93     -807633.7      -9681.4921      0.36354745     0.056908708    29.385484      7.6368404    
     99790   199.58         295.14739      134862.37     -807633.09     -9767.5958      0.36355126     0.057414232    29.37538       7.2896972    
     99800   199.6          285.79419      132474.24     -807633.46     -9721.7766      0.36355493     0.057144329    29.38385       6.9425551    
     99810   199.62         288.98292      135626.61     -807631.45     -9799.4237      0.36355845     0.057600178    29.399573      6.595414     
     99820   199.64         287.74796      131385.95     -807634.43     -9705.2432      0.36356183     0.057046063    29.394425      6.2482745    
     99830   199.66         289.63833      134744.64     -807633.85     -9734.2729      0.36356507     0.057216186    29.389863      5.9011364    
     99840   199.68         279.62675      131214.89     -807634.42     -9680.1566      0.36356816     0.056897617    29.35934       5.5540003    
     99850   199.7          282.34382      133444.71     -807633.24     -9729.5584      0.36357111     0.057187524    29.43522       5.2068642    
     99860   199.72         291.79345      129790.67     -807637.82     -9634.3898      0.36357392     0.056627714    29.400624      4.8597301    
     99870   199.74         271.15979      133894.39     -807632.49     -9714.2698      0.36357658     0.057096804    29.34449       4.5125983    
     99880   199.76         282.3125       131750.01     -807634.26     -9714.9999      0.3635791      0.057100699    29.31735       4.1654681    
     99890   199.78         278.95989      135121.88     -807631.49     -9791.2045      0.36358148     0.057548222    29.324321      3.818339     
     99900   199.8          282.86171      132892.65     -807633.94     -9736.7487      0.36358371     0.057227804    29.348087      3.4712109    
     99910   199.82         279.17455      134234.44     -807632.23     -9775.626       0.3635858      0.057455975    29.293795      3.1240846    
     99920   199.84         280.55792      132019        -807633.74     -9740.569       0.36358775     0.057249623    29.261055      2.7769598    
     99930   199.86         287.02821      132762.52     -807634.97     -9731.5117      0.36358955     0.057196105    29.355506      2.4298353    
     99940   199.88         276.15417      130861.4      -807636.08     -9654.1873      0.36359121     0.056741379    29.400901      2.0827118    
     99950   199.9          272.09101      132275.06     -807634.48     -9688.3749      0.36359273     0.056942075    29.468886      1.7355893    
     99960   199.92         279.87324      131249.09     -807634.88     -9715.0379      0.3635941      0.057098567    29.486139      1.3884682    
     99970   199.94         272.79927      133364.99     -807633.58     -9727.0177      0.36359533     0.057168783    29.461615      1.0413488    
     99980   199.96         282.54994      133082.34     -807634.85     -9732.8204      0.36359641     0.057202717    29.479977      0.69423099   
     99990   199.98         275.45889      134228.8      -807632.15     -9788.6235      0.36359736     0.057530539    29.459912      0.34711473   
    100000   200            283.20935      133878.37     -807633.55     -9781.1599      0.36359816     0.057486547    29.414467      0            
Loop time of 3471.14 on 32 procs for 100000 steps with 1080 atoms

Performance: 4.978 ns/day, 4.821 hours/ns, 28.809 timesteps/s, 31.114 katom-step/s
66.7% CPU use with 32 MPI tasks x 1 OpenMP threads

MPI task timing breakdown:
Section |  min time  |  avg time  |  max time  |%varavg| %total
---------------------------------------------------------------
Pair    | 2618.4     | 2809.8     | 3000.6     | 186.6 | 80.95
Neigh   | 0.0016508  | 0.001798   | 0.0020332  |   0.2 |  0.00
Comm    | 397.13     | 587.79     | 779.4      | 408.0 | 16.93
Output  | 2.3214     | 2.3346     | 2.3405     |   0.3 |  0.07
Modify  | 64.322     | 65.106     | 65.463     |   3.1 |  1.88
Other   |            | 6.1        |            |       |  0.18

Nlocal:          33.75 ave          41 max          24 min
Histogram: 1 2 2 1 5 7 2 6 4 2
Nghost:        1042.84 ave        1055 max        1032 min
Histogram: 2 2 2 8 5 5 4 1 0 3
Neighs:              0 ave           0 max           0 min
Histogram: 32 0 0 0 0 0 0 0 0 0
FullNghs:         5325 ave        6482 max        3753 min
Histogram: 1 2 1 2 4 7 4 5 4 2

Total # of neighbors = 170400
Ave neighs/atom = 157.77778
Neighbor list builds = 4
Dangerous builds = 0

Total wall time: 1:01:18
