
units		metal
atom_style	atomic

read_data ${STRUCTURE}.data
read_data BaTiO3-sc333.data
Reading data file ...
  orthogonal box = (0 0 0) to (11.898253 11.898253 12.912076)
  2 by 4 by 4 MPI processor grid
  reading atoms ...
  135 atoms
  read_data CPU = 0.011 seconds
replicate $L $L $L
replicate 2 $L $L
replicate 2 2 $L
replicate 2 2 2
Replication is creating a 2x2x2 = 8 times larger system...
  orthogonal box = (0 0 0) to (23.796507 23.796507 25.824152)
  2 by 4 by 4 MPI processor grid
  1080 atoms
  replicate CPU = 0.004 seconds

pair_style allegro
pair_coeff	* * ${MODEL}.pth Ba Ti O
pair_coeff	* * BaTiO3-E0.pth Ba Ti O
mass 1 137.3
mass 2 47.9
mass 3 15.9994

timestep 0.002
compute polarization all allegro polarization 3
compute allegro will evaluate the quantity polarization of length 3 (src/compute_allegro.cpp:53)
compute polarizability all allegro polarizability 9
compute allegro will evaluate the quantity polarizability of length 9 (src/compute_allegro.cpp:53)

thermo_style custom pe fmax fnorm spcpu cpuremain

variable efield equal 1e-2*36.36
fix born all addbornforce 0.0 0.0 ${efield}
fix born all addbornforce 0.0 0.0 0.3636

thermo 10
min_style fire
#minimize 0.0 1e-6 100 100
velocity all create ${TEMP} ${SEED} dist gaussian rot yes mom yes
velocity all create 300 ${SEED} dist gaussian rot yes mom yes
velocity all create 300 21351 dist gaussian rot yes mom yes
fix nvt all nvt temp ${TEMP} ${TEMP} $(100*dt)
fix nvt all nvt temp 300 ${TEMP} $(100*dt)
fix nvt all nvt temp 300 300 $(100*dt)
fix nvt all nvt temp 300 300 0.2000000000000000111
run 5000
Neighbor list info ...
  update: every = 1 steps, delay = 0 steps, check = yes
  max neighbors/atom: 2000, page size: 100000
  master list distance cutoff = 8
  ghost atom cutoff = 8
  binsize = 8, bins = 3 3 4
  1 neighbor lists, perpetual/occasional/extra = 1 0 0
  (1) pair allegro/kk, perpetual
      attributes: full, newton on, kokkos_device
      pair build: full/bin/kk/device
      stencil: full/bin/3d
      bin: kk/device
Per MPI rank memory allocation (min/avg/max) = 3.516 | 3.516 | 3.516 Mbytes
    PotEng          Fmax          Fnorm          S/CPU         CPULeft    
-807708.29      1.59541        37.042653      0              0            
-807647.46      3.5510296      45.476731      2.3249211      2146.3104    
-807636.07      2.7895577      35.90734       25.824769      1167.4236    
-807605.36      3.4695195      39.274439      25.80903       840.90903    
-807605.96      4.1458725      50.742923      25.780019      677.51211    
-807568.19      3.5222381      40.929113      25.760822      579.34733    
-807602.78      3.1075633      39.536934      25.882173      513.62493    
-807646.33      3.7599054      34.968008      25.910753      466.53996    
-807686.44      2.6888719      34.890229      25.864024      431.17261    
-807667.18      3.322762       34.726893      25.831282      403.60553    
-807653.54      3.1475533      34.644953      25.898329      381.42529    
-807660.19      2.6759341      27.510826      25.898643      363.20744    
-807630.25      2.6206258      31.116202      25.876822      347.97478    
-807586.25      3.2147952      39.676155      25.844649      335.04416    
-807571.3       3.6331227      38.081126      25.927311      323.86269    
-807633.85      3.5330228      32.31875       25.872548      314.14704    
-807656.32      3.2531071      30.395712      25.855827      305.6051     
-807666.02      2.9206763      33.802835      25.859381      298.02108    
-807647.85      4.4076215      44.331151      25.900793      291.2202     
-807682.07      2.6376828      35.221136      25.864818      285.10816    
-807642.32      4.2262329      38.74135       25.851182      279.57356    
-807616.97      3.0619551      38.424253      25.877837      274.52013    
-807564.7       4.5971859      45.006645      25.889834      269.88709    
-807607.57      4.1166054      48.772204      25.87346       265.6284     
-807615.37      4.3211203      38.931397      25.8606        261.6962     
-807643.77      3.2927651      35.2167        25.884967      258.04073    
-807645.24      4.8659         44.583695      25.901665      254.63219    
-807683.38      2.8062932      37.124439      25.848592      251.46143    
-807663.32      3.3976253      35.271196      25.814591      248.4981     
-807638.7       3.0737386      32.236571      25.865584      245.70002    
-807608.06      4.0787538      34.044196      25.900175      243.05462    
-807606.38      3.8282511      42.420816      25.864234      240.5631     
-807598.19      3.7530729      37.152306      25.7928        238.21879    
-807612.29      2.7678729      33.896433      25.923354      235.96543    
-807643.95      3.1544536      31.767974      25.924034      233.82179    
-807674.47      2.9742423      32.847191      25.87468       231.78838    
-807676.4       2.8166367      32.639858      25.796447      229.86157    
-807645.99      4.9976747      37.882686      25.899777      227.99861    
-807649.07      2.8179965      30.280566      25.887611      226.21558    
-807622.32      4.2341743      34.363596      25.894573      224.50295    
-807602.56      3.9349106      42.178374      25.825574      222.86851    
-807574.64      4.6787272      40.894899      25.881766      221.2855     
-807627.34      3.2994773      34.407808      25.898324      219.75678    
-807651.6       5.0780126      35.116292      25.873179      218.28519    
-807674.32      2.9733378      34.26383       25.877318      216.86228    
-807645.07      4.6663928      44.518388      25.860777      215.48794    
-807667.9       2.9764239      34.023165      25.852176      214.15781    
-807645.64      3.6592082      34.598802      25.799129      212.87548    
-807624.61      3.4816058      36.626287      25.818235      211.62773    
-807569.59      3.6603761      41.615859      25.870622      210.40789    
-807603.98      3.7027452      42.075738      25.904781      209.21679    
-807626.55      4.4750752      35.850679      25.858475      208.06334    
-807656.43      3.116948       32.165962      25.899317      206.93413    
-807646.72      4.9540448      41.224195      25.889516      205.8342     
-807671.89      2.6955913      34.696488      25.829432      204.76812    
-807666.77      2.9290372      33.534249      25.735406      203.73817    
-807642.24      3.3632877      31.036534      25.842774      202.71833    
-807602.96      3.0759844      35.024182      25.869505      201.71759    
-807598.21      4.1775399      38.597993      25.910116      200.73341    
-807608.19      3.7743699      38.621998      25.813176      199.78034    
-807624.3       3.8243464      32.54814       25.908934      198.83563    
-807641.99      4.3518648      32.464503      25.926245      197.90738    
-807664.35      4.3629055      34.32325       25.886516      197.00082    
-807676.17      2.6783719      34.816274      25.789989      196.1208     
-807648.53      3.6322697      36.924253      25.799985      195.25514    
-807634.84      3.6895749      33.293971      25.888187      194.39535    
-807613.68      3.9180439      35.068828      25.874886      193.55122    
-807605.84      4.5014461      44.144147      25.809621      192.72706    
-807584.78      3.9053347      40.247834      25.886469      191.90845    
-807620.92      3.6799105      35.250867      25.88822       191.1022     
-807648.3       4.0400208      36.686827      25.902738      190.30662    
-807674.71      2.834417       35.758644      25.810794      189.53088    
-807651.11      4.3852658      41.404694      25.853563      188.76212    
-807653.54      2.7944863      35.393999      25.8298        188.00591    
-807642.78      4.1061915      34.076316      25.810045      187.26138    
-807623.28      3.6942069      37.71452       25.802114      186.52704    
-807578.54      4.3579424      39.653392      25.837897      185.79883    
-807594.11      3.5749051      39.128601      25.919051      185.07283    
-807631.03      3.1045298      31.886141      25.867603      184.35971    
-807660.51      3.1018747      31.83507       25.810989      183.65937    
-807653.69      3.3674664      35.448835      25.83606       182.96488    
-807660.25      3.70262        35.024279      25.710997      182.28772    
-807665.97      3.085325       32.258182      25.790091      181.61151    
-807644.98      3.6673139      31.374636      25.847206      180.93794    
-807603.52      3.0896295      36.15008       25.8496        180.27102    
-807587.01      4.3815538      38.681521      25.908892      179.60637    
-807609.26      4.2136608      39.842778      25.847202      178.95264    
-807630.4       4.4230914      33.148311      25.816085      178.30725    
-807642.14      4.8069125      34.541888      25.891394      177.66246    
-807653.37      4.2874926      38.053999      25.875186      177.02459    
-807674.09      2.922969       35.510193      25.817114      176.39627    
-807653.35      4.0384188      36.224247      25.79372       175.77482    
-807631.66      3.0427266      33.907293      25.870964      175.15332    
-807605.56      4.3616427      36.66039       25.89255       174.53546    
-807606.29      4.2978618      43.123875      25.888941      173.92277    
-807597.22      3.7319313      38.269969      25.832732      173.31842    
-807621.92      3.5657391      34.739656      25.898109      172.71449    
-807642.83      4.3923108      36.418459      25.884925      172.11587    
-807671.95      2.9713757      34.875877      25.843138      171.52414    
-807659.05      3.7845335      36.677325      25.800008      170.93917    
-807648.72      4.073713       33.98414       25.832909      170.35617    
-807635.71      4.0571318      33.123985      25.86351       169.77524    
-807623.55      3.5742312      36.758038      25.913539      169.19521    
-807591.51      3.0879428      38.653403      25.857139      168.62219    
-807594.75      2.8571129      37.745262      25.883212      168.05127    
-807629.32      3.253067       33.222099      25.884649      167.48379    
-807658.05      2.5951386      32.69883       25.860591      166.92106    
-807660.22      3.6331789      34.462116      25.811585      166.36431    
-807653.33      4.1283553      36.582404      25.814679      165.81054    
-807657.95      3.2356825      33.301499      25.834181      165.25876    
-807641.97      3.2638489      32.592952      25.832121      164.7101     
-807611.42      3.1477936      35.292827      25.846343      164.16359    
-807582.78      3.1750769      38.525789      25.916213      163.61633    
-807610.92      3.7284342      36.805383      25.849619      163.07532    
-807634.14      3.3297489      32.989532      25.838545      162.53758    
-807651.1       3.280843       33.339812      25.830933      162.00284    
-807648.63      4.0466283      38.746866      25.855823      161.46942    
-807667.7       2.4985489      34.867674      25.863062      160.93814    
-807653.68      3.7388009      35.444207      25.822557      160.41128    
-807633.39      3.677249       34.242571      25.858255      159.88506    
-807597.94      3.811135       37.864253      25.859035      159.36112    
-807604.15      3.6549553      40.706405      25.858652      158.83947    
-807609.22      3.7623821      36.598848      25.809095      158.32234    
-807630.48      2.9440576      32.551067      25.875186      157.80427    
-807641.22      3.2195483      34.71651       25.884967      157.28789    
-807666.05      2.3850498      33.926889      25.852023      156.77507    
-807662.48      3.0817309      34.691866      25.787323      156.26712    
-807647.21      3.9932143      33.397994      25.862155      155.75778    
-807625.35      4.1136009      33.690321      25.880298      155.24956    
-807616.59      3.4216217      36.05743       25.867744      154.74377    
-807601.87      3.5039805      38.486807      25.8063        154.24243    
-807602.33      3.6474938      37.524155      25.84534       153.74118    
-807627.59      3.4412054      33.785031      25.856705      153.24119    
-807655.35      2.9600668      34.094425      25.842429      152.7435     
-807664.15      2.9723653      35.036451      25.848718      152.2472     
-807650         4.1666245      37.351034      25.872203      151.75157    
-807646.85      3.1791734      33.951003      25.859091      151.25807    
-807635.83      3.2046343      33.450489      25.80597       150.76824    
-807613.53      3.1899966      37.374335      25.815177      150.27953    
-807587.27      3.8366632      38.580605      25.781904      149.79357    
-807609.04      3.4826549      35.84294       25.876359      149.30538    
-807638.75      3.3353509      32.533075      25.79609       148.82169    
-807657.9       3.5404371      32.669553      25.811454      148.33877    
-807650.72      4.5166332      36.570468      25.835291      147.8563     
-807658.45      3.6883386      34.195621      25.788967      147.37686    
-807652.11      3.7702079      33.26895       25.847146      146.89656    
-807632.39      3.5642732      33.488167      25.811952      146.41881    
-807595.35      3.2895265      36.957246      25.863477      145.94044    
-807596.61      4.8722663      39.603332      25.853955      145.46365    
-807617.52      4.4560754      35.581098      25.825472      144.98907    
-807639.66      4.2302502      33.307702      25.853199      144.51469    
-807643.22      3.7769096      35.358586      25.878066      144.04061    
-807659.8       5.7897148      35.555009      25.867655      143.56804    
-807661.62      3.5806897      34.903461      25.800613      143.09887    
-807646.35      3.9973683      33.427843      25.780883      142.63142    
-807618.54      3.8693781      34.242944      25.82578       142.16351    
-807607.03      3.1328631      35.709888      25.814698      141.69699    
-807604         3.4647734      37.902878      25.79076       141.23227    
-807614.56      3.0246453      33.492345      25.761276      140.76948    
-807631.28      3.0509046      32.099889      25.877271      140.3039     
-807654.1       3.3159023      33.263216      25.874325      139.8394     
-807664.53      3.4260441      34.425488      25.855197      139.37647    
-807654.44      3.3795225      34.118236      25.841072      138.91492    
-807640.27      3.3682168      33.462682      25.867898      138.45346    
-807626.25      2.9251193      33.643595      25.868108      137.99291    
-807610.52      3.5389139      38.056208      25.867589      137.53327    
-807595.49      3.4791322      38.58622       25.860409      137.07472    
-807610.59      4.3416399      34.742823      25.906558      136.61566    
-807637.87      3.8766825      32.953165      25.875957      136.15838    
-807659.22      2.7916461      32.809731      25.848989      135.70272    
-807655.96      2.9795258      34.921354      25.836862      135.24822    
-807650.85      4.1546566      35.036055      25.826767      134.7948     
-807645.91      3.5045971      32.308802      25.859026      134.34123    
-807629.69      2.9475623      33.526538      25.861291      133.88837    
-807600.82      2.9527171      36.403173      25.883002      133.43567    
-807594.71      3.293511       37.957805      25.86237       132.98429    
-807621.34      2.8672397      33.973995      25.894198      132.53278    
-807644.82      2.9091666      32.519433      25.871277      132.08263    
-807651.49      3.4830831      33.917951      25.910744      131.63212    
-807653.06      3.8083213      35.506176      25.905536      131.18248    
-807657.25      2.8738206      33.973899      25.874508      130.73437    
-807645.28      2.8912918      32.583244      25.832955      130.28803    
-807618.41      3.0608183      33.946964      25.887167      129.84093    
-807597.9       2.8821561      36.369676      25.912114      129.39385    
-807607.3       3.1903639      37.248848      25.846371      128.94912    
-807624.11      3.0595649      33.963032      25.835636      128.50529    
-807637.01      2.7751215      32.432982      25.885248      128.06081    
-807650.07      3.2704407      33.961616      25.873558      127.61726    
-807660.63      2.7384295      34.048421      25.787918      127.17643    
-807656.24      3.3228654      32.92615       25.766821      126.7367     
-807634.18      2.8920915      32.98147       25.815033      126.29632    
-807616.75      3.7441284      33.927642      25.867024      125.85524    
-807609.55      3.4145938      36.960477      25.883605      125.41432    
-807606.61      3.1965854      36.67976       25.847458      124.97484    
-807616.68      3.5827737      34.031757      25.831329      124.53627    
-807639.18      3.2575245      33.150266      25.84451       124.09793    
-807657.78      3.2658328      33.564665      25.815014      123.6608     
-807656.96      3.4431424      33.989525      25.768221      123.22525    
-807644.83      3.800119       35.14631       25.70814       122.79156    
-807636.61      3.1242654      32.777529      25.809798      122.35601    
-807624.87      2.9858823      33.836883      25.780512      121.9216     
-807606.43      2.9556993      36.170165      25.825193      121.48665    
-807600.21      2.7201259      36.260604      25.847827      121.05168    
-807626.08      2.6309163      32.263557      25.882052      120.61643    
-807646.02      3.3279471      32.569076      25.883142      120.18164    
-807654.32      3.0387374      33.408539      25.802352      119.74906    
-807649.17      4.0857536      35.274259      25.824871      119.31643    
-807650.09      3.4323173      32.907969      25.867673      118.88334    
-807640.84      3.5191822      32.430434      25.831077      118.45146    
-807618.4       3.1990483      34.093846      25.85291       118.01956    
-807598.9       3.4502838      35.901937      25.900592      117.5871     
-807610.66      3.3635714      34.976485      25.878618      117.15553    
-807631.81      3.71031        32.967657      25.881542      116.72433    
-807642.73      3.1810792      33.166184      25.859395      116.29399    
-807647.71      4.2154379      35.960042      25.86024       115.86405    
-807656.73      2.9886873      34.163666      25.806904      115.43556    
-807651.96      3.4891889      33.501758      25.731586      115.00895    
-807635.06      3.9850552      32.554039      25.727781      114.58276    
-807611.99      3.6112445      34.632141      25.794022      114.15563    
-807606.99      3.1046313      36.564417      25.834382      113.72808    
-807615.86      3.2480734      34.850247      25.824694      113.30108    
-807625.5       2.6450197      32.834252      25.81548       112.87461    
-807641.21      3.7383687      32.941257      25.816187      112.44849    
-807655.75      3.6370583      33.523317      25.861716      112.02186    
-807659.31      3.0288301      33.608814      25.794761      111.59683    
-807646.72      3.7696227      32.868199      25.805537      111.17193    
-807629.1       2.9719177      32.999312      25.886212      110.7459     
-807617.98      3.7512325      34.665739      25.860278      110.32069    
-807607.03      3.7671172      36.989015      25.867398      109.89568    
-807608.38      3.6038286      35.69905       25.814023      109.47196    
-807625.46      3.7641593      33.997162      25.828622      109.0483     
-807649.6       3.1110358      32.996555      25.865323      108.62431    
-807658.87      2.9195097      33.716695      25.810589      108.20159    
-807651.15      3.332046       34.825006      25.811645      107.77916    
-807645.53      3.4632316      33.520715      25.850478      107.35636    
-807633.86      3.6718715      33.782529      25.807584      106.9346     
-807617.33      3.4429325      35.606407      25.767284      106.5138     
-807597.98      3.0676284      36.881613      25.808072      106.0926     
-807610.9       3.1871033      35.457308      25.812804      105.67161    
-807632.85      3.8038408      33.86009       25.820862      105.25076    
-807649.46      3.4645774      33.759319      25.911556      104.82873    
-807647.94      4.2475289      36.644411      25.906417      104.40707    
-807651.33      3.4648477      35.085223      25.868286      103.98632    
-807647.82      3.7680925      34.271178      25.827541      103.56649    
-807632.02      4.1111521      34.593921      25.868225      103.1463     
-807606.87      3.6759935      36.334273      25.84444       102.72674    
-807602.69      3.478161       37.821817      25.835184      102.3076     
-807617.88      3.2818446      36.144961      25.822794      101.88891    
-807631.15      3.8023814      34.596535      25.785633      101.47103    
-807642.72      3.6977917      34.977856      25.86523       101.0522     
-807651.85      3.4439214      35.826872      25.804421      100.63453    
-807655.27      3.2323892      35.132638      25.792103      100.21729    
-807642.4       4.0264246      34.642653      25.86402       99.79922     
-807624.99      3.2089242      34.734705      25.852023      99.381574    
-807609.76      3.2872161      36.046588      25.838261      98.964371    
-807608.63      3.8032187      37.607238      25.816188      98.547722    
-807614.14      3.2013654      36.568425      25.83634       98.131014    
-807630.33      4.6243796      34.716444      25.804272      97.714992    
-807646.01      4.5135353      34.922657      25.867655      97.2983      
-807655.76      2.947975       34.995103      25.855631      96.882008    
-807650.96      3.5597067      35.272306      25.82721       96.466336    
-807639.5       4.1648458      34.981646      25.825281      96.050908    
-807626.84      3.1577155      33.819001      25.788958      95.636192    
-807612.64      3.1569616      36.636894      25.831525      95.221104    
-807605.67      3.486187       37.110692      25.825673      94.806307    
-807614.03      3.9196006      35.839595      25.840951      94.391515    
-807635.93      3.182493       33.377716      25.912592      93.975991    
-807649.54      3.4173589      34.514327      25.869249      93.561253    
-807653.03      3.7215831      34.544269      25.84898       93.146987    
-807648.77      3.7995467      34.872004      25.804026      92.733504    
-807642.07      3.0502685      32.866186      25.847827      92.319654    
-807627.76      2.7941278      34.031187      25.850879      91.905964    
-807609.43      3.169796       35.463025      25.813186      91.492946    
-807603.77      3.1528062      36.668901      25.819716      91.080033    
-807619.92      4.1565224      34.650504      25.884111      90.666513    
-807640.3       3.3550287      33.243433      25.852653      90.253575    
-807647.05      3.6005716      34.579924      25.917423      89.840042    
-807651.59      3.7441794      35.354245      25.88165       89.427138    
-807652.06      2.9628111      34.579513      25.863721      89.014639    
-807642.88      3.1242874      34.047475      25.860979      88.602358    
-807622.04      2.9629942      34.46929       25.897079      88.189836    
-807606.12      3.1297182      36.529441      25.920102      87.777234    
-807609.81      3.0080682      36.514472      25.93204       87.364685    
-807623.16      2.8294127      34.269708      25.891665      86.952788    
-807637.11      3.029718       33.38528       25.92834       86.540656    
-807646.8       3.4980693      34.006646      25.856164      86.129521    
-807654.7       3.7195815      34.020354      25.81468       85.719023    
-807651.25      3.649591       33.904503      25.752348      85.309381    
-807636.29      3.1358851      33.980717      25.799995      84.899359    
-807617.65      2.7645031      34.867677      25.805658      84.489431    
-807611.44      2.7415475      35.851093      25.878169      84.078871    
-807610.62      3.4973441      36.773401      25.828887      83.669006    
-807623.24      2.8275522      33.617086      25.851813      83.259052    
-807636.73      3.706116       33.427519      25.892016      82.848832    
-807653.5       3.1929942      32.809442      25.889409      82.438802    
-807653.31      3.8213295      34.119778      25.817877      82.029677    
-807647.76      3.4769114      33.001241      25.796797      81.620918    
-807630.18      4.8832674      34.421747      25.842677      81.21183     
-807623.35      3.0930066      33.287931      25.872862      80.802585    
-807608.54      3.6189008      36.362133      25.864412      80.393577    
-807609.25      3.8384499      36.038225      25.889615      79.984467    
-807624.25      3.3495349      33.907212      25.8913        79.575493    
-807644.75      4.5766924      33.412486      25.873138      79.166846    
-807651.36      3.2010272      34.33931       25.848019      78.75859     
-807649.48      4.6636994      34.832029      25.819795      78.350747    
-807644.53      3.169783       33.266775      25.789483      77.943331    
-807634.79      3.157515       33.274353      25.799985      77.535942    
-807619.2       3.1419965      33.995181      25.836657      77.128337    
-807604.39      2.8350387      36.230044      25.867178      76.720581    
-807611.14      3.1579102      34.881405      25.890565      76.312745    
-807629.74      2.7948917      33.220219      25.889633      75.905057    
-807644.78      3.5366453      32.71323       25.860371      75.497774    
-807647.98      3.7411583      34.115301      25.871132      75.090525    
-807651.19      3.6572783      34.044893      25.82251       74.683843    
-807645.3       3.3136179      33.611393      25.796151      74.277519    
-807633.01      2.5504133      33.069899      25.800367      73.871277    
-807611.11      3.0850205      34.963946      25.889807      73.464373    
-807608.11      3.4799618      35.990883      25.900246      73.057509    
-807615.13      2.8489246      35.179772      25.889882      72.650865    
-807631.37      2.7323797      32.99693       25.876537      72.244461    
-807637.31      3.3641433      35.152618      25.924645      71.837779    
-807650.91      2.992767       34.139577      25.820987      71.43209     
-807649.86      3.6802319      35.017367      25.835859      71.026393    
-807641.96      2.6664637      34.020547      25.835859      70.620812    
-807625.43      3.1709924      34.722146      25.895641      70.214859    
-807615.36      2.9752426      35.451144      25.930481      69.808748    
-807609.58      2.9927062      36.240862      25.909136      69.402933    
-807615.36      2.5839683      35.160572      25.904575      68.997275    
-807627.26      3.1601021      33.233705      25.851579      68.592152    
-807644.72      2.843365       33.088813      25.869534      68.187       
-807650.61      2.3827148      33.31559       25.796992      67.782521    
-807645.76      3.9239746      34.374016      25.719245      67.378742    
-807638.81      3.3909657      33.173602      25.790774      66.974508    
-807627.8       2.7924116      33.660298      25.791977      66.570364    
-807615.57      3.4665704      35.063342      25.847896      66.165901    
-807607.18      3.1201968      36.092318      25.828854      65.761683    
-807615.65      2.910665       35.013695      25.835006      65.357523    
-807631.66      3.0703525      33.662872      25.797958      64.953732    
-807645.73      2.9842217      33.675127      25.810854      64.549944    
-807648.72      4.1330403      34.307502      25.817495      64.146205    
-807647.1       3.2844742      34.032221      25.875882      63.742152    
-807639.62      2.9435101      33.495845      25.848078      63.338395    
-807626.71      3.2267493      33.605657      25.812166      62.934986    
-807612.79      3.4591474      34.048503      25.890883      62.531131    
-807610.18      3.1329084      35.451584      25.869631      62.127523    
-807619.96      3.5793775      34.435921      25.794133      61.724521    
-807637.12      2.8360322      32.472958      25.846683      61.321258    
-807644.65      3.1298009      32.904405      25.864299      60.917972    
-807649.12      3.1266026      33.235389      25.852143      60.514862    
-807648.04      4.1590327      33.345228      25.795174      60.112214    
-807640.29      2.8630684      32.62922       25.84652       59.709322    
-807622         3.1170431      33.168217      25.890007      59.306246    
-807612.71      2.955873       34.972169      25.877865      58.903341    
-807612.7       2.8698117      34.898012      25.85079       58.500698    
-807623.47      3.4535687      33.571715      25.900367      58.097839    
-807635         2.9021129      32.407967      25.909286      57.69502     
-807647.16      3.6879984      32.590167      25.87555       57.292499    
-807651.06      3.3367158      33.171469      25.910003      56.889863    
-807646.44      3.2422546      32.617515      25.880288      56.487495    
-807634.94      2.8473827      32.488586      25.838675      56.085461    
-807623.75      2.8867889      33.631555      25.876569      55.68329     
-807614.7       3.1683099      34.87319       25.883988      55.281163    
-807614.79      3.3888397      34.89211       25.873652      54.879182    
-807621.19      3.0143242      34.035486      25.873432      54.477288    
-807637.53      3.560069       33.200858      25.858764      54.075561    
-807648.35      2.9619842      33.211102      25.830736      53.674071    
-807648.8       3.3808979      33.702858      25.810519      53.27277     
-807640.8       2.8922499      33.859991      25.796415      52.871622    
-807636.78      3.5294332      32.558719      25.84041       52.47031     
-807622.64      3.152116       34.05558       25.813315      52.06922     
-807612.56      3.0905184      34.955147      25.815507      51.668193    
-807612.27      2.9014432      35.219615      25.862337      51.266995    
-807627.3       3.5718274      33.775557      25.891819      50.865724    
-807641.21      2.7296398      32.971244      25.892414      50.464531    
-807645.81      3.789537       33.446702      25.841949      50.063671    
-807646.49      2.8173346      33.402196      25.824037      49.662976    
-807643.24      3.2572273      34.240198      25.805216      49.262445    
-807634.77      4.1470813      32.97009       25.766853      48.862171    
-807617.22      4.0007832      35.589851      25.839304      48.461611    
-807609.82      3.0883418      36.433647      25.875064      48.060951    
-807616.65      3.2683978      35.501836      25.866766      47.660406    
-807627.11      3.8750114      35.653841      25.880578      47.259869    
-807637.46      2.9654882      34.764199      25.890906      46.859358    
-807644         4.1208005      35.839891      25.872123      46.459008    
-807646.18      3.2202658      35.014684      25.873558      46.058723    
-807641.89      3.662419       34.194756      25.865421      45.658546    
-807628.69      3.4354699      34.109334      25.861431      45.258457    
-807616.27      3.7365591      35.468061      25.878725      44.858362    
-807612.66      3.0927884      36.520359      25.872983      44.458362    
-807616.26      3.3435891      35.757476      25.87037       44.058443    
-807626.41      3.1565299      33.871858      25.778919      43.658979    
-807636.51      3.162941       34.51952       25.87065       43.259191    
-807647.3       2.9496611      34.523467      25.811249      42.859715    
-807647.19      3.288467       33.957484      25.756868      42.460524    
-807638.56      2.9609223      33.545804      25.689979      42.06166     
-807628.46      3.3704594      34.186591      25.714132      41.662747    
-807619.35      3.0021878      35.000228      25.808895      41.26351     
-807613.28      2.8695101      35.601967      25.824293      40.864272    
-807614.16      3.5224427      35.839943      25.79747       40.465198    
-807629.52      2.9973177      33.223429      25.893069      40.065819    
-807641.07      3.1621792      33.761572      25.858666      39.666635    
-807646.95      2.5235722      33.500501      25.790639      39.267764    
-807643.17      2.9148771      34.089332      25.810761      38.868875    
-807639.22      3.0071443      33.425086      25.792734      38.470108    
-807629.39      3.5644186      34.090101      25.841924      38.07122     
-807619.66      3.2400254      34.54741       25.876877      37.672269    
-807612.65      3.5499676      35.481949      25.926024      37.27321     
-807620.36      3.281552       34.938648      25.891228      36.874334    
-807633.48      3.110535       33.676907      25.890508      36.475523    
-807641.35      3.2660879      33.429147      25.820874      36.077006    
-807644.74      2.4718077      33.804206      25.827549      35.678521    
-807644.35      3.0762861      33.495102      25.861463      35.279981    
-807639.56      3.5412272      32.791276      25.868364      34.881477    
-807625.63      2.7114448      33.744842      25.825629      34.483165    
-807616.95      3.0413019      34.426222      25.926146      34.084595    
-807616.28      3.0890967      34.318316      25.905375      33.68615     
-807623.66      3.2460463      34.470926      25.8963        33.287793    
-807634.03      3.9620963      33.263477      25.831705      32.889686    
-807640.69      3.141869       33.198918      25.860655      32.491547    
-807646.45      3.535811       33.8136        25.816787      32.093589    
-807646.55      4.0542801      32.605961      25.857563      31.695565    
-807635.23      3.2166338      33.456867      25.865873      31.297572    
-807624.15      3.2291529      32.883043      25.85331       30.899668    
-807617.12      2.6201803      34.394763      25.85718       30.501805    
-807617.44      3.1523537      34.211669      25.884774      30.103921    
-807622.28      2.5903764      33.611312      25.843762      29.7062      
-807633.11      2.8904074      33.046569      25.810681      29.308616    
-807644         2.7858661      32.908674      25.858805      28.910955    
-807648.91      2.7106154      33.562025      25.863149      28.513335    
-807640.41      3.6616451      34.564558      25.880526      28.115723    
-807633.92      2.5443118      33.402969      25.828615      27.71829     
-807622.91      3.4607937      34.075977      25.864308      27.320819    
-807618         3.549632       35.13605       25.845927      26.923441    
-807613.12      3.1254267      35.102607      25.856176      26.526088    
-807625.2       2.8327947      33.121072      25.887446      26.128712    
-807636.93      3.1441584      32.363508      25.852862      25.731465    
-807643.82      2.8196         33.277172      25.839802      25.334295    
-807643.76      3.0709547      33.822554      25.851816      24.937145    
-807639.9       3.3515122      34.395376      25.906974      24.539925    
-807633.14      2.8857804      33.521527      25.883758      24.142805    
-807623.14      3.4254377      34.446124      25.924226      23.745652    
-807615.35      2.938644       34.712052      25.864327      23.34867     
-807616.52      3.405356       34.768657      25.842335      22.951778    
-807626.78      2.9359769      33.861854      25.893026      22.554833    
-807637.9       2.51458        33.601643      25.86585       22.157988    
-807641.83      3.0778172      33.724749      25.865111      21.76119     
-807642.79      3.4870354      33.954524      25.880816      21.36441     
-807640.63      3.9311218      33.590828      25.868948      20.967697    
-807631.88      3.1613061      33.769735      25.846048      20.571069    
-807619.73      4.5617955      35.148881      25.865182      20.174452    
-807613.64      3.7669188      35.1186        25.838903      19.777922    
-807618.27      3.2193404      35.028549      25.808885      19.381485    
-807628.64      3.9049805      33.35655       25.78832       18.985119    
-807636.2       3.8481078      33.669286      25.791252      18.588787    
-807643.18      3.8647664      34.078567      25.841715      18.192416    
-807643.67      3.2841858      34.664934      25.842694      17.796085    
-807638.53      2.6716148      33.40542       25.813752      17.399837    
-807628.54      3.2166         33.999135      25.821056      17.003618    
-807620.21      3.1537654      34.511874      25.824656      16.607432    
-807617.77      2.8916593      35.168058      25.852549      16.211248    
-807620.75      2.9120898      34.240878      25.873179      15.815078    
-807629.99      3.1983639      33.648748      25.895377      15.418923    
-807638.6       3.3316416      33.628718      25.919345      15.02278     
-807646.69      3.0265818      33.095294      25.86834       14.626744    
-807642.75      3.406238       33.269497      25.879655      14.230735    
-807638.81      3.337809       32.669941      25.849258      13.834801    
-807628.68      2.4909487      32.832316      25.866266      13.438888    
-807620.97      2.7096042      33.395147      25.88294       13.042998    
-807618.66      2.7960966      33.92843       25.82945       12.647202    
-807622.08      2.7640845      33.20857       25.84574       12.251428    
-807631.38      2.6615601      32.538373      25.89453       11.855644    
-807641.84      2.7898925      32.536875      25.915391      11.459882    
-807646.06      2.8942217      33.202126      25.886313      11.064188    
-807642.76      2.9663526      33.335544      25.850967      10.668564    
-807638.8       2.8030003      32.3355        25.884577      10.272949    
-807629.25      3.4168622      32.720646      25.850677      9.8774001    
-807620.92      2.6130855      33.32286       25.819016      9.4819116    
-807615.58      3.1500367      34.282851      25.903496      9.0863965    
-807625.53      2.889391       32.801         25.848591      8.6909587    
-807634.7       3.2584637      31.529309      25.842288      8.2955608    
-807642.28      3.2526856      32.417434      25.845656      7.900196     
-807642.91      3.6497709      32.96558       25.790982      7.5048988    
-807643.81      2.6184594      32.493941      25.825443      7.1096136    
-807636.19      3.0026108      32.867025      25.837648      6.7143553    
-807627.59      2.7050623      33.076063      25.83136       6.3191342    
-807618.14      2.8692295      33.616256      25.84108       5.923942     
-807618.76      3.3521291      34.953596      25.873309      5.5287697    
-807626.15      3.0109087      33.121383      25.847621      5.1336432    
-807634.91      3.1106918      33.209198      25.835107      4.7385551    
-807639.24      3.3620593      32.944591      25.811481      4.3435079    
-807643.93      3.0631707      33.729107      25.827367      3.9484868    
-807641.39      2.9131994      33.526805      25.833919      3.5534959    
-807634.67      3.0415008      33.170515      25.889272      3.1585236    
-807622.72      2.9109476      34.767886      25.877088      2.7635893    
-807619.97      3.1395875      34.278159      25.90426       2.3686844    
-807617.4       3.2512976      35.117543      25.884633      1.9738183    
-807626.99      2.8380495      34.375088      25.898998      1.5789849    
-807633.51      3.2360594      33.60281       25.92317       1.1841844    
-807642.04      3.2273581      33.094289      25.90284       0.78942144   
-807642.71      2.9593056      33.363095      25.89823       0.39469352   
-807639.31      3.028017       33.655371      25.862229      0            
Loop time of 197.339 on 32 procs for 5000 steps with 1080 atoms

Performance: 4.378 ns/day, 5.482 hours/ns, 25.337 timesteps/s, 27.364 katom-step/s
67.2% CPU use with 32 MPI tasks x 1 OpenMP threads

MPI task timing breakdown:
Section |  min time  |  avg time  |  max time  |%varavg| %total
---------------------------------------------------------------
Pair    | 101.34     | 145.42     | 193.41     | 309.3 | 73.69
Neigh   | 0          | 0          | 0          |   0.0 |  0.00
Comm    | 1.6424     | 49.637     | 93.712     | 529.4 | 25.15
Output  | 0.025979   | 0.027945   | 0.02923    |   0.4 |  0.01
Modify  | 1.9291     | 1.939      | 1.9469     |   0.3 |  0.98
Other   |            | 0.3174     |            |       |  0.16

Nlocal:          33.75 ave          48 max          21 min
Histogram: 8 8 0 0 0 0 0 8 0 8
Nghost:        1106.25 ave        1119 max        1092 min
Histogram: 8 0 8 0 0 0 0 0 8 8
Neighs:              0 ave           0 max           0 min
Histogram: 32 0 0 0 0 0 0 0 0 0
FullNghs:       5494.5 ave        7896 max        3378 min
Histogram: 8 8 0 0 0 0 0 8 0 8

Total # of neighbors = 175824
Ave neighs/atom = 162.8
Neighbor list builds = 0
Dangerous builds = 0

reset_timestep 0


variable interval equal 1000
thermo 10

variable nintervals equal $(v_PERIOD/v_interval)
variable nintervals equal 100
variable efield equal 1e-2*36.36*cos((step/${PERIOD})*2*3.14)
variable efield equal 1e-2*36.36*cos((step/100000)*2*3.14)
fix born all addbornforce 0.0 0.0 v_efield

variable Px equal f_born[1]+c_polarization[1]
variable Py equal f_born[2]+c_polarization[2]
variable Pz equal (f_born[3]+c_polarization[3])/vol
variable pe equal pe

fix aveP all ave/time 1 $(v_interval/2) ${interval} v_efield v_Pz v_pe f_born file Pz.${MODEL}.${STRUCTURE}.${TEMP}.$L.${ITER}
fix aveP all ave/time 1 500 ${interval} v_efield v_Pz v_pe f_born file Pz.${MODEL}.${STRUCTURE}.${TEMP}.$L.${ITER}
fix aveP all ave/time 1 500 1000 v_efield v_Pz v_pe f_born file Pz.${MODEL}.${STRUCTURE}.${TEMP}.$L.${ITER}
fix aveP all ave/time 1 500 1000 v_efield v_Pz v_pe f_born file Pz.BaTiO3-E0.${STRUCTURE}.${TEMP}.$L.${ITER}
fix aveP all ave/time 1 500 1000 v_efield v_Pz v_pe f_born file Pz.BaTiO3-E0.BaTiO3-sc333.${TEMP}.$L.${ITER}
fix aveP all ave/time 1 500 1000 v_efield v_Pz v_pe f_born file Pz.BaTiO3-E0.BaTiO3-sc333.300.$L.${ITER}
fix aveP all ave/time 1 500 1000 v_efield v_Pz v_pe f_born file Pz.BaTiO3-E0.BaTiO3-sc333.300.2.${ITER}
fix aveP all ave/time 1 500 1000 v_efield v_Pz v_pe f_born file Pz.BaTiO3-E0.BaTiO3-sc333.300.2.4

thermo_style custom step time temp press pe f_born v_efield v_Pz spcpu cpuremain

# dump 4a all custom 1000 dump.hyst.${MODEL}.${STRUCTURE}.${TEMP}.$L.${ITER}.bin id type xu yu zu fx fy fz
# dump_modify 4a sort id

fix nvt all nvt temp ${TEMP} ${TEMP} $(100*dt)
fix nvt all nvt temp 300 ${TEMP} $(100*dt)
fix nvt all nvt temp 300 300 $(100*dt)
fix nvt all nvt temp 300 300 0.2000000000000000111

run $(v_PERIOD)
run 100000
WARNING: non-constant efield is experimental, strongly distrust scalar/vector output (src/fix_addbornforce.cpp:193)
Per MPI rank memory allocation (min/avg/max) = 3.516 | 3.516 | 3.516 Mbytes
   Step          Time           Temp          Press          PotEng         f_born        v_efield         v_Pz          S/CPU         CPULeft    
         0   0              294.6488       126935.01     -807639.31     -293.56547      0.3636         0.055211381    0              0            
        10   0.02           313.70979      131998.8      -807633        -302.62423      0.36359993     0.056915091    28.187179      3547.3763    
        20   0.04           318.58502      140416.39     -807624.47     -311.8658       0.36359971     0.058653204    28.217176      3545.1296    
        30   0.06           295.53444      143381.56     -807618.35     -314.88179      0.36359935     0.059220485    28.215318      3544.2184    
        40   0.08           305.58803      145111.46     -807618.83     -315.80913      0.36359885     0.059394973    28.252486      3542.4218    
        50   0.1            316.3865       136007.5      -807628.21     -308.12764      0.36359821     0.0579504      28.230639      3541.7508    
        60   0.12           311.62561      132108.86     -807634.87     -300.75632      0.36359742     0.05656418     28.234436      3541.1053    
        70   0.14           298.22197      123198.83     -807643.55     -290.39913      0.36359649     0.054616411    28.273748      3539.8394    
        80   0.16           281.11455      125510.14     -807639.94     -291.58697      0.36359541     0.054839974    28.257571      3539.0548    
        90   0.18           304.05529      124718.4      -807641.52     -293.59811      0.36359419     0.055218403    28.235577      3538.6721    
       100   0.2            311.58117      135681.84     -807630.9      -305.31708      0.36359283     0.057422659    28.291183      3537.5996    
       110   0.22           298.47474      137945.91     -807624.52     -310.27145      0.36359132     0.058354697    28.252224      3537.1006    
       120   0.24           296.72838      146406.34     -807616.97     -317.57267      0.36358968     0.059728155    28.179917      3537.3816    
       130   0.26           297.44334      139874.52     -807622.05     -312.96347      0.36358788     0.05886156     28.238495      3536.9993    
       140   0.28           309.32009      137690.55     -807627.69     -309.0217       0.36358595     0.058120509    28.234202      3536.6595    
       150   0.3            293.88246      127404.87     -807637.27     -297.60928      0.36358387     0.055974392    28.242511      3536.2486    
       160   0.32           289.08393      126350.55     -807640.65     -293.61979      0.36358165     0.055224386    28.219534      3536.0242    
       170   0.34           287.42403      122820.92     -807644.25     -290.11437      0.36357928     0.054565437    28.193601      3535.9807    
       180   0.36           291.29033      128443.6      -807637.86     -297.15731      0.36357677     0.055890476    28.207542      3535.7971    
       190   0.38           309.03129      133314.81     -807632.56     -305.18434      0.36357412     0.057400649    28.236301      3535.4094    
       200   0.4            299.77429      140274.99     -807624.29     -312.30008      0.36357132     0.058739466    28.254733      3534.91      
       210   0.42           294.23618      142492.36     -807620.89     -315.14888      0.36356838     0.059275766    28.228736      3534.5793    
       220   0.44           299.74603      140506.72     -807623.73     -313.21538      0.3635653      0.058912597    28.251667      3534.1161    
       230   0.46           301.3775       134741.4      -807630.44     -306.8603       0.36356207     0.057717785    28.260834      3533.6126    
       240   0.48           296.89717      128417.24     -807639.41     -297.37851      0.3635587      0.05593486     28.239509      3533.2326    
       250   0.5            272.94976      125941.86     -807640.42     -293.09579      0.36355519     0.055129843    28.23707       3532.867     
       260   0.52           283.06248      123765.99     -807642.76     -292.27865      0.36355153     0.054976695    28.243726      3532.4701    
       270   0.54           290.19151      129997.65     -807637.01     -299.00625      0.36354773     0.056242724    28.238623      3532.1001    
       280   0.56           299.7603       133696.35     -807632.61     -304.91024      0.36354379     0.057353879    28.258163      3531.644     
       290   0.58           289.68094      142212.38     -807622.36     -313.60409      0.3635397      0.058989863    28.274524      3531.1245    
       300   0.6            297.5194       141559.13     -807623.17     -313.9493       0.36353547     0.059055484    28.321973      3530.4192    
       310   0.62           298.83202      141424.61     -807624.72     -312.38994      0.3635311      0.058762868    28.355581      3529.602     
       320   0.64           296.8205       132011.22     -807632.79     -304.05637      0.36352658     0.057195973    28.341409      3528.869     
       330   0.66           295.53575      129631.67     -807637.92     -298.42102      0.36352192     0.056136629    28.281348      3528.385     
       340   0.68           283.73226      122389.4      -807643.75     -290.85179      0.36351712     0.054713487    28.263222      3527.9753    
       350   0.7            282.21747      127958.44     -807639.15     -294.79922      0.36351217     0.05545681     28.247632      3527.6244    
       360   0.72           290.3576       128562.48     -807636.84     -298.06884      0.36350708     0.056072668    28.203369      3527.4271    
       370   0.74           304.11329      138567.5      -807627.32     -308.83267      0.36350185     0.058098395    28.226515      3527.143     
       380   0.76           304.91031      139214.79     -807623.64     -312.23827      0.36349647     0.058739934    28.244762      3526.7952    
       390   0.78           294.1868       144649.17     -807618.14     -315.628        0.36349095     0.059378529    28.233395      3526.4835    
       400   0.8            310.51237      137717.61     -807625.65     -310.11722      0.36348529     0.058342705    28.196866      3526.2839    
       410   0.82           315.32486      134687.83     -807631.14     -304.82706      0.36347948     0.057348378    28.231519      3525.971     
       420   0.84           303.96612      126515.92     -807638.74     -295.45998      0.36347353     0.055587021    28.238612      3525.6351    
       430   0.86           291.51075      127067.17     -807639.2      -292.92194      0.36346744     0.055110445    28.242361      3525.2874    
       440   0.88           297.17704      125428.85     -807639.75     -293.11311      0.3634612      0.055147358    28.22562       3524.987     
       450   0.9            308.21824      132188.99     -807633.61     -300.62393      0.36345482     0.056561463    28.187568      3524.7899    
       460   0.92           311.79134      136423.37     -807627.64     -307.09015      0.3634483      0.0577791      28.22745       3524.4776    
       470   0.94           306.24517      142625.52     -807620.05     -313.77893      0.36344163     0.059038678    28.224702      3524.1707    
       480   0.96           312.27969      142442.76     -807621.01     -313.63145      0.36343482     0.059012035    28.218788      3523.8773    
       490   0.98           307.81601      139748.73     -807624.08     -309.86047      0.36342786     0.058303613    28.174794      3523.6938    
       500   1              311.62918      133347.18     -807631.7      -302.80828      0.36342077     0.056977779    28.197265      3523.4471    
       510   1.02           305.0161       128142.13     -807637.84     -9461.5877      0.36341353     0.055636585    28.115011      3523.3986    
       520   1.04           293.85364      125718.41     -807639.5      -9358.2375      0.36340614     0.055029978    28.129107      3523.3042    
       530   1.06           313.32146      126424.8      -807640.31     -9421.1748      0.36339862     0.055401221    28.180006      3523.0794    
       540   1.08           313.01505      132090.08     -807633.56     -9638.844       0.36339095     0.05668242     28.192074      3522.8219    
       550   1.1            319.48374      137004.33     -807627.9      -9853.3951      0.36338313     0.057945361    28.197488      3522.5484    
       560   1.12           300.39115      142387.67     -807619.45     -10040.78       0.36337518     0.059048617    28.199998      3522.2664    
       570   1.14           303.10125      140762.56     -807621.02     -10009.141      0.36336707     0.058863863    28.180988      3522.0238    
       580   1.16           306.94366      139086.46     -807624.83     -9906.4969      0.36335883     0.058261535    28.23693       3521.6566    
       590   1.18           301.11563      131300.05     -807632.44     -9644.8941      0.36335044     0.056724321    28.191491      3521.386     
       600   1.2            294.36067      128120.23     -807637.43     -9455.1384      0.36334191     0.055609621    28.171612      3521.1542    
       610   1.22           301.25084      124433.78     -807642.26     -9337.6051      0.36333324     0.054919669    28.16725       3520.9273    
       620   1.24           297.68328      128603.17     -807637.74     -9471.3308      0.36332442     0.055707536    28.151832      3520.7274    
       630   1.26           302.31054      131806.78     -807633.19     -9647.3333      0.36331546     0.056744129    28.113234      3520.5995    
       640   1.28           309.5919       138785.49     -807625.54     -9928.2695      0.36330636     0.058398016    28.164863      3520.3632    
       650   1.3            295.67834      140594.11     -807621.29     -10012.794      0.36329711     0.058896689    28.179875      3520.0944    
       660   1.32           296.35128      141902.35     -807621.17     -10023.067      0.36328772     0.058958641    28.192521      3519.799     
       670   1.34           305.71143      135550.57     -807628.28     -9844.1485      0.36327819     0.057907707    28.193509      3519.5       
       680   1.36           303.28084      131859.68     -807634.17     -9649.3791      0.36326851     0.056763498    28.181084      3519.2223    
       690   1.38           293.91412      126360.14     -807640.53     -9409.5561      0.36325869     0.05535421     28.171924      3518.9588    
       700   1.4            285.202        127050.75     -807639.99     -9390.6309      0.36324873     0.055244393    28.161585      3518.7113    
       710   1.42           304.87108      126600.69     -807640.43     -9470.2866      0.36323863     0.055714552    28.155377      3518.4717    
       720   1.44           302.15028      133568.21     -807632.34     -9718.9848      0.36322838     0.057179279    28.141194      3518.2535    
       730   1.46           287.24213      138019.15     -807625        -9893.1647      0.36321798     0.058205689    28.148276      3518.0194    
       740   1.48           301.95657      142056.09     -807622.78     -10029.975      0.36320745     0.059012314    28.153489      3517.7732    
       750   1.5            294.84402      140488.51     -807623.66     -9975.4501      0.36319677     0.058693237    28.137362      3517.5511    
       760   1.52           298.44092      136374.41     -807628.72     -9828.0491      0.36318595     0.057827687    28.126849      3517.3428    
       770   1.54           294.74076      130313        -807635.7      -9589.2945      0.36317498     0.056424572    28.127717      3517.1293    
       780   1.56           293.35472      126382.42     -807641.04     -9410.0518      0.36316387     0.05537158     28.161557      3516.8577    
       790   1.58           282.78268      126169.3      -807640.5      -9381.3147      0.36315262     0.055204193    28.187202      3516.5435    
       800   1.6            295.40132      128080.32     -807638.83     -9491.276       0.36314122     0.055853011    28.190032      3516.2239    
       810   1.62           292.41148      134941.23     -807630.56     -9741.6437      0.36312968     0.057328163    28.209188      3515.874     
       820   1.64           285.05991      139067.76     -807623.96     -9923.2626      0.363118       0.058398843    28.223206      3515.5025    
       830   1.66           299.17555      141776.99     -807622.22     -10037.443      0.36310618     0.059072721    28.207254      3515.1555    
       840   1.68           292.12936      139404.02     -807623.97     -9949.0688      0.36309421     0.058554551    28.224769      3514.7823    
       850   1.7            302.30845      135623.4      -807630.3      -9787.4525      0.3630821      0.057605291    28.211472      3514.429     
       860   1.72           303.17197      129276.12     -807637.38     -9559.7851      0.36306984     0.056267224    28.192347      3514.1034    
       870   1.74           294.51262      126677.48     -807640.54     -9413.4848      0.36305745     0.055408018    28.172998      3513.8049    
       880   1.76           294.19404      124547.51     -807641.91     -9361.9144      0.3630449      0.055106377    28.176097      3513.5007    
       890   1.78           287.97237      129520.49     -807635.24     -9541.3024      0.36303222     0.056164258    28.211216      3513.1462    
       900   1.8            302.53278      133619.76     -807631.38     -9725.9391      0.36301939     0.057253134    28.224168      3512.7738    
       910   1.82           298.02372      139553.32     -807623.79     -9937.6581      0.36300642     0.058501538    28.162963      3512.4855    
       920   1.84           300.02959      140157.95     -807622.21     -9989.0896      0.36299331     0.058806432    28.158643      3512.2018    
       930   1.86           295.91854      140509.94     -807622.09     -9962.0423      0.36298005     0.058649345    28.150649      3511.9273    
       940   1.88           299.48132      134177.68     -807629.56     -9729.0302      0.36296665     0.057279651    28.09948       3511.7191    
       950   1.9            314.82508      130315.28     -807636.67     -9554.6576      0.36295311     0.056255132    28.136791      3511.4587    
       960   1.92           300.14143      126036.88     -807639.54     -9389.3791      0.36293942     0.055284103    28.153438      3511.1746    
       970   1.94           293.72957      127837.41     -807637.77     -9406.5547      0.36292559     0.055387343    28.173154      3510.8637    
       980   1.96           311.55356      129243.27     -807636.08     -9532.0883      0.36291162     0.056128666    28.17113       3510.5544    
       990   1.98           306.79757      134792.41     -807627.68     -9774.0369      0.3628975      0.057555593    28.148734      3510.2725    
      1000   2              314.72471      139443.71     -807623.5      -9938.3721      0.36288325     0.0585256      28.076763      3510.0792    
      1010   2.02           313.92105      141752.82     -807621.87     -311.99062      0.36286884     0.058794863    28.259234      3509.6574    
      1020   2.04           305.5249       139580.66     -807622.6      -309.96336      0.3628543      0.058415164    28.21582       3509.2896    
      1030   2.06           324.62617      134487.73     -807631.56     -303.62002      0.36283961     0.057222027    28.178271      3508.9676    
      1040   2.08           313.01415      129087.64     -807635.52     -298.0785       0.36282478     0.056179935    28.192408      3508.628     
      1050   2.1            295.57163      127300.87     -807637.52     -293.61877      0.3628098      0.055341676    28.214135      3508.2623    
      1060   2.12           295.9824       126738.55     -807637.69     -293.5161       0.36279469     0.055324631    28.204148      3507.9086    
      1070   2.14           302.74108      131022.19     -807633.34     -298.85613      0.36277943     0.056333539    28.179818      3507.5832    
      1080   2.16           304.72627      135504.63     -807627.28     -305.30627      0.36276402     0.057551816    28.19856       3507.2355    
      1090   2.18           309.17548      139713.88     -807622.71     -310.52427      0.36274848     0.058537944    28.25717       3506.8211    
      1100   2.2            314.92942      139673.14     -807623.53     -310.57417      0.36273279     0.058549884    28.279176      3506.383     
      1110   2.22           312.45101      139071.11     -807624.7      -309.13015      0.36271695     0.058280199    28.284377      3505.9406    
      1120   2.24           322.29338      132729.92     -807632.68     -302.68751      0.36270098     0.057068084    28.234693      3505.5547    
      1130   2.26           307.58393      129598.76     -807635.85     -297.54305      0.36268486     0.056100651    28.249287      3505.1534    
      1140   2.28           290.72526      126158.55     -807638.79     -292.47248      0.3626686      0.055147087    28.262692      3504.7383    
      1150   2.3            292.8242       128828.39     -807636.57     -295.07319      0.36265219     0.05563998     28.300964      3504.2832    
      1160   2.32           296.87891      130882.56     -807633.31     -299.12404      0.36263564     0.056406394    28.316484      3503.8133    
      1170   2.34           299.06024      137234.43     -807626.8      -306.04406      0.36261895     0.057713973    28.271342      3503.3931    
      1180   2.36           304.15897      139189.08     -807623.72     -309.99766      0.36260212     0.058462259    28.250575      3502.9957    
      1190   2.38           313.37878      141052.23     -807623.48     -311.56972      0.36258514     0.058761483    28.225754      3502.625     
      1200   2.4            303.5958       138081.3      -807626.09     -307.73391      0.36256802     0.058040798    28.199027      3502.2821    
      1210   2.42           314.90582      132601.71     -807634.1      -301.3495       0.36255076     0.05683936     28.183407      3501.9551    
      1220   2.44           300.01135      128035.73     -807637.15     -296.37595      0.36253335     0.055903952    28.247955      3501.562     
      1230   2.46           299.26539      126210.24     -807639.87     -293.66579      0.3625158      0.055395429    28.289524      3501.1278    
      1240   2.48           302.33257      127304.24     -807638.87     -295.22885      0.36249811     0.055692994    28.302228      3500.6822    
      1250   2.5            297.49024      132006.44     -807633.14     -300.4537       0.36248028     0.056681416    28.237059      3500.3026    
      1260   2.52           304.41966      138317.21     -807627.69     -306.95837      0.3624623      0.057911412    28.249287      3499.9113    
      1270   2.54           296.97093      139968.68     -807623.58     -310.21286      0.36244418     0.058528337    28.239069      3499.5306    
      1280   2.56           302.87891      140324.32     -807623.47     -311.21054      0.36242592     0.058719531    28.223701      3499.1651    
      1290   2.58           289.23724      136493.66     -807626.54     -306.28193      0.36240751     0.057792529    28.160592      3498.8606    
      1300   2.6            297.20766      132347.23     -807632.8      -301.14984      0.36238896     0.056827061    28.161789      3498.5542    
      1310   2.62           303.52027      126690.82     -807639.93     -294.94611      0.36237027     0.055659287    28.21999       3498.1918    
      1320   2.64           296.24376      127177.19     -807639.73     -294.09916      0.36235143     0.055502344    28.228697      3497.8214    
      1330   2.66           287.6784       127895.83     -807637.32     -295.40149      0.36233245     0.055751039    28.191764      3497.4857    
      1340   2.68           313.43066      132475.61     -807635.06     -301.27625      0.36231333     0.056862781    28.184961      3497.156     
      1350   2.7            302.44708      136511.75     -807628.16     -306.72664      0.36229407     0.057894565    28.223829      3496.7902    
      1360   2.72           288.24344      140943.89     -807622.05     -310.81639      0.36227466     0.058669646    28.207987      3496.439     
      1370   2.74           287.94385      138737.77     -807623.84     -309.05572      0.36225511     0.05834045     28.195423      3496.0991    
      1380   2.76           295.26028      136862.93     -807628.48     -305.36761      0.36223542     0.05764738     28.23295       3495.7254    
      1390   2.78           302.23096      130083.27     -807635.53     -299.35324      0.36221558     0.05651508     28.265237      3495.3232    
      1400   2.8            295.91878      129496.72     -807637.58     -296.2998       0.3621956      0.055941705    28.308674      3494.8835    
      1410   2.82           286.25794      126031.66     -807640.09     -292.48043      0.36217548     0.055223673    28.324752      3494.4309    
      1420   2.84           298.70306      129236.74     -807637.61     -296.61574      0.36215522     0.0560076      28.320158      3493.9838    
      1430   2.86           302.4084       132598        -807633.84     -300.93834      0.36213481     0.056827005    28.273644      3493.578     
      1440   2.88           295.93239      138256.3      -807625.48     -308.30909      0.36211426     0.058222147    28.310266      3493.1417    
      1450   2.9            302.33198      138110.56     -807625.58     -309.01414      0.36209357     0.058358626    28.248643      3492.7588    
      1460   2.92           306.18557      139029.26     -807626.36     -308.66145      0.36207273     0.058295372    28.225349      3492.396     
      1470   2.94           293.24234      135298.27     -807628.53     -304.66813      0.36205176     0.057544509    28.236922      3492.0237    
      1480   2.96           308.02866      130902.55     -807635.8      -299.2952       0.36203064     0.05653299     28.26227       3491.6304    
      1490   2.98           291.33655      127996.41     -807638.05     -294.54041      0.36200937     0.055638139    28.259783      3491.2397    
      1500   3              288.24255      127260.84     -807638.69     -293.35633      0.36198796     0.055417745    28.250649      3490.8571    
      1510   3.02           300.39692      129363.97     -807636.07     -9518.2807      0.36196642     0.056193718    28.18782       3490.5262    
      1520   3.04           306.77449      133997.68     -807631.13     -9697.1839      0.36194472     0.057253352    28.194086      3490.19      
      1530   3.06           302.45487      138524.66     -807625.91     -9833.4519      0.36192289     0.058061398    28.175024      3489.8689    
      1540   3.08           303.08416      140370.47     -807623.55     -9899.7303      0.36190091     0.058456287    28.183919      3489.5403    
      1550   3.1            299.54252      138675.09     -807624.73     -9833.6746      0.36187879     0.058069788    28.174613      3489.2188    
      1560   3.12           307.6698       135529.04     -807628.69     -9728.3079      0.36185653     0.057451112    28.182188      3488.8908    
      1570   3.14           297.46751      130796.32     -807632.62     -9544.3424      0.36183412     0.056368182    28.159586      3488.5803    
      1580   3.16           312.35098      126366.43     -807639.62     -9373.1696      0.36181157     0.055360698    28.192893      3488.2431    
      1590   3.18           299.66167      128707.73     -807636.69     -9398.8261      0.36178888     0.055515715    28.222862      3487.8824    
      1600   3.2            319.56307      129986.46     -807635.17     -9531.7716      0.36176605     0.056304533    28.214442      3487.5283    
      1610   3.22           323.44984      135671.35     -807629.64     -9717.3711      0.36174307     0.057404522    28.190972      3487.1922    
      1620   3.24           313.09145      137624.12     -807625.94     -9787.9668      0.36171995     0.057825255    28.138109      3486.8963    
      1630   3.26           309.78497      141487.35     -807621.47     -9912.1028      0.36169669     0.058562391    28.152078      3486.5891    
      1640   3.28           307.60182      138344.33     -807623.6      -9836.1444      0.36167329     0.058117377    28.113175      3486.3108    
      1650   3.3            319.08175      136202.39     -807629.21     -9703.123       0.36164974     0.057335145    28.175811      3485.9843    
      1660   3.32           302.59284      129227.51     -807634.42     -9464.6631      0.36162605     0.055929764    28.245355      3485.6058    
      1670   3.34           309.43673      129695.36     -807636.48     -9428.0197      0.36160222     0.055716898    28.214737      3485.2502    
      1680   3.36           309.08788      126302.14     -807637.15     -9410.7501      0.36157824     0.055618528    28.175811      3484.9233    
      1690   3.38           311.15466      131775.2      -807633.18     -9545.9682      0.36155413     0.056421444    28.178239      3484.5943    
      1700   3.4            309.3605       133248.74     -807630.94     -9618.2887      0.36152987     0.05685271     28.211885      3484.2404    
      1710   3.42           314.59697      140682.87     -807623.66     -9876.8148      0.36150546     0.058384772    28.217567      3483.8825    
      1720   3.44           305.16632      137830.33     -807623.57     -9848.2363      0.36148092     0.058219789    28.174713      3483.5554    
      1730   3.46           316.28206      140101.48     -807625.67     -9830.0373      0.36145623     0.05811617     28.176099      3483.227     
      1740   3.48           306.23434      132384.92     -807631.4      -9612.6976      0.3614314      0.056835141    28.169286      3482.9031    
      1750   3.5            308.70079      132200.92     -807633.39     -9563.9978      0.36140643     0.05655111     28.168649      3482.5794    
      1760   3.52           304.99187      126089.54     -807638.72     -9388.3915      0.36138131     0.055516623    28.176193      3482.2499    
      1770   3.54           290.68284      130754.21     -807633.66     -9488.0122      0.36135605     0.056109635    28.185911      3481.9135    
      1780   3.56           297.48784      129626.86     -807634.59     -9498.4932      0.36133065     0.056175565    28.169519      3481.5882    
      1790   3.58           310.86124      135690.44     -807629.65     -9719.0903      0.36130511     0.057484274    28.122043      3481.2954    
      1800   3.6            306.91221      136588.13     -807626.63     -9808.1174      0.36127942     0.058014956    28.164006      3480.973     
      1810   3.62           294.03148      139390.62     -807623.49     -9853.598       0.3612536      0.05828814     28.185745      3480.6354    
      1820   3.64           309.63913      135110.8      -807629.84     -9725.205       0.36122763     0.057532778    28.186277      3480.2973    
      1830   3.66           301.93137      133821.86     -807631.11     -9652.5834      0.36120151     0.057107289    28.21526       3479.9394    
      1840   3.68           306.91814      129046.96     -807636.26     -9516.4084      0.36117526     0.056305733    28.24623       3479.5609    
      1850   3.7            291.0213       128977.12     -807637.23     -9413.9222      0.36114886     0.055703424    28.204788      3479.2102    
      1860   3.72           297.46703      129125.36     -807638.21     -9413.508       0.36112232     0.055705067    28.193848      3478.8667    
      1870   3.74           301.64098      131719.63     -807634.32     -9560.4075      0.36109564     0.056578535    28.167641      3478.5404    
      1880   3.76           300.74452      136125.27     -807628.38     -9749.1558      0.36106881     0.057699835    28.147662      3478.227     
      1890   3.78           308.40322      137422.95     -807627.95     -9799.4739      0.36104184     0.058001972    28.129363      3477.9251    
      1900   3.8            302.1072       139111.72     -807626.48     -9816.3343      0.36101474     0.05810613     28.174042      3477.5935    
      1910   3.82           302.11447      135837.96     -807629.38     -9727.0853      0.36098748     0.057582182    28.174186      3477.2616    
      1920   3.84           301.68168      133474.26     -807631.86     -9645.1776      0.36096009     0.057101641    28.185367      3476.9223    
      1930   3.86           302.31776      127781.17     -807638.52     -9436.088       0.36093255     0.055868045    28.167563      3476.5942    
      1940   3.88           295.15121      128466.69     -807638.72     -9395.2162      0.36090487     0.055630322    28.120425      3476.2959    
      1950   3.9            291.27631      127489.62     -807637.29     -9426.1051      0.36087705     0.055817522    28.117824      3475.9987    
      1960   3.92           296.77849      132697.14     -807632.04     -9618.0092      0.36084909     0.056958313    28.187048      3475.6572    
      1970   3.94           301.77666      135255.37     -807629.73     -9714.9213      0.36082098     0.057536712    28.172584      3475.3246    
      1980   3.96           294.92573      138762.46     -807624.94     -9834.6984      0.36079273     0.058250654    28.236214      3474.9522    
      1990   3.98           300.771        137269.71     -807627.06     -9794.872       0.36076434     0.058019329    28.230202      3474.5837    
      2000   4              303.89487      135740.99     -807628.81     -9749.3309      0.36073581     0.057754137    28.215232      3474.2246    
      2010   4.02           293.61879      131497.45     -807633.27     -298.82479      0.36070713     0.056651239    28.287788      3473.8212    
      2020   4.04           302.13203      129438.49     -807638.47     -294.69589      0.36067831     0.055872945    28.275866      3473.4254    
      2030   4.06           285.47554      127893.24     -807637.88     -292.92615      0.36064935     0.05554187     28.294848      3473.0187    
      2040   4.08           301.73047      129365.76     -807637.32     -295.7009       0.36062025     0.056072516    28.240291      3472.6453    
      2050   4.1            295.25453      131795.49     -807632.33     -299.79869      0.36059101     0.056854174    28.23637       3472.2744    
      2060   4.12           302.5071       137012.47     -807628.84     -304.16446      0.36056162     0.057686805    28.21809       3471.9146    
      2070   4.14           304.88549      137381.66     -807627.6      -305.67884      0.36053209     0.057978765    28.282502      3471.5166    
      2080   4.16           301.38373      138244.12     -807625.12     -307.51979      0.36050242     0.058332743    28.240597      3471.1438    
      2090   4.18           310.28357      134667.6      -807630.88     -302.90622      0.36047261     0.057462357    28.202383      3470.7936    
      2100   4.2            298.68402      131678.89     -807634.12     -297.80972      0.36044265     0.05650023     28.19276       3470.4491    
      2110   4.22           298.74042      127648.57     -807638.52     -293.29323      0.36041256     0.05564801     28.228354      3470.0836    
      2120   4.24           294.97249      128585.24     -807636.91     -294.13013      0.36038232     0.055811482    28.238069      3469.7127    
      2130   4.26           296.31174      129467.5      -807635.97     -295.12648      0.36035193     0.056005262    28.264162      3469.3269    
      2140   4.28           313.23896      133256.64     -807633.87     -299.28893      0.36032141     0.05679997     28.234243      3468.9586    
      2150   4.3            302.59049      136546.47     -807627.73     -303.67047      0.36029075     0.057636417    28.186926      3468.6174    
      2160   4.32           310.44696      138586.88     -807625.44     -306.76396      0.36025994     0.058228537    28.188697      3468.2751    
      2170   4.34           299.77039      137752.2      -807624.86     -305.53041      0.36022899     0.057999373    28.223269      3467.9131    
      2180   4.36           308.05754      134317        -807630.06     -301.1808       0.36019789     0.057178616    28.215443      3467.5556    
      2190   4.38           307.21419      131259.1      -807633.31     -297.44433      0.36016666     0.056474151    28.205577      3467.2036    
      2200   4.4            298.73777      129347.78     -807634.66     -294.64115      0.36013528     0.0559468      28.166349      3466.8736    
      2210   4.42           301.52583      128694.85     -807635.79     -293.57273      0.36010377     0.055748805    28.218418      3466.5143    
      2220   4.44           312.12094      130176.31     -807636.1      -294.51971      0.36007211     0.055933553    28.2064        3466.1618    
      2230   4.46           321.24076      134529.45     -807631.32     -300.40449      0.3600403      0.057056197    28.228939      3465.7968    
      2240   4.48           306.98258      137235.93     -807624.41     -305.20875      0.36000836     0.05797382     28.230475      3465.4311    
      2250   4.5            310.92401      138479.84     -807624.97     -305.10271      0.35997627     0.057958843    28.237389      3465.0617    
      2260   4.52           306.7358       136904.13     -807626.46     -302.94937      0.35994404     0.057554937    28.210151      3464.7072    
      2270   4.54           317.65521      133974.4      -807629.48     -301.37946      0.35991167     0.057261832    28.230347      3464.3418    
      2280   4.56           313.13091      131029.01     -807632.97     -297.27033      0.35987916     0.056486202    28.231276      3463.976     
      2290   4.58           311.52513      128266.06     -807636.83     -293.15929      0.35984651     0.055710093    28.239316      3463.606     
      2300   4.6            314.61278      127718.02     -807638.31     -292.14913      0.35981371     0.055523189    28.288335      3463.2101    
      2310   4.62           311.64728      131015.54     -807634.03     -296.12314      0.35978077     0.056283605    28.285413      3462.8161    
      2320   4.64           307.09497      134678.99     -807628.62     -301.07031      0.35974769     0.057229168    28.263219      3462.4342    
      2330   4.66           310.9465       137066.08     -807626.81     -303.51533      0.35971447     0.057699259    28.242619      3462.0632    
      2340   4.68           306.80962      137332.53     -807626.18     -303.74554      0.35968111     0.057748379    28.23901       3461.6944    
      2350   4.7            306.88928      137068.24     -807625.72     -304.34039      0.3596476      0.057866864    28.240948      3461.3246    
      2360   4.72           312.15279      134017.69     -807629.96     -301.09248      0.35961396     0.057254666    28.262761      3460.9437    
      2370   4.74           314.37021      130751.6      -807634.95     -296.51554      0.35958017     0.056389629    28.251246      3460.5689    
      2380   4.76           299.64607      128279.57     -807637.6      -292.06455      0.35954624     0.055548408    28.207522      3460.2168    
      2390   4.78           297.61201      129895.43     -807634.9      -294.69067      0.35951216     0.056053188    28.243104      3459.8465    
      2400   4.8            299.76504      129989.27     -807633.41     -296.80001      0.35947795     0.056459778    28.224915      3459.4855    
      2410   4.82           301.27574      133315.32     -807630.67     -299.85293      0.35944359     0.057045983    28.241862      3459.1161    
      2420   4.84           294.38241      135852.01     -807627.71     -302.04015      0.35940909     0.057467609    28.228894      3458.7533    
      2430   4.86           299.99309      137901.49     -807625.16     -305.46343      0.35937446     0.058124541    28.180241      3458.4151    
      2440   4.88           302.66517      136018.58     -807627.44     -303.72171      0.35933967     0.057798715    28.170256      3458.0818    
      2450   4.9            303.49932      134726.33     -807631.51     -299.73196      0.35930475     0.057045004    28.240436      3457.7132    
      2460   4.92           291.46618      130144.24     -807634.57     -295.10399      0.35926969     0.056169689    28.288548      3457.3209    
      2470   4.94           294.70929      130369.95     -807635.17     -294.90561      0.35923448     0.056137431    28.277815      3456.9341    
      2480   4.96           298.48438      128134.42     -807636.52     -294.18507      0.35919913     0.056005782    28.295972      3456.5388    
      2490   4.98           305.77059      131706        -807635.21     -296.46846      0.35916364     0.056446063    28.291723      3456.1458    
      2500   5              302.21775      132565.2      -807632.92     -298.38223      0.35912801     0.056816071    28.236231      3455.7802    
[...]
     98740   197.48         295.48111      133205.88     -807631.5      -9690.34        0.36236891     0.057145972    30.265513      43.597713    
     98750   197.5          300.35959      135297.89     -807629.63     -9758.6619      0.36238762     0.05754591     30.248052      43.251505    
     98760   197.52         296.44947      133416.86     -807631.42     -9679.4868      0.36240618     0.057076099    30.260172      42.905298    
     98770   197.54         303.24197      135176.99     -807630.98     -9712.9359      0.36242459     0.057270425    30.330702      42.559084    
     98780   197.56         295.16848      132931.08     -807631.34     -9660.9406      0.36244287     0.056960973    30.325962      42.212874    
     98790   197.58         302.88177      133616.89     -807631.68     -9674.6589      0.362461       0.057039002    30.342748      41.866666    
     98800   197.6          298.21751      131449.15     -807633.28     -9595.0834      0.36247899     0.056567041    30.325769      41.520463    
     98810   197.62         297.59094      134167.29     -807631        -9656.6174      0.36249683     0.056927007    30.296605      41.174267    
     98820   197.64         305.70488      132074.6      -807631.57     -9672.7755      0.36251453     0.057019476    30.297393      40.828075    
     98830   197.66         299.51743      135922.97     -807627.9      -9754.2823      0.36253209     0.057497161    30.281144      40.481887    
     98840   197.68         310.60445      133418.76     -807631.69     -9680.3566      0.36254951     0.057058661    30.292445      40.135702    
     98850   197.7          306.83331      135795.83     -807629.23     -9736.2693      0.36256678     0.057385491    30.298028      39.789519    
     98860   197.72         306.24001      133390.72     -807629.94     -9709.5177      0.36258391     0.057225114    30.31212       39.443338    
     98870   197.74         303.15999      135029.18     -807630.18     -9684.2615      0.3626009      0.057073587    30.327368      39.097158    
     98880   197.76         313.57975      131353.4      -807634.17     -9602.7843      0.36261774     0.056590778    30.348459      38.750978    
     98890   197.78         300.05658      133761.83     -807631.15     -9636.9696      0.36263445     0.056789622    30.319283      38.404806    
     98900   197.8          300.1855       132945.32     -807630.2      -9669.7346      0.362651       0.056980101    30.283603      38.058641    
     98910   197.82         307.86332      134039.17     -807630.14     -9704.3128      0.36266742     0.057181268    30.229749      37.712486    
     98920   197.84         311.20703      133957.43     -807630.77     -9701.0753      0.36268369     0.057159627    30.27556       37.366329    
     98930   197.86         303.70687      135572.55     -807628.5      -9741.6734      0.36269982     0.057396282    30.299977      37.020172    
     98940   197.88         311.13934      134727.34     -807629.31     -9751.162       0.36271581     0.057449655    30.272482      36.674021    
     98950   197.9          307.89183      133268.45     -807630.47     -9702.1644      0.36273165     0.057158486    30.328737      36.327867    
     98960   197.92         303.77893      134140.99     -807631.96     -9637.895       0.36274735     0.056777398    30.344233      35.981715    
     98970   197.94         302.14985      130961.33     -807633.12     -9599.64        0.36276291     0.05654961     30.326764      35.635568    
     98980   197.96         313.84386      133095.51     -807632.89     -9662.4087      0.36277832     0.05691695     30.345223      35.289422    
     98990   197.98         293.62878      132191.1      -807630.73     -9650.4709      0.36279359     0.056844237    30.311844      34.943283    
     99000   198            309.5698       134959.58     -807631.25     -9707.1518      0.36280872     0.05717572     30.250525      34.597155    
     99010   198.02         303.43951      134090.66     -807631.07     -302.96277      0.3628237      0.05710066     30.432623      34.251009    
     99020   198.04         300.89861      136959.96     -807626.92     -306.92005      0.36283855     0.057844139    30.464708      33.904864    
     99030   198.06         301.33637      133715.7      -807630.31     -303.87798      0.36285324     0.057268491    30.440349      33.558725    
     99040   198.08         296.48341      135279.31     -807630.81     -302.81658      0.3628678      0.057066172    30.416636      33.212592    
     99050   198.1          299.72091      130782.23     -807634.43     -300.03834      0.36288221     0.056540363    30.412598      32.866463    
     99060   198.12         296.2485       133476.57     -807631.45     -302.65145      0.36289648     0.057030545    30.42432       32.520337    
     99070   198.14         309.9751       130063.67     -807635.5      -300.83733      0.36291061     0.056686492    30.386716      32.174217    
     99080   198.16         297.19405      133722.96     -807632.27     -302.42658      0.36292459     0.056983757    30.357943      31.828104    
     99090   198.18         289.26978      133256.09     -807631.37     -302.50084      0.36293843     0.056995576    30.389689      31.481991    
     99100   198.2          291.70256      135203        -807628.23     -306.14981      0.36295213     0.057680919    30.393741      31.135882    
     99110   198.22         303.99173      133612.23     -807631.57     -304.7436       0.36296568     0.057413835    30.421509      30.789772    
     99120   198.24         295.58411      135010.16     -807630.89     -304.31683      0.36297909     0.057331313    30.377968      30.443671    
     99130   198.26         289.58578      133101.34     -807631.69     -302.81284      0.36299236     0.057045886    30.360995      30.097575    
     99140   198.28         289.93986      133485.54     -807631.62     -303.09139      0.36300548     0.057096296    30.355189      29.751482    
     99150   198.3          293.50173      131675.34     -807633.61     -301.64098      0.36301846     0.056821036    30.375474      29.405391    
     99160   198.32         297.00436      132132.53     -807634.44     -301.29155      0.3630313      0.056753207    30.359977      29.059305    
     99170   198.34         293.15548      132308.91     -807633.13     -302.12877      0.36304399     0.056908919    30.346876      28.713224    
     99180   198.36         285.97949      134580.97     -807629.85     -304.4464       0.36305655     0.057343486    30.336492      28.367147    
     99190   198.38         303.98434      134177.26     -807632.05     -304.72079      0.36306895     0.057393207    30.379972      28.021069    
     99200   198.4          298.23733      134665.84     -807631.15     -304.77621      0.36308122     0.057401706    30.38159       27.674994    
     99210   198.42         303.20817      133644.26     -807632.4      -304.20102      0.36309334     0.057291461    30.398496      27.328922    
     99220   198.44         289.17022      132957.63     -807630.82     -303.82595      0.36310532     0.057218935    30.419628      26.982851    
     99230   198.46         286.86215      133775.01     -807631.31     -302.94195      0.36311715     0.057050594    30.402137      26.636785    
     99240   198.48         299.79407      131695.6      -807635.17     -300.84842      0.36312885     0.056654513    30.372922      26.290725    
     99250   198.5          299.36837      132706.11     -807634.13     -301.71915      0.3631404      0.056816677    30.440484      25.944662    
     99260   198.52         288.55208      131817.73     -807631.97     -302.38361      0.3631518      0.056940013    30.406592      25.598606    
     99270   198.54         295.37941      134661.08     -807630.71     -304.46243      0.36316306     0.057329685    30.422762      25.252553    
     99280   198.56         307.45674      132501.26     -807633.85     -303.06035      0.36317418     0.057063929    30.422381      24.906502    
     99290   198.58         295.43765      136817.1      -807628.37     -306.69233      0.36318516     0.057746057    30.386162      24.560458    
     99300   198.6          288.29081      133149.65     -807630.42     -303.70164      0.36319599     0.057181246    30.390928      24.214417    
     99310   198.62         298.85059      135634.13     -807630.89     -304.45956      0.36320668     0.05732226     30.429752      23.868377    
     99320   198.64         296.10462      130164.06     -807634.45     -300.61076      0.36321723     0.056595983    30.394715      23.522343    
     99330   198.66         294.30447      134119.24     -807631.12     -303.46769      0.36322763     0.05713222     30.390077      23.176312    
     99340   198.68         288.13193      131048.64     -807632.93     -300.92848      0.36323789     0.056652576    30.323174      22.83029     
     99350   198.7          299.59765      135048.5      -807631.2      -304.02192      0.36324801     0.057233352    30.330593      22.48427     
     99360   198.72         298.01822      131833.94     -807632.4      -302.66245      0.36325798     0.056975861    30.355028      22.138252    
     99370   198.74         301.23203      136299.81     -807628.93     -306.34793      0.36326781     0.057668088    30.375036      21.792236    
     99380   198.76         295.09505      132947.76     -807630.4      -304.09151      0.3632775      0.057241804    30.338029      21.446226    
     99390   198.78         302.17111      135635.25     -807630.29     -304.9891       0.36328704     0.057409258    30.413489      21.100214    
     99400   198.8          304.40052      131521.23     -807633.85     -301.7631       0.36329644     0.056800545    30.388509      20.754208    
     99410   198.82         289.88359      134186.43     -807629.92     -303.487        0.3633057      0.057123577    30.400174      20.408203    
     99420   198.84         302.13524      131798.51     -807633.59     -301.51989      0.36331481     0.056751897    30.441785      20.0622      
     99430   198.86         292.53784      133751.39     -807630.79     -302.83987      0.36332378     0.056998935    30.410001      19.716202    
     99440   198.88         307.84105      132063.8      -807632.89     -302.85691      0.36333261     0.057000758    30.36451       19.370211    
     99450   198.9          306.32913      134642.15     -807630.3      -305.07655      0.36334129     0.057417144    30.367543      19.024222    
     99460   198.92         299.03911      135143.69     -807628.14     -306.14704      0.36334983     0.057617262    30.373985      18.678237    
     99470   198.94         302.53893      134557.3      -807630.34     -304.36283      0.36335823     0.057280148    30.376614      18.332255    
     99480   198.96         303.18995      134290.06     -807630.47     -304.26394      0.36336648     0.057260237    30.372755      17.986276    
     99490   198.98         293.78055      132473.67     -807630.38     -303.03679      0.3633746      0.057028023    30.333401      17.640303    
     99500   199            305.05589      133532.09     -807631.58     -303.27963      0.36338256     0.057072471    30.340131      17.294333    
     99510   199.02         307.60138      130632.17     -807634.46     -9623.8254      0.36339039     0.056594189    30.29765       16.948368    
     99520   199.04         298.69572      133724.84     -807630.9      -9691.9248      0.36339807     0.056993452    30.26479       16.602409    
     99530   199.06         312.45051      131991.8      -807633.15     -9683.881       0.3634056      0.056944969    30.246269      16.256453    
     99540   199.08         289.1072       136281.19     -807626.17     -9798.2452      0.363413       0.057616302    30.234115      15.910501    
     99550   199.1          304.90341      133655.62     -807630.87     -9717.5429      0.36342025     0.057140611    30.221595      15.564553    
     99560   199.12         306.32529      136098.32     -807628.85     -9783.6008      0.36342736     0.057527917    30.265654      15.218606    
     99570   199.14         296.58878      133273.4      -807629.55     -9718.6209      0.36343432     0.057144738    30.272949      14.872661    
     99580   199.16         316.97911      134141.26     -807631.88     -9726.7314      0.36344114     0.057191354    30.283872      14.526719    
     99590   199.18         302.22647      131265.29     -807632.95     -9627.605       0.36344782     0.056607469    30.311093      14.180779    
     99600   199.2          302.13128      134284.53     -807631.35     -9672.373       0.36345435     0.056869669    30.292002      13.834843    
     99610   199.22         305.80533      132497.12     -807631.61     -9680.8068      0.36346074     0.056918255    30.276636      13.488911    
     99620   199.24         301.96324      135626.14     -807628.27     -9764.6057      0.36346699     0.057409964    30.294246      13.142981    
     99630   199.26         306.63104      133953.47     -807629.92     -9730.3674      0.3634731      0.057207703    30.298861      12.797055    
     99640   199.28         302.58455      135536.55     -807628.57     -9749.5594      0.36347906     0.057319598    30.353303      12.451129    
     99650   199.3          307.50313      133822.97     -807629.08     -9755.2797      0.36348487     0.057352311    30.371607      12.105206    
     99660   199.32         311.54472      134386.11     -807629.72     -9747.5282      0.36349055     0.057305845    30.358046      11.759287    
     99670   199.34         301.50004      133832.13     -807630.81     -9665.2897      0.36349608     0.056821499    30.337019      11.413372    
     99680   199.36         300.4622       133410.27     -807630.49     -9668.1217      0.36350147     0.056837305    30.316233      11.067461    
     99690   199.38         306.70058      133248.97     -807630.88     -9680.2152      0.36350671     0.05690758     30.297341      10.721553    
     99700   199.4          309.08657      133640.1      -807631.01     -9685.2637      0.36351181     0.05693646     30.334892      10.375648    
     99710   199.42         311.02242      134693.2      -807629.78     -9731.0373      0.36351677     0.057204768    30.323919      10.029746    
     99720   199.44         315.08003      133378.08     -807630.76     -9717.368       0.36352158     0.057123655    30.290791      9.6838488    
     99730   199.46         301.73088      136166.49     -807627.03     -9776.6339      0.36352625     0.057471312    30.297796      9.3379543    
     99740   199.48         316.93399      133982.53     -807630.36     -9741.863       0.36353078     0.0572662      30.289176      8.9920633    
     99750   199.5          299.32923      134459.23     -807628        -9740.4511      0.36353516     0.057257211    30.26834       8.6461759    
     99760   199.52         306.38568      132449.15     -807631.27     -9669.8202      0.3635394      0.056841358    30.197291      8.3002935    
     99770   199.54         312.80029      133826.37     -807631.76     -9686.0963      0.3635435      0.056936391    30.189116      7.9544143    
     99780   199.56         300.32154      132679.14     -807630.85     -9666.3598      0.36354745     0.056819759    30.227757      7.6085371    
     99790   199.58         312.52645      134172.55     -807630.72     -9728.4924      0.36355126     0.057184381    30.215446      7.2626632    
     99800   199.6          304.42945      132993.01     -807631.01     -9694.4128      0.36355493     0.056983485    30.218941      6.9167921    
     99810   199.62         300.09865      135696.73     -807627.96     -9776.9512      0.36355845     0.057468087    30.265276      6.5709232    
     99820   199.64         300.43629      133642.45     -807628.98     -9754.9381      0.36356183     0.057338162    30.233451      6.2250579    
     99830   199.66         294.9589       135401.64     -807628.16     -9764.8208      0.36356507     0.057395741    30.2483        5.8791954    
     99840   199.68         303.3121       132896.29     -807631.87     -9692.261       0.36356816     0.056968763    30.27163       5.5333356    
     99850   199.7          292.55093      134293.14     -807630.12     -9706.2932      0.36357111     0.057050779    30.291585      5.1874785    
     99860   199.72         302.24174      132313.49     -807632.17     -9694.5529      0.36357392     0.056981333    30.355375      4.8416236    
     99870   199.74         304.49968      133491.92     -807632.37     -9703.9573      0.36357658     0.057036191    30.383221      4.4957716    
     99880   199.76         291.37908      132876.18     -807630.9      -9700.6465      0.3635791      0.057016336    30.334737      4.1499236    
     99890   199.78         303.42504      134285.97     -807631.13     -9750.908       0.36358148     0.057311377    30.360428      3.8040785    
     99900   199.8          293.02357      133426.28     -807630.19     -9742.9562      0.36358371     0.057264288    30.385613      3.4582364    
     99910   199.82         293.39129      135448.81     -807629.22     -9778.4368      0.3635858      0.057472496    30.351192      3.1123981    
     99920   199.84         304.51169      132280.58     -807632.45     -9731.0794      0.36358775     0.057193848    30.300169      2.7665634    
     99930   199.86         304.86089      133515.71     -807632.86     -9720.6195      0.36358955     0.057132087    30.310752      2.4207319    
     99940   199.88         299.21346      132000.69     -807633.43     -9684.0466      0.36359121     0.056916873    30.31812       2.0749034    
     99950   199.9          291.0557       132641.76     -807631.71     -9703.4108      0.36359273     0.057030447    30.326083      1.7290781    
     99960   199.92         297.99039      132300.38     -807632.88     -9699.4401      0.3635941      0.057006894    30.308013      1.3832562    
     99970   199.94         292.63411      133425.33     -807631.11     -9732.9495      0.36359533     0.057203647    30.25101       1.0374376    
     99980   199.96         300.25156      133849.13     -807631.4      -9758.1028      0.36359641     0.057351309    30.321992      0.69162183   
     99990   199.98         292.97836      134872.05     -807629.55     -9785.4742      0.36359736     0.05751203     30.290182      0.34580935   
    100000   200            298.13433      134437.59     -807630.97     -9763.5405      0.36359816     0.057382994    30.29395       0            
Loop time of 3458.08 on 32 procs for 100000 steps with 1080 atoms

Performance: 4.997 ns/day, 4.803 hours/ns, 28.918 timesteps/s, 31.231 katom-step/s
62.0% CPU use with 32 MPI tasks x 1 OpenMP threads

MPI task timing breakdown:
Section |  min time  |  avg time  |  max time  |%varavg| %total
---------------------------------------------------------------
Pair    | 2590.9     | 2798       | 2994.6     | 212.7 | 80.91
Neigh   | 0.0012465  | 0.0078806  | 0.025546   |  10.9 |  0.00
Comm    | 389.6      | 586.22     | 793.36     | 464.6 | 16.95
Output  | 2.3412     | 2.3879     | 2.3962     |   0.6 |  0.07
Modify  | 65.006     | 65.304     | 65.66      |   2.1 |  1.89
Other   |            | 6.192      |            |       |  0.18

Nlocal:          33.75 ave          40 max          25 min
Histogram: 3 0 2 1 2 3 13 0 5 3
Nghost:        1032.88 ave        1046 max        1021 min
Histogram: 3 3 2 3 5 4 5 5 0 2
Neighs:              0 ave           0 max           0 min
Histogram: 32 0 0 0 0 0 0 0 0 0
FullNghs:      5353.12 ave        6433 max        3940 min
Histogram: 3 0 2 2 2 10 5 2 4 2

Total # of neighbors = 171300
Ave neighs/atom = 158.61111
Neighbor list builds = 3
Dangerous builds = 0

Total wall time: 1:01:08
