
units		metal
atom_style	atomic

read_data ${STRUCTURE}.data
read_data BaTiO3-sc333.data
Reading data file ...
  orthogonal box = (0 0 0) to (11.898253 11.898253 12.912076)
  2 by 4 by 4 MPI processor grid
  reading atoms ...
  135 atoms
  read_data CPU = 0.005 seconds
replicate $L $L $L
replicate 2 $L $L
replicate 2 2 $L
replicate 2 2 2
Replication is creating a 2x2x2 = 8 times larger system...
  orthogonal box = (0 0 0) to (23.796507 23.796507 25.824152)
  2 by 4 by 4 MPI processor grid
  1080 atoms
  replicate CPU = 0.003 seconds

pair_style allegro
pair_coeff	* * ${MODEL}.pth Ba Ti O
pair_coeff	* * BaTiO3-E0.pth Ba Ti O
mass 1 137.3
mass 2 47.9
mass 3 15.9994

timestep 0.002
compute polarization all allegro polarization 3
compute allegro will evaluate the quantity polarization of length 3 (src/compute_allegro.cpp:53)
compute polarizability all allegro polarizability 9
compute allegro will evaluate the quantity polarizability of length 9 (src/compute_allegro.cpp:53)

thermo_style custom pe fmax fnorm spcpu cpuremain

variable efield equal 1e-2*36.36
fix born all addbornforce 0.0 0.0 ${efield}
fix born all addbornforce 0.0 0.0 0.3636

thermo 10
min_style fire
#minimize 0.0 1e-6 100 100
velocity all create ${TEMP} ${SEED} dist gaussian rot yes mom yes
velocity all create 330 ${SEED} dist gaussian rot yes mom yes
velocity all create 330 27569 dist gaussian rot yes mom yes
fix nvt all nvt temp ${TEMP} ${TEMP} $(100*dt)
fix nvt all nvt temp 330 ${TEMP} $(100*dt)
fix nvt all nvt temp 330 330 $(100*dt)
fix nvt all nvt temp 330 330 0.2000000000000000111
run 5000
Neighbor list info ...
  update: every = 1 steps, delay = 0 steps, check = yes
  max neighbors/atom: 2000, page size: 100000
  master list distance cutoff = 8
  ghost atom cutoff = 8
  binsize = 8, bins = 3 3 4
  1 neighbor lists, perpetual/occasional/extra = 1 0 0
  (1) pair allegro/kk, perpetual
      attributes: full, newton on, kokkos_device
      pair build: full/bin/kk/device
      stencil: full/bin/3d
      bin: kk/device
Per MPI rank memory allocation (min/avg/max) = 3.516 | 3.516 | 3.516 Mbytes
    PotEng          Fmax          Fnorm          S/CPU         CPULeft    
-807708.29      1.5952943      37.041344      0              0            
-807644.4       3.4264409      45.206745      2.2772747      2191.2166    
-807632.69      2.4604182      35.834602      25.918615      1189.4826    
-807602.27      3.4474425      38.592617      25.931622      855.28204    
-807601.99      4.4197228      50.808902      25.841156      688.15633    
-807569.02      3.8976985      41.182039      25.777634      587.82052    
-807602.94      2.9183365      38.949471      25.864202      520.69377    
-807645.03      4.2112292      35.583216      25.879507      472.61952    
-807681.96      2.5755104      35.235391      25.843623      436.50022    
-807666.62      3.2003709      34.781884      25.809705      408.34919    
-807649.37      4.1059521      35.685639      25.921529      385.66898    
-807657.08      2.3975039      27.721488      25.92418       367.04054    
-807625.35      3.5210828      32.402557      25.925349      351.45185    
-807584.82      3.3530024      40.469661      25.88448       338.22491    
-807568.94      4.0505752      38.434025      25.909764      326.81922    
-807632.09      3.4801643      32.881551      25.913459      316.88106    
-807653.72      3.698818       30.958624      25.863267      308.15959    
-807664.41      2.7925384      34.377623      25.876972      300.41287    
-807645.13      4.3310346      44.075023      25.957563      293.45183    
-807677.24      2.5820484      35.895735      25.9495        287.18601    
-807640.16      3.9408083      38.673996      25.951809      281.50741    
-807616.05      3.0392914      38.833404      25.965782      276.32821    
-807559.34      3.7567126      45.544177      25.977263      271.58113    
-807603.7       4.1154147      48.679699      25.93205       267.22729    
-807614.6       4.7448869      38.754494      25.924025      263.20649    
-807641.83      3.0546495      36.09571       25.96243       259.46566    
-807641.51      5.1232241      45.747577      25.969357      255.98109    
-807679.86      2.8704409      37.761708      25.905902      252.74263    
-807660         3.1202534      36.082804      25.89958       249.70952    
-807637.74      3.5933952      33.103607      25.948192      246.84718    
-807600.79      3.7206624      35.990993      25.968782      244.14522    
-807601.14      3.6635567      43.14354       25.912897      241.60528    
-807595.55      3.0939662      37.391688      25.854305      239.21276    
-807610.06      3.9659345      33.990195      25.917784      236.92839    
-807639.18      3.47843        32.817366      25.971618      234.74475    
-807670.25      3.9388577      33.570241      25.922242      232.67362    
-807675.89      2.6053409      33.810014      25.862188      230.70767    
-807642.81      4.6462995      38.944581      25.930631      228.81432    
-807643.06      2.9020634      31.772947      25.931786      227.00011    
-807618.26      3.5325049      34.765873      25.981962      225.25035    
-807598.08      4.2826848      44.27079       25.928499      223.57797    
-807569.72      4.1120066      41.975159      26.001954      221.95616    
-807619.64      3.7765025      36.402736      25.968434      220.39867    
-807648.25      4.2101656      36.786692      25.92426       218.90269    
-807670.8       3.4048046      36.871879      25.878394      217.46427    
-807642.17      4.9488109      46.452735      25.937475      216.06369    
-807661.53      2.9558825      36.256645      25.959606      214.70401    
-807642.62      3.8588732      37.450353      25.905606      213.39353    
-807621.28      3.5286808      38.52557       25.934309      212.11754    
-807564.31      3.6310334      42.901612      25.964365      210.8738     
-807595.28      3.7044774      42.92305       25.983448      209.66185    
-807623.11      3.1559725      35.789337      25.893117      208.49415    
-807654.92      2.8838116      32.666443      25.93224       207.3515     
-807642.48      4.7371518      41.224383      25.952531      206.23486    
-807668.02      2.857689       35.051767      25.958153      205.14463    
-807663.87      3.3524979      34.718664      25.895708      204.08754    
-807641.49      3.0172156      32.320735      25.959377      203.04691    
-807596.31      4.0590378      37.597124      25.973349      202.02767    
-807591.52      4.3496682      40.044472      25.969896      201.03068    
-807603.42      4.1518233      40.562954      25.926182      200.05929    
-807620.09      4.7479195      34.462265      25.937111      199.10623    
-807635.18      3.2198989      34.440149      25.9762        198.1676     
-807660.17      4.2782795      35.642025      25.95581       197.24898    
-807672.18      3.2822002      36.763703      25.86049       196.35713    
-807646.69      4.1943422      38.316539      25.875613      195.47952    
-807628.8       3.0650471      35.407612      25.916135      194.61299    
-807609.84      3.6597577      37.180253      25.962978      193.75644    
-807600.68      3.8596899      45.680561      25.881563      192.9218     
-807582.47      3.8398945      40.735827      25.928337      192.09591    
-807614.11      3.1458074      37.133386      25.942426      191.28148    
-807642.62      3.9923979      37.416787      25.948561      190.47874    
-807669.78      3.129517       36.987522      25.881249      189.69381    
-807650.52      6.1387359      41.254111      25.890712      188.91912    
-807647.27      3.8468606      36.976296      25.954018      188.14955    
-807638.6       4.4680469      35.084068      25.961283      187.38975    
-807620.4       3.4284805      38.485788      25.971337      186.6391     
-807576.17      3.8128503      41.672086      25.953411      185.89955    
-807587.04      3.8495299      41.288152      25.972378      185.16765    
-807625.55      3.586534       34.600458      25.950099      184.44644    
-807654.91      3.1216154      34.474498      25.957984      183.73311    
-807649.62      3.6535822      37.32498       25.909945      183.03173    
-807654         4.234201       37.48755       25.850036      182.34277    
-807660.2       2.6318373      34.536346      25.860168      181.6604     
-807640.36      3.6851124      34.238452      25.904887      180.9818     
-807602.49      3.3346576      37.089207      25.937985      180.30773    
-807580.59      3.3334348      40.476362      25.915056      179.64211    
-807602.42      3.9781091      40.615687      25.893269      178.98456    
-807627.17      3.7240272      33.784811      25.91463       178.33174    
-807639.52      3.9703303      34.604345      25.93472       177.68358    
-807649.71      3.5448978      37.134723      25.908346      177.04314    
-807667.6       2.9641997      35.830292      25.836812      176.41322    
-807650.75      3.7195615      36.020866      25.79217       175.79166    
-807630.25      2.9246577      33.29773       25.849266      175.17137    
-807600.61      4.4441271      37.562842      25.948735      174.54962    
-807600.11      3.6297491      42.8206        25.909073      173.93544    
-807597.26      3.9533119      38.810654      25.89355       173.32706    
-807617.33      3.1968812      35.628551      25.950518      172.71973    
-807638.58      4.4362271      36.862381      25.940349      172.11762    
-807665.77      3.1198184      36.200379      25.904123      171.52213    
-807657.61      3.8487267      37.099291      25.901705      170.93102    
-807643.97      2.7622918      35.73901       25.960347      170.34052    
-807629.79      3.5856419      35.029753      25.960201      169.75409    
-807620.8       3.3143673      36.874907      25.969689      169.17107    
-807590.96      2.9060766      38.447121      25.927661      168.59429    
-807590.76      2.9318656      38.498101      25.918537      168.0217     
-807623.18      3.8339614      33.675997      25.928417      167.45212    
-807655.76      3.0802874      33.06078       25.972331      166.88358    
-807657.18      3.9987837      35.443856      25.927074      166.32095    
-807650.13      3.6448934      36.28043       25.923263      165.76179    
-807651.09      3.074643       34.025761      25.945594      165.20463    
-807641.05      3.0467206      32.390123      25.945392      164.6506     
-807608.58      3.124251       36.19759       25.900182      164.10196    
-807580.45      3.6495844      39.107928      25.954135      163.55345    
-807603.07      3.8714627      37.824045      25.915553      163.00979    
-807632.04      3.6435996      34.287274      25.920376      162.46865    
-807649.41      3.9251835      34.145114      25.931145      161.92968    
-807644.86      4.0083634      39.766566      25.932249      161.3933     
-807660.84      3.6576104      36.567855      25.911816      160.86049    
-807650.51      2.8399194      36.255749      25.904216      160.33054    
-807632.81      3.1247848      34.298081      25.922577      159.80213    
-807594.06      4.2055262      38.497108      25.971309      159.27381    
-807597.68      3.7039049      40.554013      25.953143      158.7487     
-807605.8       3.9226728      37.136316      25.859738      158.23019    
-807628.28      3.0914672      33.577834      25.93092       157.71058    
-807636.33      4.7852374      36.900163      25.917369      157.19373    
-807659.77      3.7473342      35.847885      25.883991      156.68048    
-807658.77      4.1759518      36.493519      25.832435      156.17152    
-807646.35      3.2860694      34.528799      25.926656      155.66036    
-807619.42      4.4480218      36.348051      25.897741      155.1524     
-807612.05      4.2136477      37.674248      25.908487      154.64588    
-807595.38      3.8149655      40.788334      25.906368      154.1413     
-807600.37      3.1992482      38.416227      25.86141       153.64042    
-807620.15      4.510882       35.464561      25.808627      153.14347    
-807650.92      3.1434891      33.757658      25.924558      152.64339    
-807659.69      3.3666425      35.527245      25.875833      152.147      
-807649.7       3.2240946      36.233787      25.894182      151.65149    
-807642.57      4.1599872      34.330162      25.940372      151.15576    
-807630.1       3.9729019      33.944805      25.96497       150.66067    
-807610.51      3.6552225      38.229879      25.923338      150.16879    
-807583.17      4.3473988      40.832478      25.955716      149.67719    
-807601.49      3.145429       38.70171       25.950245      149.18732    
-807631.17      4.1329369      36.452197      25.94033       148.6993     
-807652.66      3.119331       35.497644      25.896121      148.21439    
-807645.77      6.063364       39.255036      25.896069      147.73086    
-807651.53      3.8799316      37.003012      25.925149      147.24761    
-807647.06      5.0115144      35.974266      25.909912      146.76627    
-807628.98      2.9936056      35.503553      25.887197      146.28705    
-807593.08      4.1111894      38.321161      25.916501      145.80805    
-807590.24      3.6419416      40.345008      25.926788      145.32994    
-807609.44      4.9672121      37.975041      25.913396      144.85354    
-807634.82      3.1261645      34.709874      25.863143      144.3801     
-807638.46      4.8496253      37.542332      25.872163      143.90749    
-807652.52      2.9471606      36.19829       25.904385      143.43492    
-807653.43      3.3479633      37.127876      25.898514      142.96368    
-807644.97      3.4090637      35.511553      25.877091      142.49426    
-807616.3       2.9064188      36.041759      25.886457      142.0256     
-807601.38      3.309126       38.642752      25.945688      141.55605    
-807598.68      3.7812189      39.84386       25.925793      141.08822    
-807611.67      3.6521819      37.203264      25.904212      140.62212    
-807624.24      3.2918728      35.437528      25.955231      140.15541    
-807644.55      4.096601       35.33684       25.91576       139.69096    
-807656.57      3.1683153      36.074456      25.895741      139.22811    
-807652.21      5.4019599      35.559374      25.916295      138.76557    
-807636.57      4.2167093      34.635987      25.904085      138.30435    
-807620.34      4.3327254      35.830996      25.932596      137.84317    
-807609.97      4.5431153      38.707823      25.914315      137.38347    
-807597.19      3.8993104      38.53413       25.924624      136.92434    
-807606.01      3.2925972      36.592094      25.945105      136.46549    
-807629.96      3.7158462      34.368523      25.957532      136.00714    
-807653.31      3.339465       33.948551      25.916342      135.55086    
-807651.92      3.9461702      35.840866      25.886785      135.09627    
-807648.57      3.3092844      34.356228      25.887155      134.64246    
-807638.14      3.5274092      34.313415      25.905393      134.18892    
-807630.08      3.3196851      33.989285      25.91979       133.73575    
-807600.81      3.977557       36.159701      25.922357      133.28328    
-807595.46      3.6118445      38.396129      25.92884       132.8314     
-807611.66      4.4480333      36.766225      25.911862      132.38074    
-807640.07      3.8933027      34.501663      25.863419      131.93213    
-807645.99      4.6771537      36.288619      25.888123      131.48354    
-807648.66      3.1564721      36.33209       25.935669      131.03439    
-807650.87      4.0696892      35.427395      25.923751      130.58625    
-807644.62      3.5579041      33.851787      25.978127      130.13738    
-807616.61      2.9445456      35.157722      25.984695      129.68904    
-807598.36      3.2310343      36.771212      25.993356      129.24118    
-807601.75      3.2001527      37.450125      25.917983      128.79592    
-807620.34      3.8010222      35.385029      25.914808      128.35139    
-807633.83      3.5890094      34.182188      25.894116      127.908      
-807644.68      3.49445        35.127072      25.971464      127.46331    
-807655.56      2.6948191      35.33045       25.983082      127.01896    
-807651.22      3.2863535      34.692908      25.95645       126.57589    
-807636.52      2.4329009      33.771047      25.979607      126.13287    
-807613.27      3.5073866      35.633063      25.987435      125.69027    
-807606.15      3.5695492      37.586376      25.976021      125.24854    
-807604.47      2.8340293      38.354131      25.893053      124.80937    
-807616.35      2.9595814      36.033381      25.912153      124.37029    
-807630.2       3.4535445      35.696086      25.918448      123.93161    
-807650.34      3.3400518      35.706692      25.983587      123.49197    
-807652.5       4.6192324      36.90045       25.973278      123.05312    
-807643.78      3.3886         35.824881      26.016489      122.61384    
-807629.85      3.504315       35.009815      25.930027      122.17705    
-807620.43      3.240958       36.703782      25.913152      121.74114    
-807605.79      3.3803349      37.536198      25.928506      121.3054     
-807602.57      3.4326907      38.638724      25.930197      120.87011    
-807613.35      3.0517736      36.284281      25.930643      120.4353     
-807638.1       4.2848796      35.317374      25.91637       120.00129    
-807646.97      3.1420807      36.207475      25.880936      119.5685     
-807645.87      4.0856301      36.564791      25.922131      119.13529    
-807639.23      3.771242       37.006852      25.938737      118.70218    
-807637.63      3.7326055      35.160705      25.92799       118.26976    
-807617.02      3.8006189      36.47898       25.958954      117.83714    
-807599.74      3.3987468      38.617927      26.009263      117.40395    
-807599.96      3.752282       38.279808      25.994021      116.97153    
-807622.37      3.2858707      36.095716      25.977402      116.53989    
-807638.64      3.9999093      35.624814      25.942872      116.10938    
-807641.26      4.2304847      37.012479      25.930469      115.67954    
-807646.33      3.2782615      35.779732      25.927666      115.25016    
-807645.89      3.1541836      35.441709      25.924037      114.82126    
-807633         3.1011198      34.593016      25.924896      114.39274    
-807607.78      3.0794949      36.387397      25.928463      113.96455    
-807602.13      3.4033225      38.111331      25.945701      113.53641    
-807608.5       2.9753154      37.518796      25.935249      113.10886    
-807624.88      3.1306843      35.35988       25.927251      112.68184    
-807633.5       3.759246       35.09241       26.000094      112.25384    
-807646.5       3.82517        35.482535      25.949924      111.82716    
-807649.78      3.7993117      35.867515      25.936198      111.40109    
-807644         3.6399237      34.617457      25.954736      110.97504    
-807622.66      4.0895018      35.949362      25.922187      110.54995    
-807614.55      3.2567604      36.07541       25.970455      110.12434    
-807604.44      3.5768742      37.886351      25.977198      109.69896    
-807613.33      3.6273606      36.689923      25.892392      109.27543    
-807620.41      4.2648046      35.655696      25.877361      108.85249    
-807639.29      3.4544912      34.567386      25.862194      108.43012    
-807649.34      3.2800093      35.45388       25.87392       108.00787    
-807648.4       3.6129845      34.994564      25.906943      107.58535    
-807635.65      2.9423925      34.847924      25.912766      107.16305    
-807628.23      2.6728638      33.352299      25.931388      106.74074    
-807617.02      3.1422352      34.972106      25.947413      106.31848    
-807606.86      3.428237       36.708505      25.925341      105.8969     
-807608.89      3.2143154      36.111763      25.911088      105.47585    
-807626.51      2.8643919      34.492935      25.906249      105.05517    
-807644.24      4.1123355      34.061131      25.877651      104.63525    
-807646.83      3.2691861      35.356193      25.854806      104.21596    
-807642.6       3.3182586      36.288536      25.859069      103.79688    
-807639.06      3.024489       34.129974      25.911997      103.37723    
-807630.09      3.0384435      34.756218      25.967422      102.957      
-807610.65      3.5137648      36.170438      25.992052      102.53667    
-807602.61      3.9064836      37.326777      25.958646      102.11714    
-807611.94      3.9831642      35.480279      25.943463      101.69811    
-807633.09      3.7236029      33.513434      25.910628      101.27986    
-807637.33      4.2682053      35.094207      25.904628      100.86196    
-807645.98      3.0488351      34.814995      25.901094      100.44436    
-807645.85      3.3065262      34.594846      25.927923      100.02662    
-807642.06      2.4818587      33.324187      25.986684      99.608271    
-807620.81      4.029767       35.335797      26.006092      99.18991     
-807609.32      3.2528395      36.006185      26.027758      98.771505    
-807603.44      3.0462114      37.965983      25.943238      98.354571    
-807618.82      3.2920934      35.852179      25.910169      97.938352    
-807626.93      2.8958847      35.026679      25.905214      97.522438    
-807639.99      3.5991658      35.017702      25.882044      97.10708     
-807648.56      3.5150703      35.099608      25.857981      96.692281    
-807646.47      2.6924419      35.25551       25.914173      96.276923    
-807634.42      3.1355421      34.687022      26.001289      95.860607    
-807619.27      3.1957101      34.882128      25.983859      95.444768    
-807610.02      3.3664402      35.640388      25.92766       95.029917    
-807605.91      3.0753169      37.742363      25.920169      94.615385    
-807614.8       3.3965685      35.42429       25.940281      94.200805    
-807629.27      3.0844171      35.01895       25.908996      93.786854    
-807644.06      3.038891       35.350888      25.868403      93.37364     
-807646.42      2.9416434      35.950096      25.851464      92.960845    
-807641.14      3.5515888      35.943704      25.925021      92.5473      
-807631.3       3.8755546      35.564475      26.006153      92.132937    
-807622.21      2.8711887      36.127645      25.974643      91.719187    
-807606.97      3.0586802      37.64574       25.929256      91.306214    
-807604.85      2.9477968      37.97112       25.934436      90.893377    
-807615.25      3.0518237      36.799285      25.910037      90.481038    
-807634.72      2.720822       34.958271      25.820229      90.06999     
-807641.43      3.4369444      35.794438      25.928087      89.657806    
-807644.12      3.3170901      36.279818      25.977245      89.245226    
-807639.37      4.0738525      36.407552      26.009775      88.83246     
-807634.35      2.9915269      35.16364       26.050996      88.419415    
-807619.14      3.1876172      35.272917      26.055386      88.006528    
-807606.26      4.0913813      37.638863      25.991383      87.594585    
-807606.47      3.3489458      36.72124       25.985005      87.182907    
-807623.15      3.0364265      35.89514       25.913635      86.772232    
-807633.1       4.3350256      34.887088      25.925463      86.361597    
-807642.62      4.7181998      34.948842      25.92628       85.951128    
-807643.87      4.5882338      35.613645      25.96503       85.540402    
-807644.49      3.139631       34.40469       25.989293      85.129586    
-807630.05      2.7757303      34.72297       25.968157      84.719183    
-807614.57      2.9212113      36.099887      25.922366      84.309451    
-807607.37      2.9820476      36.862406      25.91894       83.899921    
-807614.04      3.196113       36.150893      25.848766      83.491306    
-807623.74      3.3069557      34.798101      25.934541      83.08193     
-807633.22      4.3785719      35.179968      25.925975      82.672805    
-807645.18      3.8905199      35.238179      25.921432      82.263888    
-807646.57      3.2141538      35.126253      25.886274      81.855491    
-807639.6       3.3917063      34.146913      25.939225      81.4467      
-807627.91      3.9491625      34.548756      25.911417      81.038348    
-807617.54      2.7643075      35.093838      25.911792      80.630143    
-807610.29      3.0804321      35.979409      25.862372      80.222583    
-807614.64      3.3579263      34.824873      25.864016      79.815146    
-807622.83      4.4435381      35.061753      25.901386      79.407478    
-807639.15      2.8197972      33.667388      25.930755      78.999667    
-807643.93      4.0713659      35.392157      25.924102      78.592066    
-807644.43      2.5944691      34.600989      25.93711       78.184484    
-807637.14      4.198123       34.453254      25.917791      77.777231    
-807630.67      2.8404632      34.207105      25.928905      77.370012    
-807614.82      3.0350734      35.653706      25.928247      76.96294     
-807608.41      2.7987188      36.909652      25.957725      76.555734    
-807612.73      3.1004768      35.285463      25.990166      76.148373    
-807628.64      3.0559569      34.263376      26.023033      75.74086     
-807636.42      3.7506747      35.296356      26.002631      75.33368     
-807643.65      3.3129386      34.797763      25.986463      74.926789    
-807641.77      3.4892385      35.468398      25.96174       74.520257    
-807639.87      2.8377075      34.157916      25.986788      74.113642    
-807626.73      4.0772451      34.706564      25.91871       73.707759    
-807612.47      3.333422       36.342961      25.934235      73.301868    
-807606.21      3.2695337      36.724164      25.94542       72.896009    
-807615.54      2.9558044      35.857047      25.963458      72.490126    
-807628.23      3.5570109      34.871439      25.928651      72.084666    
-807634.82      3.291679       34.890195      25.905978      71.67952     
-807643.87      2.8278969      34.655864      25.853798      71.274927    
-807640.84      4.8174546      36.605927      25.854241      70.870441    
-807638.07      2.9695214      35.20194       25.807427      70.466449    
-807621.41      3.9548913      36.517119      25.890744      70.061882    
-807612.83      2.9841676      36.782709      25.89693       69.657377    
-807608.09      4.4159669      37.916961      25.930013      69.252723    
-807617.5       2.9832082      36.754135      25.958967      68.847957    
-807623.38      3.9166008      35.725229      25.928675      68.443546    
-807638.01      2.9235876      34.975375      25.928862      68.039248    
-807642.65      3.2816148      36.115818      25.928679      67.635064    
-807642.53      2.8766092      35.28849       25.907131      67.231156    
-807630.78      3.0786466      35.441313      25.952563      66.827014    
-807625.05      3.0254707      35.279396      26.010959      66.42255     
-807610.93      3.3397471      37.461708      26.025606      66.0181      
-807610.76      3.6823168      37.957854      25.992572      65.61401     
-807614.74      3.567995       36.250379      25.941133      65.210408    
-807628.94      3.2185939      35.240268      25.979994      64.806635    
-807639.13      3.4699604      35.860807      25.922877      64.403379    
-807643.7       3.4177921      35.941725      25.912659      64.0003      
-807638.13      3.9413896      35.643297      25.898284      63.597421    
-807632.55      2.9756879      35.14831       25.972241      63.194129    
-807622.56      3.6377561      35.246588      25.998127      62.790766    
-807612.47      3.6339865      36.737676      26.013487      62.387409    
-807608.18      3.7150897      36.838317      25.923999      61.984763    
-807617.95      2.766923       35.170779      25.919451      61.582246    
-807633.1       2.600913       34.467777      25.890627      61.180016    
-807638.2       4.3492469      35.635012      25.920653      60.777681    
-807641.06      3.9195724      35.283394      25.88897       60.375648    
-807639.1       3.1123645      35.768726      25.996173      59.973016    
-807636.31      3.1777191      34.054388      26.002995      59.570443    
-807618.59      3.5526007      36.388679      25.986982      59.168073    
-807611.98      2.8905668      36.891291      25.994332      58.765758    
-807611.16      3.0915761      36.487688      25.98559       58.363596    
-807620.99      2.9511942      36.402792      25.987618      57.961519    
-807630.91      2.9008739      35.296349      25.994247      57.5595      
-807639.05      2.7913133      35.306262      25.931502      57.157955    
-807641.02      3.3198006      35.977644      25.922164      56.756555    
-807641.66      4.1743633      35.343786      25.933549      56.355174    
-807628.8       3.2157051      34.993388      25.974913      55.953641    
-807620.62      3.1597591      34.862032      25.977769      55.552183    
-807611.79      3.5090595      35.883734      25.955588      55.150942    
-807614.03      3.677684       36.451204      25.9233        54.749974    
-807621.73      3.8742409      35.298072      25.9344        54.349026    
-807633.09      3.2694422      34.544183      25.991817      53.947845    
-807641.2       3.2245154      34.718739      26.02888       53.546552    
-807642.25      3.5485844      34.94893       25.932746      53.145873    
-807637.39      3.3268051      33.915293      25.921277      52.745338    
-807629.13      2.9145371      34.403323      25.926027      52.344858    
-807619.03      2.9643013      34.70612       25.921563      51.944481    
-807615.1       3.2916662      35.470269      25.942284      51.544075    
-807614.61      3.1823031      35.16379       25.982619      51.143542    
-807623.47      3.6421168      35.101709      25.991888      50.743046    
-807636.51      4.0751691      34.288408      25.950767      50.342842    
-807640.15      3.2674956      35.446643      25.993039      49.942506    
-807642.05      3.1100866      34.479713      26.002319      49.542207    
-807635.59      3.7025326      35.568354      26.027342      49.14187     
-807629.82      3.5968476      35.655555      25.900172      48.742235    
-807619.11      3.8125565      35.033007      25.900519      48.342669    
-807610.97      2.9506886      36.376316      25.956355      47.942909    
-807614.28      2.7816957      35.357689      25.931891      47.54334     
-807626.77      3.136461       34.840198      25.919968      47.1439      
-807634.44      3.6886849      34.960556      25.888554      46.744676    
-807641.7       3.0616322      34.78935       25.917823      46.345386    
-807640.06      3.9123725      35.509826      25.919799      45.946158    
-807640.17      3.2422842      34.120751      25.905402      45.547063    
-807627.01      3.3847229      35.436148      25.88947       45.148106    
-807617.86      2.8682555      34.90129       25.922154      44.749073    
-807609.45      4.5605238      37.228359      25.878073      44.350297    
-807616         3.2025346      36.259687      25.914755      43.951429    
-807627.16      4.8283865      34.426939      26.007741      43.552239    
-807635.8       3.391238       34.322663      25.958449      43.153327    
-807638.2       4.661226       35.132333      25.950973      42.754515    
-807642.26      3.2122224      34.539801      25.968892      42.3557      
-807636.74      4.9271491      34.717957      25.984689      41.956891    
-807624.03      3.0821755      35.2266        26.009017      41.558058    
-807613.07      4.7579         37.476439      25.972411      41.159439    
-807613.26      3.0624653      36.555978      25.960087      40.760936    
-807615.99      3.2688384      37.24491       26.023813      40.362258    
-807624.86      3.5140768      36.404088      26.009962      39.963705    
-807635.08      3.2323028      35.655752      25.984703      39.565315    
-807637.61      3.123846       36.353309      25.928388      39.167199    
-807641.32      3.2340824      34.600932      25.928022      38.769146    
-807630.45      3.9128152      36.243209      25.909053      38.371223    
-807623.86      3.3153183      35.91554       25.871311      37.973493    
-807615.54      3.5003746      36.425652      26.055234      37.575177    
-807614.52      3.0927531      36.521676      26.26984       37.176208    
-807617.42      4.5385052      36.483022      26.266934      36.777338    
-807627.69      3.513455       35.977711      26.275746      36.378528    
-807633.63      4.3007996      36.116448      26.270313      35.979825    
-807639.03      3.1572457      35.609899      26.267113      35.581221    
-807635.98      4.7366991      36.20735       26.288052      35.182637    
-807631         3.1137146      35.385228      26.286653      34.784146    
-807622.04      4.5023426      35.535723      26.274126      34.385781    
-807616.67      3.0730814      36.068579      26.308218      33.9874      
-807613.88      3.1649229      35.885349      26.280709      33.589187    
-807620.35      4.5322012      35.431142      26.291692      33.191028    
-807629.99      3.1483288      34.622573      26.269416      32.793019    
-807637.17      3.14515        34.429348      26.285099      32.395048    
-807637.89      3.3362118      34.961431      26.273981      31.997191    
-807637.03      4.0261143      35.307853      26.28204       31.599395    
-807631.32      3.8035149      35.452702      26.287449      31.201666    
-807621.73      3.5493882      35.440634      26.320937      30.80393     
-807615.51      3.0110895      36.087421      26.331035      30.406251    
-807616.51      3.6018519      36.052551      26.322046      30.00868     
-807623.92      3.0450832      34.952085      26.306348      29.611233    
-807632.17      3.1205102      34.604257      26.328497      29.213811    
-807638.77      2.7349448      33.959026      26.326721      28.816475    
-807640.02      2.5869965      34.306953      26.307092      28.41927     
-807638.38      3.7743526      34.330913      26.293947      28.022175    
-807629.67      2.9825332      34.605732      26.292648      27.625161    
-807621.5       3.2947078      35.530879      26.278885      27.228257    
-807616.35      2.9939168      35.146553      26.278176      26.83143     
-807617.91      3.1776386      35.880417      26.327311      26.434569    
-807625.32      2.9785788      34.153389      26.327907      26.037784    
-807632         2.6431885      34.496174      26.280496      25.64118     
-807638.1       3.0604927      33.981726      26.28423       25.244642    
-807640.33      3.8022158      34.353308      26.280501      24.848185    
-807636.17      3.9487387      34.465855      26.280699      24.451801    
-807628.03      3.5295147      34.8328        26.296839      24.055456    
-807621.6       3.4693386      34.922082      26.290664      23.659197    
-807615.9       3.48435        36.073633      26.300607      23.26299     
-807619.69      4.1832133      35.735591      26.312202      22.866834    
-807626.22      3.8912804      35.45365       26.313188      22.470749    
-807632.25      4.1860806      34.307666      26.300747      22.074759    
-807637.26      2.8516114      34.635225      26.301211      21.678839    
-807638.48      4.2948362      34.840049      26.279638      21.283027    
-807634.2       2.8740346      35.056068      26.321387      20.887212    
-807627.74      3.0172161      34.067722      26.308136      20.49149     
-807621.52      3.1326805      35.262109      26.303535      20.095845    
-807617.05      3.1473168      35.565607      26.280762      19.700306    
-807618.94      3.1298164      36.380761      26.248545      19.304883    
-807625.3       3.6514293      35.189013      26.272019      18.909489    
-807632.2       3.1164417      35.802933      26.305164      18.51411     
-807634.8       4.2038657      36.542541      26.305294      18.118798    
-807637.54      3.5756827      35.29585       26.296226      17.723566    
-807631.08      3.5894009      36.238738      26.267031      17.32844     
-807627.46      3.5284208      34.73019       26.279787      16.93336     
-807618.97      3.4603956      34.75491       26.312231      16.5383      
-807618.41      3.6514047      34.562305      26.309262      16.143309    
-807618.66      4.7373913      34.871722      26.320149      15.74837     
-807627.41      4.0354138      34.519633      26.335476      15.353477    
-807632.43      4.2775965      34.518562      26.321731      14.958666    
-807638.45      3.598513       34.416812      26.301356      14.563943    
-807636.93      3.7637276      35.22464       26.284583      14.169301    
-807632.33      3.3384936      35.299312      26.283106      13.774722    
-807624.4       4.2908679      36.248899      26.282489      13.380204    
-807618.81      3.3678425      36.37082       26.284983      12.985743    
-807614.42      4.6922985      37.370438      26.29217       12.591336    
-807618.82      3.1922039      36.817203      26.272602      12.197007    
-807628.87      4.085085       35.732303      26.24599       11.802761    
-807632.89      3.0460075      35.814707      26.277472      11.408543    
-807636.36      3.5321823      34.480202      26.284105      11.014377    
-807633.89      2.9555708      35.911478      26.288067      10.620266    
-807633.63      3.4565621      34.482255      26.269353      10.226228    
-807624.5       2.8475435      34.700919      26.327321      9.8322019    
-807619.7       2.937992       34.944989      26.337026      9.4382284    
-807616.99      3.0434506      35.748401      26.344823      9.0443094    
-807624.53      2.7837573      35.109309      26.329054      8.6504608    
-807628.43      3.1870632      35.024642      26.321199      8.2566758    
-807633.18      3.253072       35.218039      26.290176      7.8629672    
-807634.23      3.7819793      36.097259      26.293271      7.4693123    
-807636.27      3.6871753      35.780004      26.307276      7.0757052    
-807631.37      2.9779481      35.265136      26.256771      6.6821796    
-807625.04      3.0104984      35.307351      26.100469      6.2887818    
-807619.54      3.294067       36.136089      26.291779      5.8953401    
-807621.51      2.8834866      35.686966      26.342161      5.5019313    
-807624.94      3.1373465      34.827404      26.307324      5.1085926    
-807630.24      3.7369493      35.212597      26.295009      4.7153124    
-807633.67      2.9553726      35.005897      26.276474      4.3220914    
-807636.91      3.8811646      34.720087      26.276922      3.9289218    
-807635.29      3.603358       34.59619       26.291967      3.5357996    
-807630.35      3.1639555      35.398275      26.300361      3.1427274    
-807625.28      3.3494673      34.132378      26.298279      2.7497078    
-807619.53      3.7051588      35.870669      26.305743      2.3567385    
-807622.38      3.1922857      35.014914      26.290968      1.9638232    
-807623.62      3.0143485      35.225686      26.235587      1.570965     
-807631.62      2.9162317      34.885453      26.251509      1.1781524    
-807634.85      2.9391731      35.101689      26.27888       0.78538602   
-807636.86      3.4171298      34.894527      26.297878      0.39266809   
-807634.04      3.5816196      35.431942      26.287729      0            
Loop time of 196.322 on 32 procs for 5000 steps with 1080 atoms

Performance: 4.401 ns/day, 5.453 hours/ns, 25.468 timesteps/s, 27.506 katom-step/s
68.9% CPU use with 32 MPI tasks x 1 OpenMP threads

MPI task timing breakdown:
Section |  min time  |  avg time  |  max time  |%varavg| %total
---------------------------------------------------------------
Pair    | 101.25     | 143.89     | 192.45     | 314.4 | 73.30
Neigh   | 0          | 0          | 0          |   0.0 |  0.00
Comm    | 1.6304     | 50.189     | 92.84      | 532.3 | 25.56
Output  | 0.026043   | 0.026882   | 0.028019   |   0.3 |  0.01
Modify  | 1.8893     | 1.8991     | 1.908      |   0.4 |  0.97
Other   |            | 0.3121     |            |       |  0.16

Nlocal:          33.75 ave          48 max          21 min
Histogram: 8 8 0 0 0 0 0 8 0 8
Nghost:        1106.25 ave        1119 max        1092 min
Histogram: 8 0 8 0 0 0 0 0 8 8
Neighs:              0 ave           0 max           0 min
Histogram: 32 0 0 0 0 0 0 0 0 0
FullNghs:       5494.5 ave        7896 max        3378 min
Histogram: 8 8 0 0 0 0 0 8 0 8

Total # of neighbors = 175824
Ave neighs/atom = 162.8
Neighbor list builds = 0
Dangerous builds = 0

reset_timestep 0


variable interval equal 1000
thermo 10

variable nintervals equal $(v_PERIOD/v_interval)
variable nintervals equal 100
variable efield equal 1e-2*36.36*cos((step/${PERIOD})*2*3.14)
variable efield equal 1e-2*36.36*cos((step/100000)*2*3.14)
fix born all addbornforce 0.0 0.0 v_efield

variable Px equal f_born[1]+c_polarization[1]
variable Py equal f_born[2]+c_polarization[2]
variable Pz equal (f_born[3]+c_polarization[3])/vol
variable pe equal pe

fix aveP all ave/time 1 $(v_interval/2) ${interval} v_efield v_Pz v_pe f_born file Pz.${MODEL}.${STRUCTURE}.${TEMP}.$L.${ITER}
fix aveP all ave/time 1 500 ${interval} v_efield v_Pz v_pe f_born file Pz.${MODEL}.${STRUCTURE}.${TEMP}.$L.${ITER}
fix aveP all ave/time 1 500 1000 v_efield v_Pz v_pe f_born file Pz.${MODEL}.${STRUCTURE}.${TEMP}.$L.${ITER}
fix aveP all ave/time 1 500 1000 v_efield v_Pz v_pe f_born file Pz.BaTiO3-E0.${STRUCTURE}.${TEMP}.$L.${ITER}
fix aveP all ave/time 1 500 1000 v_efield v_Pz v_pe f_born file Pz.BaTiO3-E0.BaTiO3-sc333.${TEMP}.$L.${ITER}
fix aveP all ave/time 1 500 1000 v_efield v_Pz v_pe f_born file Pz.BaTiO3-E0.BaTiO3-sc333.330.$L.${ITER}
fix aveP all ave/time 1 500 1000 v_efield v_Pz v_pe f_born file Pz.BaTiO3-E0.BaTiO3-sc333.330.2.${ITER}
fix aveP all ave/time 1 500 1000 v_efield v_Pz v_pe f_born file Pz.BaTiO3-E0.BaTiO3-sc333.330.2.4

thermo_style custom step time temp press pe f_born v_efield v_Pz spcpu cpuremain

# dump 4a all custom 1000 dump.hyst.${MODEL}.${STRUCTURE}.${TEMP}.$L.${ITER}.bin id type xu yu zu fx fy fz
# dump_modify 4a sort id

fix nvt all nvt temp ${TEMP} ${TEMP} $(100*dt)
fix nvt all nvt temp 330 ${TEMP} $(100*dt)
fix nvt all nvt temp 330 330 $(100*dt)
fix nvt all nvt temp 330 330 0.2000000000000000111

run $(v_PERIOD)
run 100000
WARNING: non-constant efield is experimental, strongly distrust scalar/vector output (src/fix_addbornforce.cpp:193)
Per MPI rank memory allocation (min/avg/max) = 3.516 | 3.516 | 3.516 Mbytes
   Step          Time           Temp          Press          PotEng         f_born        v_efield         v_Pz          S/CPU         CPULeft    
         0   0              325.71931      130536.67     -807634.04     -297.83566      0.3636         0.056014485    0              0            
        10   0.02           328.37712      133429.88     -807629.66     -302.73049      0.36359993     0.056935075    28.8675        3463.7757    
        20   0.04           330.4743       139414.73     -807623.21     -309.38794      0.36359971     0.058187188    28.839695      3465.0897    
        30   0.06           323.39968      139588.05     -807621.42     -310.28889      0.36359935     0.058356689    28.889523      3463.3032    
        40   0.08           318.61206      141959.4      -807618.91     -311.98653      0.36359885     0.058676047    28.890403      3462.2109    
        50   0.1            328.58765      135222.88     -807626.45     -305.91764      0.36359821     0.05753476     28.919421      3460.7235    
        60   0.12           328.14258      133855.49     -807631.04     -301.02395      0.36359742     0.056614514    28.955588      3458.8958    
        70   0.14           318.65152      128091.63     -807635.13     -295.56364      0.36359649     0.055587719    28.909098      3458.2856    
        80   0.16           326.4245       130094.44     -807635.58     -295.91829      0.36359541     0.055654583    28.931892      3457.4001    
        90   0.18           339.21797      129142.15     -807636.16     -297.08561      0.36359419     0.055874313    28.934815      3456.5962    
       100   0.2            328.70455      135971.45     -807626.89     -304.65517      0.36359283     0.057298172    28.925959      3455.9898    
       110   0.22           326.36705      138075.04     -807623.04     -308.10105      0.36359132     0.057946497    28.897773      3455.7369    
       120   0.24           331.88558      142167.24     -807619.46     -312.12322      0.36358968     0.058703238    28.916834      3455.2787    
       130   0.26           327.52099      138818.06     -807621.16     -309.68014      0.36358788     0.058244036    28.933049      3454.6888    
       140   0.28           333.19318      137932.64     -807624.91     -306.31354      0.36358595     0.057611161    28.867698      3454.6919    
       150   0.3            330.76154      131459.7      -807631.25     -299.36158      0.36358387     0.056303965    28.9015        3454.3791    
       160   0.32           329.93885      130225.97     -807633.74     -296.41599      0.36358165     0.055750299    28.907884      3454.0138    
       170   0.34           326.17843      128179.56     -807634.5      -294.9027       0.36357928     0.055466038    28.943284      3453.4027    
       180   0.36           330.7301       131697.24     -807631.01     -298.7386       0.36357677     0.056187891    28.880619      3453.2368    
       190   0.38           333.19388      135033.49     -807626.29     -303.58458      0.36357412     0.057099759    28.887896      3453.0061    
       200   0.4            334.78339      140614.39     -807620.83     -308.99901      0.36357132     0.05811858     28.877229      3452.8277    
       210   0.42           340.90612      141390.8      -807619.93     -310.47039      0.36356838     0.058395797    28.904237      3452.4794    
       220   0.44           349.66219      140181.71     -807622.3      -309.07325      0.3635653      0.058133505    28.934207      3451.9689    
       230   0.46           343.97274      136808.81     -807625.31     -305.09858      0.36356207     0.057386419    28.917453      3451.5596    
       240   0.48           341.00776      131572.05     -807630.04     -299.8227       0.3635587      0.056394595    28.892321      3451.2808    
       250   0.5            328.15246      130927.36     -807631.83     -296.14294      0.36355519     0.055702995    28.871976      3451.0935    
       260   0.52           340.44096      128984.85     -807634.73     -294.95192      0.36355153     0.055479529    28.878976      3450.862     
       270   0.54           334.46837      133061.05     -807628.35     -300.50033      0.36354773     0.056523758    28.909664      3450.4862    
       280   0.56           340.791        135875.08     -807624.61     -305.16481      0.36354379     0.057401764    28.879064      3450.2431    
       290   0.58           344.48084      140397.75     -807621.08     -309.17331      0.3635397      0.05815642     28.872122      3450.0215    
       300   0.6            342.83603      140291.24     -807620.99     -309.18511      0.36353547     0.058159316    28.915111      3449.6205    
       310   0.62           345.93382      140831.67     -807620.76     -309.83106      0.3635311      0.058281525    28.958024      3449.0582    
       320   0.64           335.11746      133595.78     -807625.62     -303.61944      0.36352658     0.057113781    28.906833      3448.7001    
       330   0.66           340.73287      133214.71     -807631.45     -298.53717      0.36352192     0.056158477    28.883619      3448.4264    
       340   0.68           327.33499      128003.5      -807634.06     -294.25903      0.36351712     0.055354439    28.845662      3448.2821    
       350   0.7            342.44615      131526.97     -807632.09     -298.36084      0.36351217     0.056126812    28.885548      3447.99      
       360   0.72           336.14459      132543.29     -807629.9      -299.88234      0.36350708     0.056413823    28.881207      3447.7094    
       370   0.74           344.65174      138640.57     -807624.63     -306.3624       0.36350185     0.057633681    28.820771      3447.6205    
       380   0.76           337.80796      138573.81     -807621.93     -308.34874      0.36349647     0.058008214    28.86984       3447.3636    
       390   0.78           333.67751      142329.68     -807618        -311.69159      0.36349095     0.05863798     28.948884      3446.8605    
       400   0.8            333.87683      137415.82     -807623.08     -306.85675      0.36348529     0.05772931     28.963231      3446.3226    
       410   0.82           343.75945      135710.12     -807629.35     -301.99528      0.36347948     0.056815623    28.948434      3445.8371    
       420   0.84           340.22613      128962.73     -807635.64     -295.39511      0.36347353     0.055574816    28.935996      3445.3934    
       430   0.86           331.60361      130139        -807633.04     -296.80196      0.36346744     0.055840432    28.952361      3444.909     
       440   0.88           334.39909      128582.87     -807633.74     -296.73111      0.3634612      0.05582806     28.981722      3444.3518    
       450   0.9            340.26809      134087.33     -807629.5      -301.81842      0.36345482     0.056786203    28.957192      3443.8687    
       460   0.92           329.29579      138048.67     -807623.44     -306.54059      0.3634483      0.0576757      28.948662      3443.4136    
       470   0.94           327.49792      142394.42     -807619.24     -310.58283      0.36344163     0.058437319    28.962751      3442.9276    
       480   0.96           336.82946      139998.71     -807620.82     -310.41441      0.36343482     0.058406726    28.94205       3442.4986    
       490   0.98           328.18824      137981.23     -807624.38     -305.77572      0.36342786     0.057535024    28.89031       3442.1987    
       500   1              335.84325      131898.71     -807631.31     -299.98084      0.36342077     0.056445756    28.866674      3441.9533    
       510   1.02           334.33818      129341.74     -807633.98     -9510.5817      0.36341353     0.055924683    28.788957      3441.8865    
       520   1.04           325.30773      129416.47     -807634.31     -9463.09        0.36340614     0.05564655     28.778993      3441.8318    
       530   1.06           328.1969       130422.7      -807633.35     -9511.5298      0.36339862     0.055932553    28.772469      3441.7809    
       540   1.08           331.20537      135756.31     -807628.04     -9697.379       0.36339095     0.057026643    28.763805      3441.7383    
       550   1.1            319.48348      138692.46     -807621.38     -9864.3682      0.36338313     0.058009891    28.771423      3441.6679    
       560   1.12           339.21823      140843.26     -807621.7      -9943.6543      0.36337518     0.058477434    28.798928      3441.5287    
       570   1.14           334.06963      138230.02     -807623.84     -9855.7078      0.36336707     0.057961523    28.791944      3441.3969    
       580   1.16           328.67386      137625.85     -807625.63     -9773.2201      0.36335883     0.057477716    28.816438      3441.207     
       590   1.18           326.28942      130255.98     -807631.36     -9584.8805      0.36335044     0.056371364    28.816246      3441.0123    
       600   1.2            328.08028      130786        -807633.87     -9509.6913      0.36334191     0.055930469    28.84572       3440.7537    
       610   1.22           327.2885       128719.06     -807636.37     -9429.7702      0.36333324     0.055461743    28.800231      3440.5814    
       620   1.24           322.06232      132921.56     -807630.68     -9588.4074      0.36332442     0.056396146    28.818771      3440.3677    
       630   1.26           327.80731      135310.88     -807627.63     -9714.3872      0.36331546     0.05713853     28.900265      3439.9954    
       640   1.28           321.64321      139701.64     -807621.02     -9899.5944      0.36330636     0.05822935     28.919971      3439.5873    
       650   1.3            337.14046      139587.87     -807624        -9875.4708      0.36329711     0.058088933    28.884646      3439.2458    
       660   1.32           324.71659      139536.27     -807622.33     -9872.5972      0.36328772     0.058073532    28.876042      3438.9197    
       670   1.34           320.43863      135101.6      -807626.68     -9716.9959      0.36327819     0.057159738    28.878739      3438.5881    
       680   1.36           322.35632      131687.43     -807631.06     -9583.0777      0.36326851     0.056373473    28.83296       3438.3365    
       690   1.38           311.90281      129610.41     -807632.9      -9477.9623      0.36325869     0.055756628    28.824857      3438.0961    
       700   1.4            331.43579      129144.18     -807636.29     -9456.6285      0.36324873     0.055632652    28.797968      3437.8986    
       710   1.42           323.12071      133687.28     -807629.67     -9629.6178      0.36323863     0.056651911    28.770303      3437.7436    
       720   1.44           330.95698      135804.85     -807627.08     -9748.4574      0.36322838     0.057352674    28.782199      3437.5634    
       730   1.46           337.59496      140282.52     -807623.35     -9892.1982      0.36321798     0.058200003    28.840115      3437.2838    
       740   1.48           330.40585      138617.24     -807623.36     -9861.3183      0.36320745     0.058020006    28.827451      3437.0228    
       750   1.5            330.05022      139917.83     -807622.96     -9863.7569      0.36319677     0.058036061    28.799787      3436.8036    
       760   1.52           326.72656      132540.88     -807628.63     -9666.1476      0.36318595     0.056875068    28.853703      3436.4963    
       770   1.54           334.67906      132409.72     -807631.81     -9587.4568      0.36317498     0.056413759    28.852005      3436.1906    
       780   1.56           325.2933       127740.63     -807635.66     -9418.7505      0.36316387     0.055422766    28.786562      3435.9841    
       790   1.58           324.19454      132739.31     -807631.05     -9551.1296      0.36315262     0.056203466    28.717049      3435.8796    
       800   1.6            331.84665      131834.6      -807629.95     -9616.4778      0.36314122     0.056589782    28.703158      3435.79      
       810   1.62           329.69634      138568.68     -807623.15     -9812.4271      0.36312968     0.057744713    28.759184      3435.6108    
       820   1.64           330.42121      138233.97     -807622.23     -9839.1024      0.363118       0.057903557    28.709915      3435.4997    
       830   1.66           335.95629      141351.66     -807620.01     -9922.8533      0.36310618     0.058398336    28.779694      3435.2819    
       840   1.68           332.41245      137242.57     -807623.61     -9785.6855      0.36309421     0.05759297     28.817785      3435.007     
       850   1.7            334.62917      134363.65     -807627.13     -9671.8668      0.3630821      0.056924996    28.883084      3434.6387    
       860   1.72           342.65751      130551.1      -807632.79     -9520.7708      0.36306984     0.056037593    28.877405      3434.2788    
       870   1.74           340.0033       130450.78     -807633.28     -9486.8477      0.36305745     0.055839834    28.850633      3433.9558    
       880   1.76           338.71017      131024.96     -807631.52     -9533.3959      0.3630449      0.056115757    28.90921       3433.5533    
       890   1.78           324.97648      134689.63     -807626.33     -9636.1403      0.36303222     0.056722516    28.860513      3433.2169    
       900   1.8            347.15718      137709.48     -807624.78     -9780.3037      0.36301939     0.057573158    28.861101      3432.8796    
       910   1.82           333.0152       139465.16     -807620.16     -9862.7125      0.36300642     0.058060344    28.88598       3432.5096    
       920   1.84           342.80869      140458.34     -807621.08     -9874.9042      0.36299331     0.058134215    28.876339      3432.1525    
       930   1.86           330.20173      137581.34     -807623.13     -9750.744       0.36298005     0.057405372    28.884599      3431.7851    
       940   1.88           341.31766      134115.84     -807628.06     -9639.6964      0.36296665     0.056753698    28.937184      3431.3519    
       950   1.9            339.95145      130400.69     -807632.23     -9501.3863      0.36295311     0.055941485    28.901764      3430.9647    
       960   1.92           324.86999      131191.35     -807629.73     -9513.9103      0.36293942     0.056017335    28.880917      3430.6041    
       970   1.94           343.52553      131238.2      -807631.54     -9542.5755      0.36292559     0.056188256    28.864842      3430.2635    
       980   1.96           331.30604      135237.91     -807625.98     -9667.4152      0.36291162     0.056925524    28.821457      3429.9754    
       990   1.98           345.45266      137964.31     -807624.56     -9780.1799      0.3628975      0.057591767    28.828049      3429.6783    
      1000   2              342.22482      139805.33     -807620.92     -9886.5653      0.36288325     0.058220518    28.755211      3429.4671    
      1010   2.02           347.99983      138876.48     -807623.57     -307.26831      0.36286884     0.057904939    28.925831      3429.0522    
      1020   2.04           341.17472      136357.9      -807626.18     -303.89253      0.3628543      0.057271066    28.900166      3428.6684    
      1030   2.06           328.63815      133224.68     -807627.94     -300.63573      0.36283961     0.056659589    28.898427      3428.2873    
      1040   2.08           342.54419      131052.15     -807633.62     -297.17601      0.36282478     0.056009839    28.897803      3427.9077    
      1050   2.1            324.57556      130628.17     -807631.79     -296.74517      0.3628098      0.055930946    28.904856      3427.5207    
      1060   2.12           325.99035      132502.85     -807630.14     -298.89124      0.36279469     0.056337788    28.888352      3427.153     
      1070   2.14           318.40805      135840.62     -807625.5      -302.77467      0.36277943     0.057072173    28.79487       3426.8895    
      1080   2.16           341.89518      137749.41     -807624.65     -307.09059      0.36276402     0.05788817     28.858948      3426.5539    
      1090   2.18           339.40787      138749.85     -807623.68     -308.00116      0.36274848     0.058062306    28.880131      3426.195     
      1100   2.2            321.74182      139041.73     -807622.38     -307.00857      0.36273279     0.057877691    28.886551      3425.8294    
      1110   2.22           325.76585      135566.22     -807627.09     -303.04969      0.36271695     0.057133852    28.901647      3425.4481    
      1120   2.24           328.97093      132126.75     -807631.09     -299.66349      0.36270098     0.056497941    28.935377      3425.0318    
      1130   2.26           325.84534      130570.27     -807633.39     -297.02589      0.36268486     0.056003142    28.879117      3424.6756    
      1140   2.28           311.97773      131172.2      -807631.26     -297.37074      0.3626686      0.056070677    28.884506      3424.314     
      1150   2.3            326.77531      132523.36     -807631.16     -299.527        0.36265219     0.056479805    28.870709      3423.9669    
      1160   2.32           322.1827       135475.37     -807626.96     -303.1809       0.36263564     0.057171406    28.915334      3423.5743    
      1170   2.34           330.96737      138205.19     -807624.5      -306.90112      0.36261895     0.057875598    28.945105      3423.1524    
      1180   2.36           329.62496      139013.6      -807623.86     -307.34931      0.36260212     0.057962809    28.937769      3422.7392    
      1190   2.38           336.59624      137945.76     -807625.4      -306.76723      0.36258514     0.057855743    28.960426      3422.3046    
      1200   2.4            314.38737      135309.64     -807626.89     -302.19347      0.36256802     0.056995832    28.933651      3421.8979    
      1210   2.42           329.5151       132660.26     -807632.05     -299.05066      0.36255076     0.056405761    28.88353       3421.5411    
      1220   2.44           326.68246      129592.85     -807634.89     -295.85015      0.36253335     0.055804773    28.922562      3421.1466    
      1230   2.46           335.5808       130984.76     -807634.63     -297.22483      0.3625158      0.056066786    28.958566      3420.7185    
      1240   2.48           321.00841      132386.37     -807630.73     -299.1277       0.36249811     0.056428486    28.972659      3420.2783    
      1250   2.5            330.52038      136614.42     -807627.46     -303.60444      0.36248028     0.057275812    28.922264      3419.8871    
      1260   2.52           329.66271      136497.45     -807625.16     -305.82084      0.3624623      0.057696804    28.919781      3419.4989    
      1270   2.54           331.86133      140305.14     -807622.62     -308.51441      0.36244418     0.058207888    28.919939      3419.1113    
      1280   2.56           319.82045      136214.26     -807624.09     -305.35586      0.36242592     0.057614863    28.942264      3418.7038    
      1290   2.58           320.70027      136639.31     -807626.97     -302.35314      0.36240751     0.057051203    28.945441      3418.2943    
      1300   2.6            314.42957      131058.42     -807630.97     -297.47775      0.36238896     0.056134137    28.928809      3417.9009    
      1310   2.62           336.11294      131909.93     -807632.9      -298.28234      0.36237027     0.056288867    28.935971      3417.5018    
      1320   2.64           320.76091      129910.46     -807632.69     -296.36305      0.36235143     0.055929584    28.920523      3417.1173    
      1330   2.66           321.85792      134964.19     -807628.1      -300.8731       0.36233245     0.056783695    28.877384      3416.7717    
      1340   2.68           332.44609      135048.49     -807627.73     -302.7258       0.36231333     0.057136369    28.851531      3416.4489    
      1350   2.7            333.44343      140662.66     -807622.46     -307.93867      0.36229407     0.058123335    28.827941      3416.1465    
      1360   2.72           327.6218       137310.39     -807623.15     -306.34667      0.36227466     0.057825943    28.855223      3415.8197    
      1370   2.74           322.00753      138921.12     -807623.66     -304.80998      0.36225511     0.057538982    28.905536      3415.4491    
      1380   2.76           341.62915      132379.74     -807630.43     -300.68819      0.36223542     0.056763997    28.874874      3415.1052    
      1390   2.78           328.88455      133317.83     -807629.07     -300.04372      0.36221558     0.056645437    28.862662      3414.7716    
      1400   2.8            328.91516      129914.64     -807633.87     -295.23251      0.3621956      0.0557402      28.867585      3414.4336    
      1410   2.82           321.8315       132715.37     -807630.61     -297.27828      0.36217548     0.056129562    28.929504      3414.0438    
      1420   2.84           332.1015       133107.08     -807629.17     -300.08018      0.36215522     0.056661763    28.910293      3413.6705    
      1430   2.86           330.74779      136222.28     -807625.13     -303.82602      0.36213481     0.057372292    28.938         3413.2747    
      1440   2.88           331.88989      137883.38     -807622.68     -306.21545      0.36211426     0.057826777    28.888961      3412.9197    
      1450   2.9            338.7224       138757.83     -807623.63     -306.09452      0.36209357     0.057807243    28.921592      3412.5384    
      1460   2.92           325.20082      138384.76     -807622.46     -305.28781      0.36207273     0.05765821     28.952166      3412.1329    
      1470   2.94           339.09671      134429.37     -807628.03     -301.4541       0.36205176     0.056937455    28.95514       3411.7259    
      1480   2.96           339.80663      132224.33     -807631.42     -297.98566      0.36203064     0.056285633    28.939129      3411.3324    
      1490   2.98           334.06842      130315.66     -807632.77     -295.70144      0.36200937     0.055857454    28.924841      3410.9507    
      1500   3              335.77197      132828.61     -807630.35     -298.13097      0.36198796     0.056319718    28.891491      3410.5958    
      1510   3.02           332.72852      132670.28     -807628.22     -9591.0038      0.36196642     0.056623059    28.798196      3410.3142    
      1520   3.04           346.73229      137109.99     -807624.9      -9745.1692      0.36194472     0.057536663    28.797009      3410.0327    
      1530   3.06           339.23226      136292.52     -807623.24     -9757.2027      0.36192289     0.057611186    28.771455      3409.77      
      1540   3.08           334.71152      141482.76     -807618.76     -9863.3599      0.36190091     0.058241526    28.853833      3409.4429    
      1550   3.1            345.44828      135295.25     -807625.24     -9692.0632      0.36187879     0.057233545    28.864472      3409.1074    
      1560   3.12           342.8717       137016.74     -807626.36     -9625.8855      0.36185653     0.05684625     28.842145      3408.7887    
      1570   3.14           347.30841      129869.15     -807631.91     -9460.09        0.36183412     0.055870594    28.841941      3408.4698    
      1580   3.16           341.45058      132602.77     -807628.86     -9517.1612      0.36181157     0.056211155    28.813925      3408.1715    
      1590   3.18           349.02526      130181.61     -807630.72     -9486.1543      0.36178888     0.056031533    28.807003      3407.8778    
      1600   3.2            344.27527      136071.27     -807625.31     -9627.5362      0.36176605     0.056870218    28.836057      3407.5619    
      1610   3.22           347.05924      136429.9      -807623.47     -9697.11        0.36174307     0.057284831    28.840094      3407.2426    
      1620   3.24           347.54735      140477.45     -807619.1      -9832.6788      0.36171995     0.058089404    28.860481      3406.9082    
      1630   3.26           349.08507      138214.81     -807621.81     -9752.1206      0.36169669     0.057617189    28.839984      3406.5884    
      1640   3.28           353.01769      137182.67     -807624.23     -9689.3656      0.36167329     0.057250126    28.862965      3406.2518    
      1650   3.3            349.17452      133787.67     -807626.98     -9588.5264      0.36164974     0.056658001    28.885907      3405.8986    
      1660   3.32           337.51699      132135.87     -807628.34     -9494.9361      0.36162605     0.056108657    28.825022      3405.5889    
      1670   3.34           344.28298      131673.66     -807630.91     -9448.1618      0.36160222     0.055835933    28.812771      3405.2873    
      1680   3.36           346.81113      131857.21     -807630.2      -9488.4154      0.36157824     0.056077538    28.834292      3404.9701    
      1690   3.38           343.59772      135725.13     -807624.52     -9662.142       0.36155413     0.05710809     28.806864      3404.6718    
      1700   3.4            351.33852      137110.66     -807623.81     -9729.5095      0.36152987     0.057510124    28.809269      3404.3712    
      1710   3.42           349.12813      140039.27     -807621.8      -9791.5592      0.36150546     0.0578808      28.836615      3404.0511    
      1720   3.44           350.39003      137359.75     -807624.21     -9730.3697      0.36148092     0.057522997    28.807953      3403.7504    
      1730   3.46           346.88834      137171.37     -807624.14     -9727.1979      0.36145623     0.057508174    28.820014      3403.441     
      1740   3.48           330.03683      132004.7      -807627.69     -9551.5253      0.3614314      0.056473459    28.82248       3403.1294    
      1750   3.5            340.35745      132551        -807631.15     -9491.4213      0.36140643     0.056121972    28.81389       3402.8232    
      1760   3.52           325.84056      129065.79     -807631.17     -9437.6861      0.36138131     0.055808118    28.814539      3402.5162    
      1770   3.54           334.14699      134002.61     -807628.13     -9575.6912      0.36135605     0.056628145    28.857782      3402.1798    
      1780   3.56           332.23149      133778.8      -807627.65     -9590.8419      0.36133065     0.056721729    28.845695      3401.8513    
      1790   3.58           348.12042      138098.6      -807625.07     -9746.2088      0.36130511     0.057644669    28.830268      3401.5328    
      1800   3.6            328.83169      136683.06     -807623.37     -9724.5699      0.36127942     0.057520773    28.848089      3401.2023    
      1810   3.62           331.81903      138780.14     -807622.06     -9781.6628      0.3612536      0.057862614    28.863605      3400.8615    
      1820   3.64           327.99102      134386.13     -807625.85     -9649.3474      0.36122763     0.057084016    28.839594      3400.5362    
      1830   3.66           339.05488      134328.75     -807629.83     -9571.6921      0.36120151     0.056628714    28.80993       3400.2298    
      1840   3.68           321.05959      132346.68     -807630.18     -9483.8343      0.36117526     0.056113002    28.792226      3399.9344    
      1850   3.7            338.44877      131731.38     -807631.67     -9515.9077      0.36114886     0.056306886    28.8132        3399.625     
      1860   3.72           340.89795      132341.77     -807631.1      -9549.9077      0.36112232     0.056512222    28.892604      3399.2649    
      1870   3.74           335.08835      135604.62     -807627.55     -9640.7942      0.36109564     0.057054264    28.857241      3398.9271    
      1880   3.76           326.88443      136529.98     -807624.73     -9700.2681      0.36106881     0.057410496    28.848944      3398.5945    
      1890   3.78           332.1708       136811.16     -807624.34     -9739.1475      0.36104184     0.057644907    28.869762      3398.2487    
      1900   3.8            332.75801      137281.67     -807625.16     -9719.3156      0.36101474     0.057531844    28.855531      3397.9118    
      1910   3.82           320.26967      135139.81     -807626.45     -9626.0089      0.36098748     0.056983832    28.760405      3397.6336    
      1920   3.84           326.13812      133134.58     -807629.72     -9548.0232      0.36096009     0.056526464    28.752095      3397.3599    
      1930   3.86           332.15707      130801.33     -807633.52     -9456.2864      0.36093255     0.055987633    28.813739      3397.0475    
      1940   3.88           332.29948      131614.9      -807631.62     -9520.0416      0.36090487     0.05636943     28.834797      3396.722     
      1950   3.9            324.43353      132537.25     -807630.08     -9538.706       0.36087705     0.056484298    28.825817      3396.4017    
      1960   3.92           319.23242      135998.32     -807626.45     -9631.9893      0.36084909     0.057041104    28.81603       3396.087     
      1970   3.94           328.00139      135951.26     -807625.87     -9695.9127      0.36082098     0.057424134    28.840535      3395.7573    
      1980   3.96           320.39632      138901.03     -807622.85     -9758.6113      0.36079273     0.057799992    28.862825      3395.4143    
      1990   3.98           324.72817      135299.17     -807625.89     -9682.8846      0.36076434     0.057355978    28.804662      3395.1056    
      2000   4              331.34592      135768.81     -807628.17     -9638.1776      0.36073581     0.057095675    28.814852      3394.7905    
      2010   4.02           335.31014      131643.49     -807633.01     -297.05411      0.36070713     0.056315553    28.920377      3394.4134    
      2020   4.04           324.15587      132410.95     -807630.81     -297.60203      0.36067831     0.056423935    28.968444      3394.0087    
      2030   4.06           329.53466      129573.19     -807633.53     -295.72984      0.36064935     0.056073479    28.937959      3393.6222    
      2040   4.08           322.83745      133862.64     -807629.54     -298.78832      0.36062025     0.056657972    28.97396       3393.2155    
      2050   4.1            318.88187      134408.77     -807627.5      -300.33134      0.36059101     0.056955186    28.899702      3392.8517    
      2060   4.12           323.2341       138056.82     -807623.83     -304.53152      0.36056162     0.057756421    28.911221      3392.4816    
      2070   4.14           324.8376       136732.46     -807625.75     -302.80978      0.36053209     0.057434585    28.944879      3392.0926    
      2080   4.16           338.06241      136872.15     -807627.01     -303.32386      0.36050242     0.057536826    28.961794      3391.6946    
      2090   4.18           319.6597       133932.72     -807626.84     -300.85847      0.36047261     0.057073892    28.915693      3391.3229    
      2100   4.2            324.75928      133097.24     -807630.71     -297.61126      0.36044265     0.056462576    28.937216      3390.9394    
      2110   4.22           324.07679      130806.84     -807633.03     -295.14646      0.36041256     0.055999633    28.980763      3390.5322    
      2120   4.24           324.03102      131747.99     -807631.7      -296.39567      0.36038232     0.056241371    28.97552       3390.1285    
      2130   4.26           310.47004      133477.99     -807627.12     -298.98281      0.36035193     0.056737066    28.957846      3389.735     
      2140   4.28           333.49443      134299.31     -807629.09     -300.09138      0.36032141     0.056952262    28.904445      3389.3712    
      2150   4.3            332.06259      136742.72     -807626.08     -302.66189      0.36029075     0.057444988    28.898798      3389.0105    
      2160   4.32           331.32436      135490.52     -807625.38     -303.05155      0.36025994     0.057523866    28.818222      3388.6938    
      2170   4.34           330.94444      137452.15     -807624.68     -303.37589      0.36022899     0.057590378    28.867614      3388.3501    
      2180   4.36           324.96033      133079.83     -807628.75     -298.26361      0.36019789     0.056624792    28.837631      3388.0225    
      2190   4.38           340.1161       133079.11     -807630.89     -297.8112       0.36016666     0.056543805    28.866194      3387.6794    
      2200   4.4            326.32501      129859.15     -807631.07     -295.47246      0.36013528     0.05610465     28.90025       3387.3182    
      2210   4.42           327.54731      133565.17     -807628.69     -297.60727      0.36010377     0.056514955    28.887195      3386.964     
      2220   4.44           346.09245      131385.74     -807632.11     -296.43763      0.36007211     0.056297793    28.887743      3386.6096    
      2230   4.46           338.64308      136879.77     -807626.37     -300.78443      0.3600403      0.057128359    28.869081      3386.2651    
      2240   4.48           336.46946      136639.6      -807624.23     -302.42347      0.36000836     0.05744476     28.888839      3385.9102    
      2250   4.5            332.32014      139230.46     -807621.31     -304.41141      0.35997627     0.05782752     28.878409      3385.5608    
      2260   4.52           338.46839      135435.48     -807625.89     -300.55164      0.35994404     0.05709941     28.929732      3385.1848    
      2270   4.54           338.27678      135795.47     -807627.04     -299.07301      0.35991167     0.056823608    28.893718      3384.8277    
      2280   4.56           336.16589      131084.11     -807629.29     -296.53117      0.35987916     0.05634575     28.884911      3384.4753    
      2290   4.58           332.4552       132522.72     -807628.75     -296.34324      0.35984651     0.056315151    28.921341      3384.1042    
      2300   4.6            345.63122      130740.9      -807632.13     -294.74477      0.35981371     0.056016492    28.905588      3383.7414    
      2310   4.62           340.57138      133511.33     -807628.68     -297.40895      0.35978077     0.056527998    28.884782      3383.3893    
      2320   4.64           342.53002      135998.44     -807624.92     -301.45901      0.35974769     0.057303054    28.922235      3383.0183    
      2330   4.66           343.8039       137932.08     -807623.33     -303.23137      0.35971447     0.057645277    28.964489      3382.6264    
      2340   4.68           340.98987      137709.04     -807624.33     -301.80204      0.35968111     0.05737888     28.954409      3382.24      
      2350   4.7            330.48058      135975.39     -807625.23     -299.4954       0.3596476      0.056945643    28.93027       3381.8658    
      2360   4.72           333.42476      135058.61     -807625.27     -299.88989      0.35961396     0.057025986    28.951452      3381.4815    
      2370   4.74           334.73754      130793.23     -807629.94     -295.48782      0.35958017     0.056194185    28.95777       3381.0943    
      2380   4.76           338.45836      132236.64     -807631.52     -294.4332       0.35954624     0.055998906    28.921546      3380.7253    
      2390   4.78           338.7125       131060.99     -807631.96     -294.23731      0.35951216     0.055966953    28.962438      3380.3365    
      2400   4.8            340.47673      135500.7      -807627.03     -299.54993      0.35947795     0.056982892    28.958303      3379.9501    
      2410   4.82           344.67121      134445.52     -807627.44     -299.97326      0.35944359     0.057068876    28.918631      3379.5832    
      2420   4.84           340.77636      138344.02     -807625.12     -301.89189      0.35940909     0.057439401    28.816146      3379.266     
      2430   4.86           337.00617      135340.44     -807625.61     -301.14924      0.35937446     0.057303624    28.843464      3378.9355    
      2440   4.88           332.34987      136494.89     -807624.69     -301.57463      0.35933967     0.057390123    28.875887      3378.5892    
      2450   4.9            331.28         133131.59     -807629.26     -297.18021      0.35930475     0.056559354    28.893292      3378.2346    
      2460   4.92           332.54588      133364.69     -807630.92     -295.83281      0.35926969     0.056308412    28.897561      3377.8781    
      2470   4.94           334.37089      130950.39     -807632.32     -294.94541      0.35923448     0.056145008    28.893438      3377.5236    
      2480   4.96           315.89981      133530.01     -807628.4      -296.41948      0.35919913     0.056431161    28.900606      3377.1657    
      2490   4.98           335.99176      132632.55     -807630.49     -297.30449      0.35916364     0.056605238    28.911522      3376.8029    
      2500   5              329.07246      135245.53     -807626.97     -299.98879      0.35912801     0.057121982    28.860359      3376.4641    
[...]
     98740   197.48         321.33465      132671.54     -807627.89     -9604.4051      0.36236891     0.056639196    28.632419      43.760071    
     98750   197.5          336.19066      132441.92     -807630.84     -9574.4283      0.36238762     0.056459502    28.651389      43.412791    
     98760   197.52         334.12948      133813.88     -807628.83     -9625.6967      0.36240618     0.05675892     28.571484      43.065522    
     98770   197.54         327.64167      136075.39     -807625.03     -9715.8372      0.36242459     0.057287532    28.575812      42.718253    
     98780   197.56         346.39951      136273.59     -807627.16     -9728.6588      0.36244287     0.057360239    28.623369      42.370975    
     98790   197.58         336.14851      136833.46     -807625.42     -9735.2372      0.362461       0.057396155    28.686112      42.023688    
     98800   197.6          326.08504      136965.11     -807624.63     -9714.0008      0.36247899     0.057268109    28.718626      41.676396    
     98810   197.62         341.46524      133966.43     -807629.1      -9638.4666      0.36249683     0.056820005    28.752871      41.329098    
     98820   197.64         333.47202      132423.08     -807629.14     -9597.9458      0.36251453     0.056578367    28.752092      40.981801    
     98830   197.66         324.11407      133323.75     -807627.96     -9592.3768      0.36253209     0.0565428      28.742718      40.634505    
     98840   197.68         329.52919      134806.19     -807627.69     -9623.2355      0.36254951     0.056721974    28.743186      40.287209    
     98850   197.7          335.08316      133726.73     -807627.6      -9649.4665      0.36256678     0.056873876    28.700061      39.939918    
     98860   197.72         334.2755       136369.06     -807625.13     -9721.0866      0.36258391     0.057293298    28.687526      39.592629    
     98870   197.74         334.56287      137063.49     -807624.26     -9747.6766      0.3626009      0.05744732     28.705234      39.245338    
     98880   197.76         326.09275      136901.69     -807622.55     -9763.1263      0.36261774     0.057535699    28.733559      38.898042    
     98890   197.78         341.71053      134906.87     -807627        -9687.3247      0.36263445     0.057086359    28.806722      38.550736    
     98900   197.8          349.84745      134778.68     -807629.28     -9645.5209      0.362651       0.056837418    28.810002      38.20343     
     98910   197.82         327.30852      133909        -807626.77     -9622.0115      0.36266742     0.05669632     28.768556      37.856129    
     98920   197.84         334.42052      133270.07     -807628.91     -9582.0867      0.36268369     0.056458535    28.747064      37.508832    
     98930   197.86         337.0955       133115.61     -807628.25     -9610.8161      0.36269982     0.056625293    28.719052      37.161537    
     98940   197.88         335.46043      135178.97     -807625.61     -9683.7762      0.36271581     0.057052647    28.679062      36.814248    
     98950   197.9          336.03496      136938.74     -807623.84     -9739.9337      0.36273165     0.057380997    28.692297      36.466957    
     98960   197.92         335.55953      137434.79     -807622.58     -9774.2662      0.36274735     0.057580768    28.681285      36.119667    
     98970   197.94         346.56172      137293.23     -807625.42     -9729.2215      0.36276291     0.057312949    28.696196      35.772374    
     98980   197.96         335.92235      135799.03     -807624.84     -9699.1422      0.36277832     0.05713333     28.731454      35.425077    
     98990   197.98         354.95519      134827.16     -807628.09     -9677.5018      0.36279359     0.057003457    28.736096      35.07778     
     99000   198            331.46778      133025.89     -807627.98     -9576.5728      0.36280872     0.056406602    28.678757      34.730489    
     99010   198.02         334.07183      133757.19     -807628.5      -299.15499      0.3628237      0.056382992    28.665334      34.3832      
     99020   198.04         341.84294      132237.01     -807628.72     -300.10859      0.36283855     0.056560406    28.624932      34.035915    
     99030   198.06         337.08721      136068.78     -807624.76     -303.47384      0.36285324     0.057192326    28.646184      33.688627    
     99040   198.08         349.48968      134626.72     -807626.56     -303.52505      0.3628678      0.057199684    28.659326      33.341337    
     99050   198.1          334.82921      139082.93     -807623.14     -305.00588      0.36288221     0.057476466    28.752663      32.994036    
     99060   198.12         339.35284      135853.56     -807624.94     -304.1615       0.36289648     0.057315092    28.772094      32.646733    
     99070   198.14         341.19097      136235.36     -807624.38     -305.09262      0.36291061     0.057488312    28.727113      32.299435    
     99080   198.16         334.31359      132734.69     -807628.56     -300.30131      0.36292459     0.056583309    28.771221      31.952132    
     99090   198.18         327.94959      135260        -807628.29     -299.8321       0.36293843     0.056492746    28.752086      31.60483     
     99100   198.2          331.74491      131407.1      -807629.35     -299.69877      0.36295213     0.056465494    28.723287      31.257532    
     99110   198.22         333.07444      134850.5      -807626.54     -302.90684      0.36296568     0.057067789    28.727269      30.910233    
     99120   198.24         330.17014      133672.76     -807627.69     -301.75374      0.36297909     0.056848443    28.75212       30.562932    
     99130   198.26         342.27539      136631.54     -807626.23     -305.06777      0.36299236     0.057470684    28.79462       30.215626    
     99140   198.28         332.51632      135934.01     -807625.57     -304.75566      0.36300548     0.05740981     28.860478      29.868313    
     99150   198.3          327.53845      136751.52     -807623.41     -306.41629      0.36301846     0.057720575    28.814931      29.521004    
     99160   198.32         337.84022      133447.84     -807629.36     -302.17782      0.3630313      0.05692015     28.816462      29.173696    
     99170   198.34         320.55478      133688.47     -807629.23     -300.08884      0.36304399     0.056524679    28.79092       28.82639     
     99180   198.36         326.90876      132244.37     -807630.33     -300.07569      0.36305655     0.056520248    28.743982      28.479089    
     99190   198.38         322.0246       133281.19     -807628.36     -301.59887      0.36306895     0.056805203    28.764343      28.131786    
     99200   198.4          329.38209      134236.79     -807629.23     -301.81234      0.36308122     0.05684349     28.772053      27.784482    
     99210   198.42         325.44984      135112.83     -807627.76     -302.89846      0.36309334     0.057046145    28.81195       27.437174    
     99220   198.44         332.96637      136223.93     -807625.52     -306.31735      0.36310532     0.057688136    28.801582      27.089868    
     99230   198.46         325.33211      136784.21     -807624.11     -306.82638      0.36311715     0.057782116    28.843588      26.742557    
     99240   198.48         319.25716      135920.27     -807625.77     -304.34775      0.36312885     0.05731349     28.835142      26.395247    
     99250   198.5          329.37875      132986.12     -807630.08     -301.49694      0.3631404      0.056774833    28.819257      26.047939    
     99260   198.52         322.45152      133216.34     -807628.94     -301.76243      0.3631518      0.056823043    28.785942      25.700634    
     99270   198.54         317.65831      132560.24     -807629.27     -300.85904      0.36316306     0.056651174    28.791134      25.353328    
     99280   198.56         329.84578      133341.78     -807631.6      -300.15842      0.36317418     0.056517518    28.756532      25.006025    
     99290   198.58         315.51272      133200.65     -807629.38     -300.42358      0.36318516     0.056565735    28.756492      24.658722    
     99300   198.6          331.91025      135615.39     -807627.29     -304.84018      0.36319599     0.057395611    28.751387      24.31142     
     99310   198.62         332.28054      136374.72     -807625.43     -306.77449      0.36320668     0.057758104    28.767429      23.964116    
     99320   198.64         317.95937      137190.88     -807624.49     -305.62349      0.36321723     0.057539728    28.788523      23.616811    
     99330   198.66         318.37671      134783.02     -807627.62     -302.57566      0.36322763     0.056964281    28.788211      23.269505    
     99340   198.68         331.63248      134873.51     -807628.59     -303.36222      0.36323789     0.05711075     28.743959      22.922203    
     99350   198.7          335.42888      132388.83     -807630.07     -302.44697      0.36324801     0.05693686     28.74146       22.574901    
     99360   198.72         313.37475      133286.37     -807629.02     -300.24453      0.36325798     0.05652069     28.722192      22.2276      
     99370   198.74         324.61802      131534.13     -807632.1      -298.62959      0.36326781     0.056215158    28.697766      21.880301    
     99380   198.76         335.86953      134450.55     -807629.27     -302.85157      0.3632775      0.057008399    28.72157       21.533       
     99390   198.78         329.35864      134837.93     -807625.38     -305.75236      0.36328704     0.057552929    28.759651      21.185696    
     99400   198.8          337.20266      136595.95     -807626.52     -305.43439      0.36329644     0.057491588    28.806884      20.838389    
     99410   198.82         319.33193      135777.05     -807625.15     -304.12757      0.3633057      0.057244149    28.789496      20.491082    
     99420   198.84         336.25746      136562.16     -807625.78     -305.60179      0.36331481     0.057520189    28.738657      20.14378     
     99430   198.86         337.03886      133948.14     -807627.1      -304.17337      0.36332378     0.05724992     28.75208       19.796476    
     99440   198.88         336.03099      133599.88     -807629.94     -300.80048      0.36333261     0.056613716    28.730543      19.449174    
     99450   198.9          323.57985      132282.85     -807630.52     -298.16281      0.36334129     0.056115939    28.761662      19.101869    
     99460   198.92         337.32607      133606.4      -807629.27     -301.03405      0.36334983     0.056654992    28.795981      18.754562    
     99470   198.94         331.14809      134544.38     -807626.53     -302.67322      0.36335823     0.056962168    28.825059      18.407254    
     99480   198.96         343.36278      136353.07     -807627.07     -303.49776      0.36336648     0.057116046    28.864515      18.059942    
     99490   198.98         346.77362      136387.27     -807626.22     -304.51295      0.3633746      0.05730582     28.901524      17.712629    
     99500   199            321.55108      138105.39     -807620.6      -306.46157      0.36338256     0.057671263    28.827734      17.365321    
     99510   199.02         348.09042      136679.22     -807624.89     -9784.2103      0.36339039     0.057537354    28.718217      17.018019    
     99520   199.04         329.48293      135273.09     -807624.91     -9693.8325      0.36339807     0.05700467     28.713149      16.670717    
     99530   199.06         343.25607      132649.08     -807630.46     -9574.4884      0.3634056      0.056301698    28.756209      16.323412    
     99540   199.08         335.68584      133624.07     -807627.58     -9630.0209      0.363413       0.056627099    28.739609      15.976109    
     99550   199.1          338.43536      133379.34     -807627.35     -9650.0345      0.36342025     0.056743652    28.690434      15.628807    
     99560   199.12         345.83013      133581.92     -807628.22     -9654.0951      0.36342736     0.056766419    28.684848      15.281506    
     99570   199.14         351.3234       135393.81     -807627.32     -9707.7319      0.36343432     0.057080711    28.710201      14.934204    
     99580   199.16         341.62814      136868.13     -807624.39     -9762.2458      0.36344114     0.057400172    28.708751      14.586901    
     99590   199.18         334.84852      137692.96     -807621.67     -9821.2746      0.36344782     0.057746189    28.692889      14.239599    
     99600   199.2          344.32082      135027.62     -807625.83     -9733.7338      0.36345435     0.057230446    28.634812      13.892299    
     99610   199.22         337.16707      134765.85     -807627.22     -9658.6112      0.36346074     0.056787756    28.591733      13.545001    
     99620   199.24         345.52739      134102.99     -807628.36     -9664.1684      0.36346699     0.056819454    28.600642      13.197703    
     99630   199.26         333.77005      134432.24     -807625.91     -9695.5723      0.3634731      0.057003132    28.664347      12.8504      
     99640   199.28         334.57974      133310.21     -807627.4      -9654.2343      0.36347906     0.056759163    28.642614      12.503099    
     99650   199.3          342.95673      134695.89     -807629.02     -9642.9808      0.36348487     0.056692094    28.680469      12.155795    
     99660   199.32         335.75637      135469.55     -807624.98     -9747.5971      0.36349055     0.05730625     28.756157      11.808488    
     99670   199.34         337.86815      137601.35     -807623.14     -9820.0897      0.36349608     0.057731556    28.718747      11.461183    
     99680   199.36         339.66713      135892.96     -807625.76     -9749.11        0.36350147     0.057313422    28.706149      11.113878    
     99690   199.38         332.5551       136162.25     -807625.97     -9712.1435      0.36350671     0.057095279    28.696357      10.766573    
     99700   199.4          338.60253      134415.32     -807628.06     -9679.1142      0.36351181     0.056900309    28.739274      10.419266    
     99710   199.42         336.38095      134405.9      -807626.66     -9717.6777      0.36351677     0.057126232    28.760183      10.071958    
     99720   199.44         337.60672      131986.31     -807630.52     -9604.369       0.36352158     0.05645939     28.708526      9.724652     
     99730   199.46         326.56265      134648.17     -807628.45     -9623.7433      0.36352625     0.056572555    28.614898      9.3773488    
     99740   199.48         326.99225      134567.07     -807626.37     -9698.6013      0.36353078     0.057011893    28.718373      9.030042     
     99750   199.5          331.9867       137198.91     -807624.08     -9797.1044      0.36353516     0.057590235    28.722353      8.6827348    
     99760   199.52         330.61084      136026.67     -807625.11     -9761.7431      0.3635394      0.057381702    28.759143      8.3354264    
     99770   199.54         334.45721      136710.04     -807626.31     -9740.3359      0.3635435      0.05725522     28.772857      7.9881175    
     99780   199.56         327.12328      135409.93     -807625.77     -9731.1636      0.36354745     0.057200682    28.742003      7.6408094    
     99790   199.58         335.05369      134992.94     -807627        -9729.2435      0.36355126     0.057188796    28.71304       7.2935019    
     99800   199.6          339.55023      133061.73     -807630.59     -9639.2818      0.36355493     0.056659427    28.733951      6.9461937    
     99810   199.62         330.41786      133437.39     -807629.77     -9625.4376      0.36355845     0.056577503    28.757612      6.5988848    
     99820   199.64         330.61997      133729.78     -807628.88     -9661.3559      0.36356183     0.0567881      28.701776      6.2515771    
     99830   199.66         324.99737      135624.44     -807625.85     -9735.9617      0.36356507     0.057226112    28.679257      5.9042696    
     99840   199.68         340.53162      134832.11     -807628.11     -9735.619       0.36356816     0.057223611    28.678085      5.5569619    
     99850   199.7          320.62657      136932.16     -807625.17     -9743.701       0.36357111     0.05727065     28.718655      5.2096531    
     99860   199.72         325.70411      136264.23     -807625.43     -9761.7046      0.36357392     0.057376028    28.674214      4.8623449    
     99870   199.74         330.01734      135689.99     -807626.34     -9754.0513      0.36357658     0.057330624    28.673072      4.5150364    
     99880   199.76         325.37087      134819.01     -807627.85     -9686.7746      0.3635791      0.056934803    28.711646      4.1677271    
     99890   199.78         333.71398      133037.4      -807630.84     -9631.5141      0.36358148     0.056609634    28.693493      3.8204178    
     99900   199.8          321.67871      133750.67     -807628.42     -9657.935       0.36358371     0.056764576    28.664117      3.4731087    
     99910   199.82         333.29501      133383.26     -807628.88     -9696.1777      0.3635858      0.05698902     28.642185      3.1257995    
     99920   199.84         328.98163      134851.57     -807627.9      -9711.0084      0.36358775     0.057075881    28.669747      2.7784896    
     99930   199.86         326.11534      135760.1      -807626.58     -9744.5171      0.36358955     0.057272543    28.678304      2.4311794    
     99940   199.88         323.76071      136538.75     -807625.18     -9779.598       0.36359121     0.057478466    28.685169      2.0838688    
     99950   199.9          328.8077       136550.28     -807626.6      -9758.169       0.36359273     0.05735228     28.691188      1.736558     
     99960   199.92         320.576        135166.67     -807626.92     -9713.0105      0.3635941      0.057086652    28.722146      1.3892467    
     99970   199.94         325.06095      134042.61     -807629.71     -9645.7075      0.36359533     0.056690898    28.745384      1.0419352    
     99980   199.96         338.45823      132106.85     -807631.33     -9653.4018      0.36359641     0.05673595     28.710547      0.69462367   
     99990   199.98         328.56718      133792.48     -807629.63     -9665.3387      0.36359736     0.05680596     28.717157      0.34731192   
    100000   200            318.85063      134359.78     -807628.85     -9648.438       0.36359816     0.056706505    28.726912      0            
Loop time of 3473.12 on 32 procs for 100000 steps with 1080 atoms

Performance: 4.975 ns/day, 4.824 hours/ns, 28.793 timesteps/s, 31.096 katom-step/s
67.1% CPU use with 32 MPI tasks x 1 OpenMP threads

MPI task timing breakdown:
Section |  min time  |  avg time  |  max time  |%varavg| %total
---------------------------------------------------------------
Pair    | 2582.4     | 2802.8     | 3118.3     | 260.3 | 80.70
Neigh   | 0.0016609  | 0.0017694  | 0.0019125  |   0.2 |  0.00
Comm    | 282.04     | 597.27     | 817.16     | 563.7 | 17.20
Output  | 2.335      | 2.3437     | 2.3528     |   0.3 |  0.07
Modify  | 63.321     | 64.462     | 65.279     |   5.7 |  1.86
Other   |            | 6.25       |            |       |  0.18

Nlocal:          33.75 ave          42 max          24 min
Histogram: 1 0 4 5 3 6 4 3 5 1
Nghost:         1026.5 ave        1050 max        1001 min
Histogram: 2 3 4 1 3 3 7 6 2 1
Neighs:              0 ave           0 max           0 min
Histogram: 32 0 0 0 0 0 0 0 0 0
FullNghs:      5354.56 ave        6738 max        3743 min
Histogram: 1 0 4 4 5 5 4 4 4 1

Total # of neighbors = 171346
Ave neighs/atom = 158.6537
Neighbor list builds = 4
Dangerous builds = 0

Total wall time: 1:01:33
