
units		metal
atom_style	atomic

read_data ${STRUCTURE}.data
read_data BaTiO3-sc333.data
Reading data file ...
  orthogonal box = (0 0 0) to (11.898253 11.898253 12.912076)
  2 by 4 by 4 MPI processor grid
  reading atoms ...
  135 atoms
  read_data CPU = 0.004 seconds
replicate $L $L $L
replicate 2 $L $L
replicate 2 2 $L
replicate 2 2 2
Replication is creating a 2x2x2 = 8 times larger system...
  orthogonal box = (0 0 0) to (23.796507 23.796507 25.824152)
  2 by 4 by 4 MPI processor grid
  1080 atoms
  replicate CPU = 0.003 seconds

pair_style allegro
pair_coeff	* * ${MODEL}.pth Ba Ti O
pair_coeff	* * BaTiO3-E0.pth Ba Ti O
mass 1 137.3
mass 2 47.9
mass 3 15.9994

timestep 0.002
compute polarization all allegro polarization 3
compute allegro will evaluate the quantity polarization of length 3 (src/compute_allegro.cpp:53)
compute polarizability all allegro polarizability 9
compute allegro will evaluate the quantity polarizability of length 9 (src/compute_allegro.cpp:53)

thermo_style custom pe fmax fnorm spcpu cpuremain

variable efield equal 1e-2*36.36
fix born all addbornforce 0.0 0.0 ${efield}
fix born all addbornforce 0.0 0.0 0.3636

thermo 10
min_style fire
#minimize 0.0 1e-6 100 100
velocity all create ${TEMP} ${SEED} dist gaussian rot yes mom yes
velocity all create 340 ${SEED} dist gaussian rot yes mom yes
velocity all create 340 15210 dist gaussian rot yes mom yes
fix nvt all nvt temp ${TEMP} ${TEMP} $(100*dt)
fix nvt all nvt temp 340 ${TEMP} $(100*dt)
fix nvt all nvt temp 340 340 $(100*dt)
fix nvt all nvt temp 340 340 0.2000000000000000111
run 5000
Neighbor list info ...
  update: every = 1 steps, delay = 0 steps, check = yes
  max neighbors/atom: 2000, page size: 100000
  master list distance cutoff = 8
  ghost atom cutoff = 8
  binsize = 8, bins = 3 3 4
  1 neighbor lists, perpetual/occasional/extra = 1 0 0
  (1) pair allegro/kk, perpetual
      attributes: full, newton on, kokkos_device
      pair build: full/bin/kk/device
      stencil: full/bin/3d
      bin: kk/device
Per MPI rank memory allocation (min/avg/max) = 3.516 | 3.516 | 3.516 Mbytes
    PotEng          Fmax          Fnorm          S/CPU         CPULeft    
-807708.29      1.595926       37.041887      0              0            
-807645.97      3.207109       44.300825      2.6876218      1856.661     
-807631.43      2.4757731      35.938386      25.900677      1022.6067    
-807603.68      3.1666195      37.638486      25.895299      744.34436    
-807601.86      4.0954074      50.189883      25.836274      605.12955    
-807568.46      4.1008834      41.537421      25.810445      521.48423    
-807601.69      2.9028129      38.868287      25.878057      465.50812    
-807645.2       4.223888       35.128434      25.845415      425.44919    
-807681.95      2.4952921      34.570153      25.817789      395.33369    
-807666.33      3.1802465      34.686307      25.859381      371.79051    
-807648.81      3.7104382      36.055684      25.939717      352.81992    
-807657.25      4.2034302      28.968039      25.896657      337.25694    
-807624.4       3.5635259      32.391664      25.875499      324.23626    
-807585.7       3.8750277      41.393314      25.909558      313.14028    
-807567.38      3.5499321      39.368437      25.920248      303.56878    
-807630.61      3.5800348      34.692618      25.874035      295.24431    
-807649.84      4.0700207      33.9696        25.835011      287.92975    
-807663.97      3.4523012      35.617164      25.870151      281.41527    
-807642.08      6.44937        47.558839      25.919131      275.56209    
-807676.42      3.2809617      37.475049      25.883676      270.2978     
-807638.38      4.4159382      41.423188      25.896226      265.51682    
-807616.21      3.3968601      40.020687      25.920337      261.1462     
-807558.85      4.2101894      46.550639      25.916471      257.13908    
-807602.82      4.400792       49.329929      25.882366      253.45741    
-807611.81      4.6756408      39.470864      25.794083      250.07657    
-807641.13      3.3428327      36.150017      25.852943      246.91841    
-807640.17      5.0529555      45.589987      25.909254      243.9581     
-807677.64      3.1321502      38.015686      25.902237      241.19032    
-807660.63      2.8985636      35.614148      25.843633      238.60743    
-807637.41      2.7046289      31.84252       25.909245      236.16006    
-807603.87      4.1975175      34.624576      25.924392      233.84658    
-807599.77      3.6361095      42.418576      25.871483      231.66941    
-807596.34      4.4112519      38.357703      25.795333      229.62084    
-807606.67      2.9587822      34.621881      25.908734      227.64892    
-807638.59      3.2363208      32.544953      25.900391      225.772      
-807667.83      2.5925748      33.869735      25.892382      223.98185    
-807674.25      2.7818933      34.62283       25.812707      222.28507    
-807641.6       4.4337677      39.733232      25.84899       220.65226    
-807641.95      2.803623       33.126709      25.89308       219.07701    
-807616.1       4.1367783      35.974663      25.873204      217.56625    
-807598.65      3.9131107      45.399832      25.797685      216.12471    
-807566.47      5.0113796      43.771859      25.913066      214.71526    
-807618.3       3.3117593      37.506973      25.928279      213.35208    
-807643.32      4.7620265      38.352944      25.884083      212.04137    
-807670.77      2.9392634      36.828176      25.899829      210.77024    
-807638.43      4.9976432      47.68799       25.883671      209.54088    
-807659.11      3.3301024      36.936258      25.895768      208.34638    
-807642.98      4.8353944      37.966357      25.873971      207.18943    
-807620.85      4.0247917      39.338051      25.859578      206.0666     
-807564.12      4.6970845      44.031323      25.903634      204.96777    
-807595.27      4.0308359      43.532643      25.89425       203.8987     
-807619.45      4.1984937      36.978503      25.886217      202.85747    
-807652.36      3.0643058      33.32407       25.899965      201.83966    
-807639.03      4.7325544      41.267667      25.894981      200.84632    
-807665.25      2.8260454      35.453783      25.905916      199.87412    
-807663.88      2.7023982      33.973829      25.819777      198.93366    
-807640.93      3.2729055      32.465583      25.837072      198.01089    
-807598.19      4.3592398      36.653598      25.91225       197.0982     
-807591.8       4.3770538      39.714184      25.91444       196.20342    
-807603.99      3.6032141      41.229633      25.89248       195.32833    
-807615.38      4.1728609      35.850494      25.919164      194.46663    
-807633.12      3.0087833      34.594931      25.924871      193.61992    
-807656.91      3.7889747      36.325351      25.923482      192.78823    
-807671.41      3.2982786      37.267786      25.823405      191.98106    
-807644.66      4.1270986      39.341472      25.788118      191.19062    
-807630.25      2.8711448      35.548785      25.846647      190.4067     
-807610.02      3.6561264      36.652925      25.844338      189.63504    
-807603.06      3.8607579      45.720155      25.839991      188.87528    
-807579.32      4.7822167      41.782474      25.811911      188.12916    
-807612.45      3.2995909      37.396975      25.905391      187.3847     
-807639.79      4.6319459      38.362755      25.917747      186.64936    
-807669.48      3.464092       37.631164      25.851645      185.92982    
-807647.88      4.5860194      41.968285      25.830849      185.22137    
-807648.61      3.4870329      37.439624      25.890509      184.51651    
-807638.68      3.1958148      36.368329      25.880102      183.82116    
-807621.75      3.3920763      38.34534       25.870175      183.13488    
-807581.75      3.4752816      39.444498      25.903676      182.4537     
-807587.41      3.0244969      40.050755      25.916819      181.77912    
-807624.74      2.685238       33.002629      25.904126      181.11296    
-807654.62      3.3834932      32.478776      25.858518      180.45752    
-807651.51      3.5044186      35.668974      25.871479      179.80778    
-807652.86      3.4890704      37.1102        25.744893      179.17437    
-807661.07      3.1701781      33.836031      25.806761      178.54219    
-807641.64      3.1959225      33.217206      25.864833      177.91153    
-807606.82      2.8486025      36.311158      25.907454      177.28354    
-807582.48      4.0315398      40.544189      25.901385      176.66168    
-807603.79      3.9681802      40.959855      25.873812      176.04728    
-807625.18      3.5836862      34.114282      25.855819      175.4394     
-807638.83      3.7024193      34.835803      25.905851      174.83305    
-807647.44      3.8337222      37.842989      25.879812      174.23344    
-807667.89      2.9872109      36.413604      25.802003      173.64388    
-807651.54      4.3678849      36.621569      25.763924      173.06134    
-807630.41      3.1167959      34.666873      25.826036      172.47888    
-807603.91      3.527318       36.587981      25.899094      171.89583    
-807603.03      3.8715009      43.156695      25.879952      171.31822    
-807593         3.5088882      39.155586      25.837515      170.74733    
-807614.78      3.6233628      36.153444      25.865912      170.17849    
-807636.44      3.9937715      36.599276      25.856304      169.614      
-807663.5       3.1745405      36.603344      25.796992      169.05678    
-807655.96      4.1194677      38.202642      25.826824      168.50118    
-807644.63      4.3180741      36.3578        25.87211       167.94623    
-807629.62      4.6169416      36.415334      25.914131      167.39215    
-807620.66      3.8174134      37.154191      25.929862      166.84044    
-807590.91      3.890002       39.971987      25.923627      166.29232    
-807587.05      3.159131       39.497737      25.91839       165.74762    
-807619.99      3.1893074      33.95606       25.901197      165.20691    
-807650.63      3.209107       33.869607      25.890622      164.6697     
-807655.65      3.5642549      35.562754      25.828645      164.13872    
-807646.65      4.0305227      37.867627      25.811218      163.61135    
-807652.09      3.697145       34.257569      25.81038       163.08659    
-807638.77      3.7537929      34.329365      25.860479      162.56167    
-807611.35      3.2681848      37.626093      25.891764      162.0376     
-807577.1       3.9431414      41.249121      25.885337      161.51633    
-807601.35      3.4862317      39.412809      25.882534      160.99759    
-807623.8       3.6449294      36.996085      25.85927       160.48234    
-807644.21      3.1758202      35.532758      25.842612      159.97017    
-807640.76      4.0266858      41.113141      25.890289      159.4578     
-807660.36      3.9404115      36.931273      25.871385      158.9485     
-807648.78      3.4799168      37.410716      25.877258      158.44101    
-807632.95      4.0053833      35.110515      25.828552      157.93788    
-807597.43      3.7412842      38.423879      25.848887      157.43572    
-807599.51      3.6917833      40.933209      25.82143       156.93675    
-807604.34      3.4000897      38.130585      25.803278      156.44046    
-807621.5       2.6534124      35.379193      25.796523      155.94625    
-807632.96      3.475268       36.53386       25.81738       155.4528     
-807656.6       4.238697       35.459067      25.820466      154.96092    
-807656.77      3.405894       35.763695      25.855781      154.46913    
-807642.45      3.7658249      35.019348      25.894616      153.97728    
-807624.06      3.8069486      35.338298      25.82374       153.49017    
-807613.63      3.916209       37.465644      25.900949      153.00129    
-807600.28      3.4892198      40.026668      25.867585      152.5154     
-807597.48      3.5687201      38.866603      25.845835      152.03195    
-807618.73      3.0631123      35.731895      25.88508       151.54832    
-807644.32      3.6772222      35.345546      25.777593      151.07061    
-807657.2       3.5458154      35.790437      25.843148      150.59154    
-807644.87      6.3517012      37.824806      25.846839      150.11369    
-807640.87      3.644467       35.950306      25.86545       149.63644    
-807633.24      3.507769       34.462205      25.816989      149.16243    
-807614.66      3.8253419      38.162118      25.808422      148.69001    
-807587.01      3.7622791      39.645781      25.841982      148.21751    
-807603.01      3.0929054      38.17849       25.840956      147.74627    
-807629.67      3.9859325      34.914559      25.863927      147.27535    
-807649.47      2.9428296      34.092308      25.837977      146.80659    
-807643.92      4.1925355      37.559295      25.87081       146.33775    
-807650.34      3.7355528      36.138749      25.868179      145.87016    
-807645.59      3.9985564      35.284533      25.883976      145.4031     
-807632.5       2.8965625      34.185046      25.929993      144.93548    
-807600.73      3.4255463      37.27035       25.850782      144.47182    
-807596.43      3.488092       38.791442      25.8492        144.00926    
-807611.49      3.0045662      37.292594      25.86281       143.54723    
-807632.37      3.2428345      33.486899      25.895941      143.08505    
-807637.5       3.1980908      35.164492      25.895267      142.6239     
-807652.33      3.15495        34.636571      25.814275      142.16651    
-807654.4       3.87188        35.683224      25.794311      141.71072    
-807644.07      2.9199732      33.660388      25.801887      141.25555    
-807621.68      3.7704921      34.666189      25.888056      140.79839    
-807607.02      2.9646589      35.481602      6.5507321      142.85657    
-807604.59      3.4516929      38.598729      25.792289      142.38106    
-807611.06      3.5519208      35.311754      25.818408      141.90581    
-807624.86      2.8098226      33.790602      25.877094      141.42979    
-807642.77      2.8317314      34.189144      23.497203      141.03806    
-807658.91      2.6231611      33.838089      10.552458      141.74516    
-807648.58      3.4514487      35.743655      25.966837      141.25814    
-807637.18      4.1543736      34.6124        26.020265      140.77073    
-807624.45      3.9246624      34.166872      26.051469      140.28364    
-807613.16      3.0514319      37.202332      20.348208      140.01623    
-807595.28      3.3165035      37.612194      26.031141      139.53026    
-807606.87      3.3988         35.863697      26.009465      139.04614    
-807628.95      3.1946831      33.325292      24.764471      138.60141    
-807649.85      2.9538577      34.705947      9.3634611      139.45801    
-807649.1       3.4967011      35.094356      26.048502      138.96404    
-807646.32      3.9203749      34.951258      25.975449      138.47343    
-807639.03      2.800327       34.10232       25.993491      137.98355    
-807628.65      2.6085912      34.230093      26.003702      137.49459    
-807602.19      2.8538477      36.663277      26.028585      137.00614    
-807594.38      2.7955382      37.832704      26.061749      136.51798    
-807611.78      3.105167       36.333844      26.060326      136.03105    
-807635.68      2.9700727      34.596782      26.018988      135.54639    
-807643.91      3.364658       35.264651      25.998711      135.0634     
-807644.7       3.6199016      36.331463      25.993996      134.58164    
-807649.42      2.9975795      35.479855      25.938712      134.10241    
-807640.48      3.0038452      34.920174      25.932706      133.62438    
-807619.25      3.2172377      35.174323      25.99836       133.14565    
-807597.87      2.8290687      37.256819      26.101689      132.66532    
-807603.6       3.439578       37.72478       26.067223      132.18692    
-807615.72      3.6118304      36.049005      26.047671      131.71003    
-807629.9       3.21283        34.774298      25.956715      131.23641    
-807639.04      5.3418703      36.434925      26.03778       130.76173    
-807653.21      3.8202208      35.565726      25.980646      130.28942    
-807647.09      4.1340285      35.566285      25.933965      129.81917    
-807633.65      3.3667233      34.026013      26.022391      129.34767    
-807614.55      4.4247931      35.104164      26.044638      128.87656    
-807609.49      3.3651765      37.204465      26.039854      128.40647    
-807601.8       3.3535292      37.978228      25.996169      127.93829    
-807612.53      3.3660726      35.985169      26.017691      127.47047    
-807627.3       2.8009046      35.551379      26.027197      127.0033     
-807648.37      2.9284268      35.187762      26.056008      126.5363     
-807647.98      2.9499902      36.671378      26.01011       126.0712     
-807640.99      4.1671495      35.382459      25.98729       125.60742    
-807632.07      2.9471683      35.1532        26.059641      125.14282    
-807622.66      2.9572241      34.823851      26.018112      124.67995    
-807606.14      3.2473771      36.093005      26.001594      124.21823    
-807598.82      3.6759443      37.416065      26.023886      123.75678    
-807615.29      3.3394463      34.542908      25.996009      123.29669    
-807634.84      3.7757927      33.753268      25.99062       122.83746    
-807645.67      3.2683415      34.672499      25.981645      122.37915    
-807643.31      4.019243       36.493719      26.005461      121.92105    
-807641.39      3.8860613      35.428776      26.055956      121.4626     
-807637.48      3.0928642      34.184545      26.024255      121.00553    
-807619.81      3.3582299      35.604466      26.026842      120.5491     
-807599.79      3.3426153      37.317007      26.060974      120.09267    
-807606.57      3.5473156      36.695832      26.020854      119.63773    
-807621.14      3.2413959      35.799199      26.039082      119.18309    
-807637.42      2.5928939      33.476061      26.025896      118.72938    
-807639.9       3.0773538      35.517426      26.029322      118.27625    
-807646.55      3.5910196      34.688453      26.017204      117.824      
-807645.56      3.0487625      34.287801      25.994013      117.37283    
-807633.35      4.1975763      34.040156      26.017752      116.92182    
-807613.23      3.9653368      35.362179      25.99659       116.47182    
-807606.73      3.9338972      37.155078      25.995457      116.02244    
-807612.01      3.0941227      36.683791      25.954946      115.57441    
-807620.26      3.9014855      36.746244      26.053832      115.1251     
-807632.12      3.6114946      35.46638       26.067892      114.67612    
-807644.68      3.5297067      34.962076      26.023162      114.22855    
-807649.23      2.6517596      34.713392      25.963525      113.78264    
-807641.2       3.33327        34.393777      25.968767      113.33716    
-807626.89      2.6145385      33.870245      26.010644      112.89147    
-807617.62      3.5472158      33.812196      25.996184      112.44658    
-807610.37      3.0278677      35.981898      25.997335      112.00219    
-807609.5       3.5898614      35.919589      26.025858      111.55783    
-807620.52      3.3630001      34.4469        26.07074       111.11321    
-807638.55      3.5586648      33.791154      26.06754       110.66918    
-807646.22      3.1353392      34.679533      26.004616      110.22674    
-807643.84      4.3847558      36.157059      25.964947      109.78547    
-807635.49      4.738183       34.975361      26.032587      109.34354    
-807628.41      3.2072392      34.377727      25.943898      108.90358    
-807615.86      3.4650972      36.031107      25.948911      108.46401    
-807603.53      3.03488        37.227558      25.983017      108.02433    
-807606.35      3.7998389      36.68038       26.056478      107.58391    
-807624.09      3.6318267      35.58634       26.07167       107.14373    
-807639.25      3.0967696      34.889119      25.986309      106.70538    
-807641.39      3.2128977      35.386861      25.995886      106.26732    
-807641.13      3.0492166      35.440178      25.982923      105.82991    
-807636.31      3.1572373      35.277859      25.947274      105.39349    
-807629         2.9613073      34.213801      25.9608        104.95728    
-807611.03      3.6226831      36.022632      25.998001      104.52092    
-807603.87      3.9870963      36.785507      26.028489      104.0845     
-807610.4       3.1790394      36.365991      26.032062      103.64846    
-807628.58      3.3971047      34.23054       25.825965      103.21595    
-807634.16      2.888598       35.071007      25.989743      102.78134    
-807640.14      3.7118731      35.528317      26.014013      102.34677    
-807642.1       3.1823239      35.865003      26.001839      101.91279    
-807638.37      3.1117155      34.487306      25.950256      101.47994    
-807623.68      3.3789524      34.420054      25.983819      101.04699    
-807609.39      3.2725297      36.176579      26.083786      100.61298    
-807608.26      3.3750769      36.699502      26.063687      100.17966    
-807615.75      3.5727504      36.112788      26.084608      99.746431    
-807623.26      3.0040207      34.556922      26.036379      99.314263    
-807633.95      3.1888415      34.411437      26.090992      98.881712    
-807643.51      3.3573758      35.482301      26.010398      98.450647    
-807644.64      2.9087678      34.85725       25.999054      98.020095    
-807632.86      2.6316298      34.333947      26.022207      97.589582    
-807621.9       2.843985       35.09145       26.015427      97.159513    
-807614.09      3.0721801      35.130738      26.044221      96.729408    
-807609.89      3.2550187      37.31015       26.064233      96.29939     
-807612.08      2.9831259      35.437387      25.94932       95.871227    
-807625.41      3.1896501      35.541157      26.113485      95.441256    
-807639.55      3.824518       35.089071      26.117481      95.011585    
-807645.21      3.1564498      35.050793      26.078427      94.58276     
-807639.24      3.6020093      36.447678      26.051917      94.154608    
-807633.83      3.0558345      34.467453      26.072933      93.726519    
-807625.22      3.6292253      34.804562      26.081391      93.298655    
-807613.97      2.760188       35.720437      26.077648      92.871164    
-807604.42      2.8560308      36.7718        26.065808      92.44414     
-807616.32      2.8473673      34.751373      26.067987      92.017406    
-807630.49      3.0891079      34.041811      25.99767       91.591835    
-807641.45      3.1347268      34.022661      25.985573      91.166705    
-807642.42      2.889772       34.217042      26.054088      90.741052    
-807642.96      3.3303602      34.815985      26.031006      90.315971    
-807636.04      3.2306159      34.107613      26.024978      89.891255    
-807621.6       2.6258515      35.227395      26.025901      89.466817    
-807610.35      2.4886696      36.491682      26.026019      89.042663    
-807608.56      2.707364       36.419119      26.027708      88.618774    
-807617.37      3.0021608      35.934914      26.049391      88.194919    
-807630.22      2.3224114      34.223438      26.048111      87.771361    
-807639.91      3.0463496      34.886086      26.090897      87.347606    
-807642.81      3.0955564      35.327939      26.083881      86.924211    
-807640.37      3.4927193      35.419898      26.003615      86.501973    
-807633.07      3.6869421      34.523082      26.017436      86.079846    
-807618.9       3.490407       35.062972      26.031162      85.657833    
-807609.78      3.6878456      35.744879      26.051851      85.23586     
-807611.11      3.2568236      36.623696      25.999233      84.814707    
-807616.79      3.7153855      36.408579      26.031039      84.393469    
-807629.82      3.3693381      34.866756      26.047979      83.972309    
-807637.19      3.244246       35.788773      26.103483      83.550829    
-807641.03      3.0925878      36.261779      26.086557      83.129782    
-807636.88      4.0958421      36.215706      25.989247      82.70998     
-807628.38      3.6140723      35.004919      25.997227      82.290332    
-807617.06      3.5456246      36.133866      26.02661       81.870626    
-807611.81      3.2878193      37.39796       25.967646      81.451742    
-807609.42      3.2677027      36.625207      25.989365      81.03287     
-807618.08      3.5155366      36.275468      26.019525      80.613929    
-807628.72      3.7475956      37.047847      26.001433      80.195393    
-807639.81      3.5105334      35.963036      26.014103      79.776959    
-807639.1       4.1254475      36.869782      26.026246      79.358633    
-807634.73      4.6404496      37.313442      25.991144      78.940863    
-807627.87      3.4452139      36.664011      26.005877      78.52317     
-807616.67      4.5006958      37.429082      26.017152      78.105589    
-807608.94      3.3087548      38.09586       26.022424      77.688175    
-807609.19      4.721284       38.529276      25.993017      77.271244    
-807619.82      3.74696        37.52628       26.007493      76.854389    
-807631.39      3.656515       36.428707      26.018206      76.437647    
-807639.43      3.8925563      35.896621      26.027055      76.021033    
-807639.8       3.6705774      36.455324      26.027557      75.604622    
-807635.8       3.1147316      36.374675      26.02742       75.188417    
-807628.43      3.5399855      35.662921      25.988544      74.772753    
-807616.8       3.1139509      36.692301      26.008329      74.357114    
-807609.75      3.247945       37.222907      26.017299      73.941595    
-807614.27      3.665824       37.114584      26.090578      73.525654    
-807622.06      3.3374774      36.058825      26.075174      73.110047    
-807632.95      3.5382994      35.745518      26.048258      72.694862    
-807637.84      3.085679       36.252977      26.001835      72.280255    
-807638.88      4.2329419      36.358717      26.055345      71.865398    
-807636.17      4.0473067      35.445163      26.066207      71.450645    
-807628.17      2.9226878      35.883952      26.02188       71.03644     
-807616.91      4.0772244      36.391833      26.087655      70.621896    
-807612.35      3.4748245      37.165175      26.065277      70.20772     
-807616.51      3.7213557      36.955552      26.060931      69.793765    
-807623.67      3.2564039      36.41667       25.992942      69.38052     
-807632.45      3.4078439      35.144566      25.987026      68.967494    
-807639.39      3.0946985      35.806242      25.987917      68.554633    
-807639.41      2.8763506      35.361909      25.996099      68.141879    
-807635.89      3.5737674      34.735518      26.02189       67.729102    
-807623.91      2.9493199      35.621596      25.993866      67.316702    
-807618.42      2.8769486      36.001008      25.997071      66.904446    
-807612.48      3.6337024      37.532612      25.966431      66.492578    
-807615.49      3.3924594      38.074887      25.994551      66.080666    
-807622.74      3.3886577      36.718303      26.013494      65.66878     
-807636.71      3.0429934      35.729734      26.020334      65.257007    
-807638.13      4.4649321      37.236866      25.971437      64.845741    
-807638.6       3.2448024      35.501924      25.995471      64.434461    
-807633.38      3.4799944      35.734523      26.093526      64.022664    
-807624.82      4.0361578      35.46598       26.054572      63.611297    
-807616.17      4.5064797      36.809446      26.026582      63.200281    
-807611.81      3.8545567      37.036503      26.088025      62.78901     
-807615.58      3.6496928      37.122459      26.041706      62.378207    
-807627.61      3.4511334      35.54972       26.031049      61.96763     
-807636.46      3.2396997      35.637591      26.065704      61.556979    
-807637.57      2.9686856      36.594376      26.081553      61.146382    
-807638.94      3.4997325      35.864758      26.058451      60.736087    
-807632.44      3.9784605      36.187762      25.991281      60.326369    
-807623.64      3.4010566      36.526295      25.990762      59.916797    
-807612.72      3.0450822      36.872461      25.950284      59.507619    
-807612.01      3.2865817      37.067427      25.994754      59.0983      
-807618.08      2.9644811      36.669819      25.994461      58.689123    
-807629.79      2.9295789      35.37114       26.0152        58.279958    
-807635.15      3.1198662      35.589405      26.03894       57.870791    
-807639.78      3.3898572      35.707346      26.030528      57.461814    
-807637.36      3.3528779      35.961459      26.033359      57.052959    
-807631.68      4.3618389      36.02132       25.989379      56.644497    
-807621.74      3.0446285      36.423306      25.992026      56.236152    
-807612.5       4.1937899      37.92384       25.986361      55.827969    
-807613.67      2.8997672      36.888488      25.921391      55.420284    
-807620.78      3.3133037      36.27623       25.934129      55.012648    
-807627.24      3.8602227      36.256002      26.022656      54.604642    
-807634.85      3.602594       36.331768      26.02645       54.196746    
-807638.35      4.1958629      36.539613      26.028645      53.788968    
-807637.51      3.0240228      35.408871      25.985847      53.381547    
-807627.71      3.2283088      35.86378       26.041214      52.973956    
-807620.94      3.622878       36.228871      26.00353       52.56669     
-807614.36      3.1107426      37.578384      25.969643      52.159722    
-807614.73      3.6022126      36.580473      25.996977      51.752733    
-807619.62      2.8814261      36.597826      25.981862      51.34594     
-807628.76      3.8560609      35.708782      26.009331      50.939127    
-807635.53      3.712443       35.979123      26.029317      50.532333    
-807639.95      3.7386148      35.355904      26.076936      50.125427    
-807634.92      3.1727774      35.749495      25.991229      49.719061    
-807626.93      3.6313281      35.645515      25.951342      49.313004    
-807621.83      2.9470824      35.808975      25.974048      48.906947    
-807614.42      3.198632       37.112091      25.954748      48.501093    
-807614.03      3.0900614      36.343377      25.916216      48.095528    
-807619.26      3.1644999      36.606674      26.000144      47.689678    
-807631.29      2.8552205      35.999419      26.036133      47.283774    
-807637.31      3.7769755      35.90499       26.055681      46.877896    
-807636.73      3.5722619      36.035613      26.024997      46.47227     
-807632.77      4.6349738      36.628115      25.984536      46.066934    
-807631.03      3.2313504      36.592232      26.003384      45.661622    
-807619.49      4.5323607      37.802752      26.023418      45.25633     
-807613.29      4.0261332      37.454785      25.961859      44.85141     
-807613.63      2.9972207      37.584063      25.983432      44.4465      
-807624.18      3.0994711      35.753344      26.009297      44.041585    
-807631.18      3.3801076      36.00777       26.01054       43.636769    
-807634.4       3.2848047      35.46771       25.994584      43.232123    
-807638.53      3.8798086      35.46851       26.016174      42.82749     
-807634.86      3.7956629      35.913376      26.05434       42.422809    
-807629.3       3.5686685      35.629305      26.014628      42.01839     
-807616.29      3.2794749      37.26801       25.995122      41.614147    
-807616.35      3.4956479      36.359897      25.992842      41.210012    
-807616.66      4.1997365      36.640921      25.856036      40.806496    
-807625.62      3.4898444      35.873471      26.015654      40.402463    
-807628.55      3.5866345      36.285807      26.010909      39.998546    
-807637.68      3.5011215      35.140137      26.018466      39.594699    
-807638.22      3.132098       35.493533      25.994348      39.191035    
-807635.55      5.6454047      35.21411       25.992498      38.787473    
-807623.25      3.6037557      36.587109      26.01798       38.383913    
-807620.28      4.5223213      36.3548        26.005589      37.980492    
-807615.48      3.1358745      36.680507      26.059712      37.576979    
-807620.41      3.4894794      35.884388      26.076646      37.173506    
-807622.92      3.2795299      36.013499      26.049505      36.770221    
-807634.47      2.8553013      34.070555      26.008334      36.367167    
-807637.4       3.1868686      35.060916      25.996198      35.964242    
-807637.04      3.4409214      35.238128      26.035598      35.56128     
-807632.11      4.1113053      34.862508      26.013494      35.158479    
-807624.42      3.0182736      35.568288      26.033392      34.755706    
-807620.71      3.6465545      36.598147      25.995127      34.35314     
-807615.61      3.1906398      37.335464      26.02373       33.950573    
-807617.78      3.5244813      36.295624      26.066368      33.547968    
-807625.35      3.5276957      36.52703       26.077249      33.145422    
-807635.97      2.8032886      35.425181      26.066202      32.742999    
-807634.65      3.4958158      35.585599      26.021341      32.340793    
-807634.26      3.2420137      35.236887      26.038325      31.938625    
-807631.36      2.9515702      34.599897      26.03824       31.536543    
-807626.46      3.4209271      35.007141      26.032109      31.134564    
-807615.69      3.0399566      36.272636      26.074918      30.732554    
-807614.42      2.951211       36.755561      26.043298      30.330714    
-807619.9       3.6852564      36.714177      26.060732      29.928914    
-807628.67      2.7352637      36.889845      26.083682      29.52714     
-807632.41      3.0940663      36.621216      26.026         29.125597    
-807633.66      3.9944884      36.689558      26.014174      28.724164    
-807634.55      3.9439002      36.414431      25.994154      28.32286     
-807629.71      3.5031746      36.665258      26.020954      27.921568    
-807620.6       4.1855746      36.501872      25.971767      27.520472    
-807613.56      4.0742561      36.950353      26.019611      27.119339    
-807616.69      4.360637       36.582238      26.008182      26.718309    
-807621.08      3.0584077      36.199525      26.012591      26.317346    
-807625.57      3.9280168      36.582222      26.024879      25.916432    
-807632.35      3.0171601      35.752276      26.040641      25.51556     
-807635.86      3.2985751      36.079102      26.050832      25.114743    
-807634.63      2.8449688      35.648108      25.918712      24.714281    
-807626.53      3.2280615      36.866821      25.967066      24.313786    
-807622         3.5860324      35.648636      26.033008      23.913227    
-807614.1       2.9141228      37.525993      26.026606      23.512756    
-807619.63      3.2657238      37.115965      26.009264      23.112392    
-807620.38      3.278982       35.795454      26.039035      22.712043    
-807624.74      4.1435558      35.913523      25.99709       22.311846    
-807635.73      2.9216171      35.057787      26.012137      21.911691    
-807634.54      4.0207036      36.699951      26.02189       21.511589    
-807633.48      3.1158385      34.920324      25.956597      21.111673    
-807626.02      3.1435923      35.7281        26.041119      20.711677    
-807622.16      3.9527145      36.411813      26.080845      20.311685    
-807619.27      3.1785969      35.514677      26.054515      19.91181     
-807618.09      4.0059054      36.539943      26.057256      19.512003    
-807621.38      2.8107564      35.227444      26.010857      19.112338    
-807631.02      3.0405502      34.733398      25.979778      18.712789    
-807634.53      3.2021452      34.982874      26.036066      18.31322     
-807635.23      3.6712881      34.831545      26.00413       17.913765    
-807630.49      3.3173899      34.923345      25.989832      17.514396    
-807629.81      2.5572591      34.054849      26.011202      17.115062    
-807623.58      2.7836617      34.731425      25.976234      16.71584     
-807619.23      3.8078057      36.052825      25.914143      16.316762    
-807616.89      3.8266701      36.509468      26.043345      15.917576    
-807626.08      3.4016919      35.829303      26.011599      15.518494    
-807631.89      3.4361575      35.507545      26.011301      15.119477    
-807634.13      3.475673       35.512317      26.054311      14.720472    
-807633.93      3.1551485      35.462032      26.017852      14.321574    
-807633.67      3.1079012      34.782949      26.023507      13.922732    
-807629.98      3.637458       34.266247      26.025603      13.523951    
-807620.37      2.859963       34.745106      26.030216      13.125227    
-807617.35      3.1367961      35.061002      26.030538      12.726565    
-807620.74      2.8210451      35.297654      26.028068      12.327967    
-807626.23      2.7060377      34.927418      26.014259      11.929444    
-807628.51      4.5057627      35.473449      25.997302      11.530996    
-807635.2       3.414332       34.710846      26.014013      11.132591    
-807636.29      3.7593626      35.348348      25.969275      10.734284    
-807632.57      3.3166559      35.311618      26.020991      10.335991    
-807624.58      3.0463265      35.601596      25.993196      9.9377776    
-807620.89      3.0882784      35.799644      25.992257      9.5396221    
-807618.36      3.2486068      36.021342      25.93645       9.1415627    
-807621.84      3.432619       35.129133      25.924386      8.743564     
-807623.02      3.2280548      35.40309       25.921861      8.3456181    
-807630.95      4.1696038      35.817963      25.917736      7.9477254    
-807633.17      2.7294335      34.945539      25.926559      7.5498777    
-807633.42      3.7586382      35.463076      25.934148      7.1520762    
-807628.85      3.1608105      34.821309      25.91828       6.7543335    
-807625.75      3.5032575      34.763032      25.961421      6.3566189    
-807620.31      3.2821093      35.654729      26.027585      5.9589257    
-807621.34      3.7126208      35.546113      25.986766      5.5613053    
-807620.36      3.0766173      35.504107      26.033609      5.163719     
-807624.78      3.1840956      36.269945      26.036687      4.7661869    
-807629.7       3.8277082      36.643354      26.023645      4.3687141    
-807633.06      3.6238571      35.721701      26.021138      3.971296     
-807630.55      4.0006712      36.242168      26.02971       3.5739289    
-807627.79      3.5557806      36.33869       26.015176      3.176619     
-807624         2.8587775      35.907085      26.036346      2.7793571    
-807618.76      3.5638129      36.676564      26.030935      2.3821495    
-807617.58      3.4246868      37.024011      26.019658      1.9849963    
-807621.07      4.1539765      36.352178      26.028196      1.5878938    
-807626.08      3.4173253      36.640711      25.951982      1.19085      
-807631.54      4.1622529      35.697811      25.967269      0.79385244   
-807633.07      3.8743721      36.178137      25.924968      0.39690378   
-807631.25      3.2033546      35.866453      25.949903      0            
Loop time of 198.442 on 32 procs for 5000 steps with 1080 atoms

Performance: 4.354 ns/day, 5.512 hours/ns, 25.196 timesteps/s, 27.212 katom-step/s
69.4% CPU use with 32 MPI tasks x 1 OpenMP threads

MPI task timing breakdown:
Section |  min time  |  avg time  |  max time  |%varavg| %total
---------------------------------------------------------------
Pair    | 101.8      | 143.8      | 192.18     | 312.8 | 72.46
Neigh   | 0          | 0          | 0          |   0.0 |  0.00
Comm    | 3.6551     | 52.053     | 94.097     | 520.1 | 26.23
Output  | 0.028684   | 0.02976    | 0.031714   |   0.3 |  0.01
Modify  | 2.1852     | 2.223      | 2.2481     |   1.3 |  1.12
Other   |            | 0.3361     |            |       |  0.17

Nlocal:          33.75 ave          48 max          21 min
Histogram: 8 8 0 0 0 0 0 8 0 8
Nghost:        1106.25 ave        1119 max        1092 min
Histogram: 8 0 8 0 0 0 0 0 8 8
Neighs:              0 ave           0 max           0 min
Histogram: 32 0 0 0 0 0 0 0 0 0
FullNghs:       5494.5 ave        7896 max        3378 min
Histogram: 8 8 0 0 0 0 0 8 0 8

Total # of neighbors = 175824
Ave neighs/atom = 162.8
Neighbor list builds = 0
Dangerous builds = 0

reset_timestep 0


variable interval equal 1000
thermo 10

variable nintervals equal $(v_PERIOD/v_interval)
variable nintervals equal 100
variable efield equal 1e-2*36.36*cos((step/${PERIOD})*2*3.14)
variable efield equal 1e-2*36.36*cos((step/100000)*2*3.14)
fix born all addbornforce 0.0 0.0 v_efield

variable Px equal f_born[1]+c_polarization[1]
variable Py equal f_born[2]+c_polarization[2]
variable Pz equal (f_born[3]+c_polarization[3])/vol
variable pe equal pe

fix aveP all ave/time 1 $(v_interval/2) ${interval} v_efield v_Pz v_pe f_born file Pz.${MODEL}.${STRUCTURE}.${TEMP}.$L.${ITER}
fix aveP all ave/time 1 500 ${interval} v_efield v_Pz v_pe f_born file Pz.${MODEL}.${STRUCTURE}.${TEMP}.$L.${ITER}
fix aveP all ave/time 1 500 1000 v_efield v_Pz v_pe f_born file Pz.${MODEL}.${STRUCTURE}.${TEMP}.$L.${ITER}
fix aveP all ave/time 1 500 1000 v_efield v_Pz v_pe f_born file Pz.BaTiO3-E0.${STRUCTURE}.${TEMP}.$L.${ITER}
fix aveP all ave/time 1 500 1000 v_efield v_Pz v_pe f_born file Pz.BaTiO3-E0.BaTiO3-sc333.${TEMP}.$L.${ITER}
fix aveP all ave/time 1 500 1000 v_efield v_Pz v_pe f_born file Pz.BaTiO3-E0.BaTiO3-sc333.340.$L.${ITER}
fix aveP all ave/time 1 500 1000 v_efield v_Pz v_pe f_born file Pz.BaTiO3-E0.BaTiO3-sc333.340.2.${ITER}
fix aveP all ave/time 1 500 1000 v_efield v_Pz v_pe f_born file Pz.BaTiO3-E0.BaTiO3-sc333.340.2.8

thermo_style custom step time temp press pe f_born v_efield v_Pz spcpu cpuremain

# dump 4a all custom 1000 dump.hyst.${MODEL}.${STRUCTURE}.${TEMP}.$L.${ITER}.bin id type xu yu zu fx fy fz
# dump_modify 4a sort id

fix nvt all nvt temp ${TEMP} ${TEMP} $(100*dt)
fix nvt all nvt temp 340 ${TEMP} $(100*dt)
fix nvt all nvt temp 340 340 $(100*dt)
fix nvt all nvt temp 340 340 0.2000000000000000111

run $(v_PERIOD)
run 100000
WARNING: non-constant efield is experimental, strongly distrust scalar/vector output (src/fix_addbornforce.cpp:193)
Per MPI rank memory allocation (min/avg/max) = 3.516 | 3.516 | 3.516 Mbytes
   Step          Time           Temp          Press          PotEng         f_born        v_efield         v_Pz          S/CPU         CPULeft    
         0   0              348.80264      131430.13     -807631.25     -297.70041      0.3636         0.055989048    0              0            
        10   0.02           355.23541      133340.38     -807628.1      -301.82834      0.36359993     0.056765405    29.835908      3351.349     
        20   0.04           345.08971      139062.82     -807621.94     -306.61655      0.36359971     0.057665967    29.888704      3348.0458    
        30   0.06           339.96514      140311.5      -807618.43     -309.53117      0.36359935     0.058214182    29.929814      3345.1896    
        40   0.08           339.05265      141770.63     -807616.65     -311.15948      0.36359885     0.058520503    29.875284      3345.1187    
        50   0.1            344.02522      136162.77     -807622.61     -306.03106      0.36359821     0.057556092    29.902237      3344.3391    
        60   0.12           351.6783       135282.71     -807627.25     -302.33718      0.36359742     0.056861496    29.846544      3344.7474    
        70   0.14           345.26088      129958.39     -807632.26     -296.70853      0.36359649     0.055803042    29.84232       3345.0109    
        80   0.16           339.28754      131828.74     -807630.26     -297.87694      0.36359541     0.056022954    29.877241      3344.6361    
        90   0.18           342.69059      130092.28     -807631.66     -297.19354      0.36359419     0.055894612    29.972964      3343.0822    
       100   0.2            345.36458      135547.63     -807626.66     -302.68791      0.36359283     0.056928177    29.922165      3342.3395    
       110   0.22           330.29511      136191.87     -807621.63     -305.9449       0.36359132     0.057540977    29.917888      3341.714     
       120   0.24           348.62602      141910.52     -807620.6      -309.60424      0.36358968     0.058229475    29.905966      3341.2484    
       130   0.26           341.69012      138149.41     -807621.38     -308.24371      0.36358788     0.057973877    29.907727      3340.7872    
       140   0.28           346.06189      138954.59     -807623.68     -306.61391      0.36358595     0.057667654    29.910045      3340.3262    
       150   0.3            341.86017      132166.01     -807629.88     -300.25132      0.36358387     0.056471307    29.941186      3339.65      
       160   0.32           338.03233      133197.39     -807629.85     -299.92623      0.36358165     0.056410509    29.92476       3339.1316    
       170   0.34           327.76865      129320.33     -807631.68     -297.11874      0.36357928     0.055882835    29.936191      3338.5596    
       180   0.36           333.05084      133702.48     -807629.24     -300.50876      0.36357677     0.05652083     30.009211      3337.5633    
       190   0.38           326.49522      133453.53     -807627.44     -301.81597      0.36357412     0.056767108    29.949466      3336.9858    
       200   0.4            324.39963      140279.49     -807620.68     -308.39438      0.36357132     0.058004857    29.87592       3336.8431    
       210   0.42           332.42462      137614.43     -807622.02     -308.57849      0.36356838     0.058039954    29.88319       3336.6433    
       220   0.44           339.31797      139713.75     -807622.64     -308.94357      0.3635653      0.058109115    29.91867       3336.2513    
       230   0.46           340.37045      133716.49     -807629.14     -302.84777      0.36356207     0.056963061    29.931698      3335.8015    
       240   0.48           325.31769      135050.44     -807627.69     -302.23458      0.3635587      0.056848253    29.936554      3335.3382    
       250   0.5            339.76907      129589.53     -807632.99     -299.12253      0.36355519     0.056263442    30.000345      3334.6023    
       260   0.52           320.93957      132044.56     -807631.7      -297.75345      0.36355153     0.056006488    29.941663      3334.1479    
       270   0.54           322.35149      131189.82     -807631.79     -297.97727      0.36354773     0.056049174    29.860798      3334.0366    
       280   0.56           327.61442      135446.45     -807625.44     -305.05876      0.36354379     0.057381817    29.862567      3333.902     
       290   0.58           331.16507      138272.05     -807623.39     -307.65779      0.3635397      0.057871347    29.888904      3333.6522    
       300   0.6            331.8823       139967.61     -807623.07     -307.93301      0.36353547     0.05792379     29.876419      3333.4433    
       310   0.62           329.20866      138549.92     -807623.76     -306.77407      0.3635311      0.057706482    29.907009      3333.1161    
       320   0.64           341.49561      134994.94     -807627.27     -304.90758      0.36352658     0.057356094    29.963668      3332.5916    
       330   0.66           337.64461      132645.4      -807630.05     -301.41734      0.36352192     0.056700272    29.936335      3332.1708    
       340   0.68           329.5442       130109.41     -807633.9      -296.3496       0.36351712     0.055747705    29.948927      3331.7137    
       350   0.7            329.6449       131181.21     -807632.61     -297.4863       0.36351217     0.055962296    29.90729       3331.3962    
       360   0.72           329.48327      132136.78     -807629.89     -300.18347      0.36350708     0.056470473    29.882897      3331.1529    
       370   0.74           337.3544       137081.38     -807625.14     -305.87638      0.36350185     0.057542249    29.837606      3331.0418    
       380   0.76           327.64013      136828.6      -807623.6      -306.03514      0.36349647     0.057572967    29.832446      3330.9341    
       390   0.78           328.14608      140811.42     -807621.1      -308.38464      0.36349095     0.058015848    29.812867      3330.8709    
       400   0.8            334.5069       136153.19     -807623.97     -306.44533      0.36348529     0.057651908    29.887289      3330.5861    
       410   0.82           344.66948      137315.92     -807625.49     -306.01728      0.36347948     0.057572299    29.922484      3330.2033    
       420   0.84           333.48874      130344.39     -807631.5      -298.43862      0.36347353     0.056147414    29.87319       3329.9535    
       430   0.86           334.19466      132220.53     -807632.66     -297.11645      0.36346744     0.055899602    29.872735      3329.701     
       440   0.88           339.33724      128735.31     -807633.63     -296.9021       0.3634612      0.055860232    29.916576      3329.3337    
       450   0.9            338.45858      135882.09     -807626.36     -303.81948      0.36345482     0.057162696    29.922803      3328.9525    
       460   0.92           342.19447      134166.41     -807626.92     -303.72905      0.3634483      0.057146707    29.976158      3328.4447    
       470   0.94           340.46006      139894.11     -807622.79     -307.40173      0.36344163     0.057838784    29.956779      3327.9899    
       480   0.96           338.91795      137894.76     -807622.05     -307.94385      0.36343482     0.057941871    30.013369      3327.4096    
       490   0.98           336.98143      139647.27     -807620.07     -309.44125      0.36342786     0.058224732    29.936323      3327.0138    
       500   1              343.27453      131857.97     -807629.44     -300.87776      0.36342077     0.056614524    29.964904      3326.557     
       510   1.02           332.02252      133415.26     -807629.67     -9562.9153      0.36341353     0.056232418    29.832564      3326.3936    
       520   1.04           323.31441      130179.94     -807629.86     -9517.5855      0.36340614     0.055967004    29.795224      3326.3041    
       530   1.06           348.59448      132115.66     -807630.18     -9612.4246      0.36339862     0.056525865    29.800433      3326.1942    
       540   1.08           333.25826      133069.75     -807628.07     -9610.2214      0.36339095     0.056514102    29.789496      3326.0988    
       550   1.1            346.42494      137610.61     -807624.83     -9764.8246      0.36338313     0.0574245      29.744975      3326.0854    
       560   1.12           348.41109      138695.69     -807622.32     -9852.9204      0.36337518     0.057943838    29.755663      3326.039     
       570   1.14           341.83999      140056.16     -807619.46     -9911.2269      0.36336707     0.058288031    29.760265      3325.9735    
       580   1.16           353.49088      135831.36     -807625.84     -9754.6062      0.36335883     0.057368245    29.77079       3325.8782    
       590   1.18           337.22563      134813.68     -807627.1      -9638.266       0.36335044     0.056685339    29.76907       3325.7781    
       600   1.2            342.91987      132304.78     -807629.83     -9575.1235      0.36334191     0.056315303    29.797115      3325.6177    
       610   1.22           339.16596      132098.17     -807629.26     -9573.3041      0.36333324     0.056305946    29.796352      3325.4529    
       620   1.24           343.29573      131939.13     -807630.19     -9559.4468      0.36332442     0.056225808    29.788703      3325.2965    
       630   1.26           333.73019      135428.12     -807626.13     -9644.4777      0.36331546     0.056727333    29.868884      3324.9922    
       640   1.28           349.30778      137159.86     -807623.95     -9782.1123      0.36330636     0.057538321    29.827667      3324.7589    
       650   1.3            346.47964      138723.25     -807620.79     -9867.9494      0.36329711     0.058044691    29.880945      3324.431     
       660   1.32           342.83652      138409.06     -807621.32     -9831.7582      0.36328772     0.057833304    29.842302      3324.1681    
       670   1.34           351.36         136831.95     -807626.92     -9687.1911      0.36327819     0.056984413    29.811297      3323.9547    
       680   1.36           352.44971      134583.39     -807628.3      -9645.6482      0.36326851     0.05674155     29.824548      3323.716     
       690   1.38           344.92848      131885.9      -807628.33     -9612.0802      0.36325869     0.056545612    29.796991      3323.5191    
       700   1.4            337.73462      131489.54     -807629.49     -9538.2305      0.36324873     0.05611271     29.802306      3323.3099    
       710   1.42           340.0768       132423.39     -807629.45     -9548.3245      0.36323863     0.056173655    29.770753      3323.1467    
       720   1.44           343.06505      136034.73     -807625.22     -9697.6407      0.36322838     0.057053706    29.802083      3322.93      
       730   1.46           346.31679      137265.88     -807621.8      -9823.1858      0.36321798     0.057793974    29.838558      3322.6543    
       740   1.48           344.92128      139394.69     -807621.8      -9813.2855      0.36320745     0.057737401    29.834473      3322.3832    
       750   1.5            355.23765      136958.12     -807625.52     -9741.1438      0.36319677     0.057314633    29.829656      3322.1175    
       760   1.52           348.92221      136633.22     -807624.59     -9742.4442      0.36318595     0.057323993    29.839851      3321.835     
       770   1.54           341.65932      132879.99     -807627.52     -9619.3919      0.36317498     0.056601669    29.821573      3321.5776    
       780   1.56           340.73401      132854.05     -807629.2      -9559.5945      0.36316387     0.056251535    29.807232      3321.3388    
       790   1.58           340.85358      130658.78     -807631.92     -9477.2026      0.36315262     0.055768443    29.820877      3321.0782    
       800   1.6            341.49229      135730.36     -807626.89     -9643.2344      0.36314122     0.056747236    29.841854      3320.7866    
       810   1.62           342.70275      135835.13     -807624.79     -9720.5446      0.36312968     0.057203998    29.822442      3320.5206    
       820   1.64           354.50453      138457.89     -807624.36     -9787.2097      0.363118       0.057598166    29.808312      3320.272     
       830   1.66           343.70275      138099.08     -807623.67     -9770.2242      0.36310618     0.057500078    29.771935      3320.0704    
       840   1.68           343.59574      139337.31     -807622.51     -9811.5198      0.36309421     0.057745015    29.796123      3319.8334    
       850   1.7            330.10075      135335.23     -807623.91     -9713.6608      0.3630821      0.05717098     29.819387      3319.5636    
       860   1.72           343.04287      133088.97     -807629.54     -9596.446       0.36306984     0.056483004    29.776467      3319.3479    
       870   1.74           333.73962      131508.9      -807630.81     -9521.2538      0.36305745     0.05604235     29.802356      3319.0963    
       880   1.76           339.72144      133515.51     -807629.35     -9600.6091      0.3630449      0.056511389    29.828444      3318.8096    
       890   1.78           337.38949      133701.14     -807627.55     -9655.6804      0.36303222     0.056837537    29.866142      3318.4748    
       900   1.8            333.83866      136018.66     -807625.78     -9701.6397      0.36301939     0.057110091    29.919989      3318.0736    
       910   1.82           343.70269      136262.32     -807626.74     -9721.0565      0.36300642     0.057226436    29.912676      3317.6827    
       920   1.84           339.74118      138320.7      -807622.93     -9831.2749      0.36299331     0.057877366    29.876294      3317.337     
       930   1.86           336.22012      136099.72     -807624.21     -9781.0386      0.36298005     0.057583725    29.837438      3317.0379    
       940   1.88           341.49019      135347.22     -807628.86     -9658.5763      0.36296665     0.056864854    29.8389        3316.7364    
       950   1.9            337.85171      131915.91     -807631.65     -9557.5904      0.36295311     0.0562724      29.849804      3316.4213    
       960   1.92           327.31454      133246.27     -807628.65     -9608.7151      0.36293942     0.056575541    29.876257      3316.0753    
       970   1.94           335.4352       131858.43     -807630.42     -9593.4734      0.36292559     0.056487951    29.894065      3315.709     
       980   1.96           334.05353      134403.14     -807628.88     -9636.2749      0.36291162     0.056742158    29.931022      3315.3017    
       990   1.98           329.83207      135388.03     -807626.73     -9689.2474      0.3628975      0.0570563      29.858382      3314.9772    
      1000   2              332.05216      137419.55     -807622.44     -9838.1349      0.36288325     0.057935318    29.659361      3314.875     
      1010   2.02           336.32255      137961.55     -807623.32     -307.17545      0.36286884     0.057887439    29.823275      3314.5865    
      1020   2.04           335.09891      136356.75     -807626.62     -303.56245      0.3628543      0.057208861    29.835312      3314.2839    
      1030   2.06           334.18224      132857.91     -807629.38     -300.68008      0.36283961     0.056667947    29.87741       3313.9354    
      1040   2.08           326.81713      132886.6      -807628.5      -300.49727      0.36282478     0.056635809    29.898285      3313.5649    
      1050   2.1            333.4539       132024.68     -807630.22     -299.50347      0.3628098      0.056450835    29.917639      3313.1746    
      1060   2.12           337.67992      131809.24     -807631.87     -298.3317       0.36279469     0.05623232     29.960151      3312.7412    
      1070   2.14           343.06068      134693.6      -807629.89     -300.92934      0.36277943     0.056724333    29.913707      3312.3575    
      1080   2.16           330.62025      135674.97     -807623.95     -305.08118      0.36276402     0.057509385    29.904479      3311.9842    
      1090   2.18           334.58565      139025.41     -807622.31     -306.97981      0.36274848     0.057869766    29.907596      3311.6085    
      1100   2.2            330.58238      135349.73     -807626.48     -302.10438      0.36273279     0.056953147    29.873021      3311.2682    
      1110   2.22           346.04642      137302.22     -807625.55     -304.81442      0.36271695     0.057466555    29.897199      3310.904     
      1120   2.24           328.79167      133195.6      -807626.46     -301.37312      0.36270098     0.056820272    29.895994      3310.5415    
      1130   2.26           336.60286      136320.07     -807626.69     -301.74234      0.36268486     0.056892411    29.981073      3310.0964    
      1140   2.28           333.62574      130232.3      -807632.64     -295.18542      0.3626686      0.055658624    29.958396      3309.6752    
      1150   2.3            346.92554      134921.8      -807628.04     -301.16746      0.36265219     0.056789135    29.928958      3309.2837    
      1160   2.32           345.28328      132514.07     -807626.34     -302.51323      0.36263564     0.057045502    29.92446       3308.8975    
      1170   2.34           344.77604      139283.96     -807623.29     -304.9967       0.36261895     0.057516461    29.883752      3308.5507    
      1180   2.36           349.18431      135131.57     -807627.52     -301.24288      0.36260212     0.056811201    29.855425      3308.2306    
      1190   2.38           341.52978      139849.81     -807621.07     -306.26142      0.36258514     0.057760348    29.899902      3307.8689    
      1200   2.4            340.95133      134891.24     -807623.23     -303.99426      0.36256802     0.057335473    29.910689      3307.4978    
      1210   2.42           346.68122      136915.71     -807625.99     -301.68261      0.36255076     0.05690219     29.899765      3307.1372    
      1220   2.44           338.81854      130949.82     -807629.57     -296.97079      0.36253335     0.056016154    29.883614      3306.7917    
      1230   2.46           350.84194      133681.6      -807628.46     -299.59727      0.3625158      0.056514309    29.911832      3306.421     
      1240   2.48           341.24395      133701.02     -807626.42     -300.33536      0.36249811     0.056656304    29.914132      3306.0488    
      1250   2.5            352.63552      135984.85     -807626        -302.14466      0.36248028     0.057000421    29.832801      3305.7493    
      1260   2.52           354.35588      135748.21     -807626.62     -301.74237      0.3624623      0.056927351    29.823908      3305.4569    
      1270   2.54           350.77851      138497.13     -807622.5      -305.35933      0.36244418     0.057612615    29.857249      3305.1349    
      1280   2.56           342.3859       138347.99     -807620.7      -306.10096      0.36242592     0.057755449    29.886116      3304.7877    
      1290   2.58           341.04641      136080        -807624.33     -302.27095      0.36240751     0.057035695    29.916626      3304.4146    
      1300   2.6            349.14895      134385.32     -807628.72     -298.99674      0.36238896     0.05642077     29.920152      3304.039     
      1310   2.62           342.94091      132034.45     -807628.99     -297.93001      0.36237027     0.056222378    29.910239      3303.6725    
      1320   2.64           358.61366      133492.64     -807628.59     -300.58924      0.36235143     0.056727149    29.940824      3303.2809    
      1330   2.66           347.95161      132586.33     -807628.74     -299.06277      0.36233245     0.056442032    29.929558      3302.8995    
      1340   2.68           349.36177      136180.9      -807627.13     -300.90777      0.36231333     0.056793234    29.85865       3302.5772    
      1350   2.7            338.6744       136084.77     -807623.5      -303.26276      0.36229407     0.057240758    29.864485      3302.25      
      1360   2.72           348.5822       139988.41     -807620.18     -307.9588       0.36227466     0.058130249    29.849966      3301.9345    
      1370   2.74           348.26649      136008.4      -807624.46     -303.7828       0.36225511     0.057345082    29.936874      3301.5486    
      1380   2.76           344.6476       136869.61     -807626.17     -301.56468      0.36223542     0.056929461    29.92583       3301.1723    
      1390   2.78           341.73812      132592.15     -807628.14     -299.42833      0.36221558     0.056529257    29.926668      3300.7959    
      1400   2.8            341.46892      134366.13     -807627.11     -300.45371      0.3621956      0.056725968    29.888979      3300.4499    
      1410   2.82           345.28187      130858.26     -807631.46     -296.75476      0.36217548     0.056030715    29.826574      3300.1529    
      1420   2.84           347.60881      133364.86     -807630.02     -298.49093      0.36215522     0.056361678    29.861707      3299.828     
      1430   2.86           347.32452      134047.16     -807628.05     -300.75573      0.36213481     0.056792522    29.879368      3299.4894    
      1440   2.88           336.47084      139606.22     -807620.25     -307.02556      0.36211426     0.05797976     29.89087       3299.142     
      1450   2.9            352.4224       136415.07     -807625.82     -303.83459      0.36209357     0.057380446    29.923822      3298.7697    
      1460   2.92           342.36315      137727.65     -807624.83     -303.39265      0.36207273     0.05730028     29.948113      3298.3796    
      1470   2.94           344.29917      133995.58     -807626.69     -301.96584      0.36205176     0.057034111    29.971         3297.9732    
      1480   2.96           339.65365      134731.45     -807625.63     -302.44036      0.36203064     0.057127069    29.90255       3297.6187    
      1490   2.98           329.32124      132161.35     -807629.14     -297.54169      0.36200937     0.056205074    29.791417      3297.3469    
      1500   3              336.28558      132654.59     -807632.1      -295.53358      0.36198796     0.055829048    29.827524      3297.0475    
      1510   3.02           345.94465      133083.45     -807629.26     -9592.2192      0.36196642     0.056630234    29.825598      3296.7491    
      1520   3.04           341.19803      135233.58     -807624.88     -9714.7249      0.36194472     0.057356917    29.839204      3296.4403    
      1530   3.06           350.78042      136887.18     -807625.87     -9723.7067      0.36192289     0.057413409    29.803354      3296.1571    
      1540   3.08           332.81943      137052.39     -807624.49     -9691.2363      0.36190091     0.057225164    29.824424      3295.8581    
      1550   3.1            343.8378       138412.36     -807623.78     -9762.473       0.36187879     0.057649329    29.841897      3295.5461    
      1560   3.12           338.45832      134887.34     -807624.93     -9703.6752      0.36185653     0.057305641    29.826064      3295.2451    
      1570   3.14           343.08844      134053.54     -807628.61     -9602.0218      0.36183412     0.056708833    29.842239      3294.9322    
      1580   3.16           335.4377       130658.54     -807632.21     -9454.1583      0.36181157     0.055839042    29.848442      3294.6147    
      1590   3.18           337.46461      133619.61     -807628.7      -9574.2193      0.36178888     0.056551703    29.847017      3294.298     
      1600   3.2            329.12682      132530.09     -807626.59     -9606.7131      0.36176605     0.056747215    29.839167      3293.9865    
      1610   3.22           351.73539      136292.5      -807626.52     -9704.8759      0.36174307     0.057330708    29.855207      3293.6637    
      1620   3.24           349.0436       134832.7      -807627.91     -9650.9556      0.36171995     0.057015822    29.83083       3293.3573    
      1630   3.26           330.35204      140243.04     -807620.78     -9792.3079      0.36169669     0.057854622    29.835393      3293.0475    
      1640   3.28           330.90474      135753.19     -807623.11     -9722.528       0.36167329     0.057446068    29.829469      3292.7414    
      1650   3.3            342.2303       135647.69     -807626.61     -9655.1943      0.36164974     0.057051938    29.845045      3292.4245    
      1660   3.32           341.37009      130940.33     -807631.67     -9489.1401      0.36162605     0.056074407    29.842948      3292.1088    
      1670   3.34           338.33212      132973.17     -807628.98     -9558.4196      0.36160222     0.056487524    29.896331      3291.7576    
      1680   3.36           335.69933      130528.48     -807629.1      -9543.5034      0.36157824     0.056403114    29.85197       3291.4357    
      1690   3.38           346.36419      134471.37     -807628.89     -9593.5173      0.36155413     0.056702484    29.803181      3291.1455    
      1700   3.4            337.04163      135454.33     -807626.48     -9629.4615      0.36152987     0.056918751    29.814395      3290.8476    
      1710   3.42           348.57635      137377.14     -807624.18     -9751.5692      0.36150546     0.057644408    29.808039      3290.5533    
      1720   3.44           327.68834      137811.33     -807621.36     -9749.6306      0.36148092     0.057636861    29.832316      3290.2429    
      1730   3.46           346.65094      136566.59     -807625.86     -9687.1438      0.36145623     0.05727137     29.847801      3289.9223    
      1740   3.48           349.02229      132744.34     -807629.77     -9571.1323      0.3614314      0.056589386    29.926737      3289.5517    
      1750   3.5            354.77123      132845.69     -807631.25     -9547.6242      0.36140643     0.056454295    29.890876      3289.204     
      1760   3.52           337.58629      132465.08     -807629.32     -9532.4011      0.36138131     0.056368199    29.851006      3288.8814    
      1770   3.54           337.28412      132390.38     -807630.88     -9478.6854      0.36135605     0.056054478    29.85296       3288.5574    
      1780   3.56           343.06969      134447.12     -807629.11     -9561.1228      0.36133065     0.056545967    29.835094      3288.2444    
      1790   3.58           335.15201      135902.74     -807623.65     -9701.0917      0.36130511     0.05737782     29.84767       3287.9234    
      1800   3.6            332.78567      138590.01     -807621.37     -9760.3435      0.36127942     0.057732374    29.824685      3287.6163    
      1810   3.62           335.7194       137134.58     -807624.54     -9670.4426      0.3612536      0.0572047      29.818927      3287.3124    
      1820   3.64           351.42028      136774.71     -807625.57     -9702.8151      0.36122763     0.057400323    29.864772      3286.9804    
      1830   3.66           341.40744      132829.28     -807626.86     -9618.7927      0.36120151     0.056907373    29.857759      3286.6526    
      1840   3.68           341.16295      133734.81     -807628.4      -9565.0005      0.36117526     0.056593238    29.852331      3286.328     
      1850   3.7            330.73474      130791.81     -807630.67     -9444.963       0.36114886     0.055887097    29.8523        3286.0032    
      1860   3.72           342.25005      132409        -807630.33     -9505.2492      0.36112232     0.056247952    29.859478      3285.6741    
      1870   3.74           347.57915      132772.39     -807628.95     -9576.323       0.36109564     0.056672723    29.853196      3285.3487    
      1880   3.76           332.45445      137859.61     -807622.97     -9695.4291      0.36106881     0.057381857    29.843751      3285.0286    
      1890   3.78           336.2147       136730.17     -807624.9      -9649.8066      0.36104184     0.057116108    29.82699       3284.7182    
      1900   3.8            347.48351      137640.33     -807623.83     -9731.4021      0.36101474     0.057603388    29.77713       3284.4366    
      1910   3.82           337.543        136117.36     -807622.6      -9728.356       0.36098748     0.057589704    29.835971      3284.1203    
      1920   3.84           352.22394      134654.19     -807627.96     -9618.3677      0.36096009     0.05694292     29.835604      3283.804     
      1930   3.86           329.9416       132087.92     -807629.41     -9471.6874      0.36093255     0.056078817    29.841555      3283.4842    
      1940   3.88           337.93023      132959.98     -807630.71     -9464.2114      0.36090487     0.056038852    29.901076      3283.1305    
      1950   3.9            340.53974      132756.27     -807628.61     -9543.9446      0.36087705     0.056515319    29.904935      3282.7748    
      1960   3.92           344.60632      133426.36     -807627.55     -9592.5578      0.36084909     0.056807588    29.836506      3282.4577    
      1970   3.94           341.58206      136202.21     -807626.9      -9600.0673      0.36082098     0.056856488    29.87981       3282.1162    
      1980   3.96           330.73066      138475.41     -807622.2      -9701.5215      0.36079273     0.057461851    29.878083      3281.7757    
      1990   3.98           333.78786      137604.61     -807620.81     -9759.1782      0.36076434     0.057807899    29.842867      3281.4548    
      2000   4              349.68894      135852.52     -807626.15     -9657.3456      0.36073581     0.057209224    29.887544      3281.1092    
      2010   4.02           331.28793      134936.31     -807627.02     -298.28551      0.36070713     0.056549002    30.018541      3280.6925    
      2020   4.04           340.09765      133315.12     -807628.34     -298.12493      0.36067831     0.056523075    29.913126      3280.3336    
      2030   4.06           341.35892      132423.05     -807629.69     -296.96408      0.36064935     0.056307505    29.948902      3279.9556    
      2040   4.08           339.90115      133393.79     -807629.82     -296.60478      0.36062025     0.056243917    29.935522      3279.5853    
      2050   4.1            343.77578      134502        -807629.02     -297.86194      0.36059101     0.056486886    29.923491      3279.2217    
      2060   4.12           338.62672      135910.71     -807624.62     -301.49419      0.36056162     0.057180371    29.910839      3278.8651    
      2070   4.14           335.28815      137852.17     -807621.32     -304.35785      0.36053209     0.05772821     29.918414      3278.5048    
      2080   4.16           350.12156      137126.24     -807625.19     -302.52236      0.36050242     0.057384791    29.921853      3278.1428    
      2090   4.18           341.90809      136263.68     -807626.08     -300.36856      0.36047261     0.056980954    29.876182      3277.8051    
      2100   4.2            337.7167       133989.13     -807627.31     -298.54253      0.36044265     0.056639257    29.893372      3277.4584    
      2110   4.22           333.92543      132860.42     -807627.74     -297.5778       0.36041256     0.056460945    29.925179      3277.0954    
      2120   4.24           340.41659      131291.47     -807631.33     -294.78877      0.36038232     0.055936461    29.907621      3276.7417    
      2130   4.26           341.99391      132555.49     -807629.97     -296.34498      0.36035193     0.056236493    29.912282      3276.3857    
      2140   4.28           340.3487       133892.16     -807626.79     -299.30551      0.36032141     0.056803115    29.886993      3276.0429    
      2150   4.3            336.84998      137782.98     -807622.19     -303.33508      0.36029075     0.05757276     29.918587      3275.6842    
      2160   4.32           345.04464      137199.61     -807624.15     -302.50315      0.36025994     0.057419769    29.94429       3275.3126    
      2170   4.34           345.85594      137476.9      -807624.34     -302.36825      0.36022899     0.057399095    29.922888      3274.9521    
      2180   4.36           347.78866      135220.55     -807626.28     -300.72866      0.36019789     0.057092776    29.924414      3274.5912    
      2190   4.38           322.96345      135637.24     -807624.62     -298.87033      0.36016666     0.056744897    29.908637      3274.2383    
      2200   4.4            336.06944      131492.03     -807631.2      -294.15488      0.36013528     0.055854465    29.940139      3273.87      
      2210   4.42           347.26445      131122.48     -807631.73     -295.08454      0.36010377     0.056035894    29.914661      3273.5146    
      2220   4.44           338.05668      132147.53     -807628.25     -297.35016      0.36007211     0.056471096    29.838276      3273.197     
      2230   4.46           335.10487      135131.7      -807624.92     -300.25304      0.3600403      0.057027432    29.852068      3272.8725    
      2240   4.48           335.22632      136635.92     -807624.48     -300.70036      0.36000836     0.05711746     29.872776      3272.5378    
      2250   4.5            355.13668      137201.2      -807625.64     -302.31688      0.35997627     0.057429633    29.878935      3272.2001    
      2260   4.52           338.8069       137991.11     -807621.83     -303.88518      0.35994404     0.057732723    29.889539      3271.8572    
      2270   4.54           327.77292      136011.32     -807623.97     -300.22629      0.35991167     0.057042731    29.918899      3271.5004    
      2280   4.56           338.11622      132768.97     -807629.69     -295.88281      0.35987916     0.056222552    29.948374      3271.1296    
      2290   4.58           355.47545      130668.18     -807633.22     -294.7609       0.35984651     0.056014454    29.959591      3270.7538    
      2300   4.6            328.40575      132010.42     -807627.62     -296.61267      0.35981371     0.056371489    29.884018      3270.4142    
      2310   4.62           347.697        132559.16     -807630.09     -296.83445      0.35978077     0.056418804    29.883144      3270.0751    
      2320   4.64           339.53377      134867.72     -807627        -298.78523      0.35974769     0.056794806    29.915749      3269.7206    
      2330   4.66           345.84028      136189.91     -807624.7      -302.07906      0.35971447     0.05742622     29.91228       3269.368     
      2340   4.68           328.59888      138669.44     -807619.27     -305.1548       0.35968111     0.058016309    29.922476      3269.0107    
      2350   4.7            330.2571       137540.24     -807623.09     -301.56593      0.3596476      0.057339332    29.916361      3268.6565    
      2360   4.72           350.4468       134590.79     -807629.31     -298.14797      0.35961396     0.056694749    29.886868      3268.3162    
      2370   4.74           335.9199       132299.47     -807629.47     -295.97122      0.35958017     0.056286114    29.857334      3267.9894    
      2380   4.76           338.86852      132263.91     -807629.44     -296.45277      0.35954624     0.056383013    29.849192      3267.6664    
      2390   4.78           340.54331      130380.26     -807632.13     -294.01108      0.35951216     0.055923923    29.91378       3267.3138    
      2400   4.8            337.84781      132884.31     -807630.1      -295.69351      0.35947795     0.056249292    29.906438      3266.9646    
      2410   4.82           327.08639      135268.86     -807624.99     -299.45363      0.35944359     0.056970017    29.921575      3266.6087    
      2420   4.84           338.23707      138805.75     -807621.84     -304.14788      0.35940909     0.057868636    29.942136      3266.2437    
      2430   4.86           323.2165       137508.12     -807621.55     -302.37193      0.35937446     0.05753628     30.04543       3265.8328    
      2440   4.88           343.44197      136926.99     -807626.64     -300.05118      0.35933967     0.057100208    29.965886      3265.458     
      2450   4.9            331.21907      134556.12     -807626.48     -298.60009      0.35930475     0.056829586    29.894437      3265.1152    
      2460   4.92           340.62056      133515.73     -807628.56     -297.78789      0.35926969     0.05668054     29.917955      3264.7621    
      2470   4.94           327.72911      130371.44     -807631.48     -293.12086      0.35923448     0.055797691    29.926359      3264.4054    
      2480   4.96           330.30453      130508.71     -807631.65     -293.30221      0.35919913     0.055837707    29.917711      3264.0527    
      2490   4.98           329.65055      133203.17     -807628.19     -296.74594      0.35916364     0.056498892    29.87383       3263.7194    
      2500   5              337.89022      135564.88     -807624.45     -301.63878      0.35912801     0.057436162    29.869878      3263.3878    
[...]
     98740   197.48         343.04448      133940.36     -807627.73     -9667.8828      0.36236891     0.057013537    28.60749       42.452094    
     98750   197.5          349.14651      136052.9      -807627.66     -9696.4549      0.36238762     0.057179081    28.605021      42.115333    
     98760   197.52         326.6475       134215.89     -807626.37     -9644.6315      0.36240618     0.056870571    28.643018      41.778563    
     98770   197.54         329.29922      135941.65     -807625.66     -9680.841       0.36242459     0.057081183    28.61844       41.441795    
     98780   197.56         336.85771      133681.33     -807627.67     -9653.237       0.36244287     0.056915552    28.601587      41.105027    
     98790   197.58         333.2576       135122.06     -807627.6      -9638.7775      0.362461       0.056827456    28.624396      40.768253    
     98800   197.6          327.34742      134397.38     -807626.97     -9635.6931      0.36247899     0.056806452    28.643018      40.431473    
     98810   197.62         328.04477      135121.66     -807625.59     -9684.9934      0.36249683     0.057094287    28.670605      40.094687    
     98820   197.64         343.5165       133948.64     -807627.87     -9682.6321      0.36251453     0.057077579    28.656025      39.7579      
     98830   197.66         339.07249      135394.9      -807627.66     -9670.0898      0.36253209     0.057000884    28.700558      39.421105    
     98840   197.68         333.83566      135239.15     -807626.57     -9681.3897      0.36254951     0.05706475     28.677324      39.084311    
     98850   197.7          342.5286       134769        -807628.11     -9670.7499      0.36256678     0.05699932     28.68254       38.747513    
     98860   197.72         330.33763      135701.06     -807627.27     -9642.5834      0.36258391     0.056830622    28.682126      38.410714    
     98870   197.74         347.24491      133675.48     -807629.82     -9634.9733      0.3626009      0.05678311     28.668785      38.073913    
     98880   197.76         336.08023      134789.93     -807627.72     -9649.0869      0.36261774     0.056863646    28.699695      37.737106    
     98890   197.78         327.09481      135180.07     -807626.16     -9656.0848      0.36263445     0.056902265    28.686631      37.400299    
     98900   197.8          341.52288      136154.33     -807627.1      -9684.8241      0.362651       0.057069017    28.583995      37.063502    
     98910   197.82         335.98656      134926.14     -807626.69     -9668.7804      0.36266742     0.056971899    28.625815      36.726698    
     98920   197.84         339.51414      136242.93     -807625.15     -9724.9271      0.36268369     0.057300164    28.646124      36.389889    
     98930   197.86         340.03062      134536.77     -807627        -9663.464       0.36269982     0.056935486    28.672046      36.053073    
     98940   197.88         338.45104      136608.12     -807625.59     -9691.5468      0.36271581     0.057098429    28.637942      35.71626     
     98950   197.9          347.73051      134208.01     -807628.78     -9627.5721      0.36273165     0.05671904     28.631803      35.379444    
     98960   197.92         347.05759      136534.56     -807626.61     -9684.5112      0.36274735     0.057052016    28.668332      35.042622    
     98970   197.94         329.86037      135748.55     -807625.42     -9639.1212      0.36276291     0.056782186    28.698275      34.705794    
     98980   197.96         346.13139      135784.89     -807627.02     -9651.1232      0.36277832     0.056850472    28.695514      34.368963    
     98990   197.98         337.25308      135513.34     -807625.56     -9655.3082      0.36279359     0.05687273     28.67397       34.032133    
     99000   198            344.26992      136821.4      -807624.21     -9721.8945      0.36280872     0.057262556    28.639832      33.695304    
     99010   198.02         350.73498      134760.36     -807626.46     -302.3128       0.3628237      0.056978157    28.698211      33.358466    
     99020   198.04         340.99154      136802.13     -807625.21     -302.01985      0.36283855     0.056920615    28.718853      33.021623    
     99030   198.06         357.83314      134878.43     -807627.25     -302.20931      0.36285324     0.056954016    28.71181       32.684779    
     99040   198.08         350.3736       135511.86     -807625.58     -302.74424      0.3628678      0.057052539    28.66039       32.347938    
     99050   198.1          357.62273      135339.09     -807627.55     -301.70876      0.36288221     0.056855143    28.652716      32.011096    
     99060   198.12         343.56398      135994.95     -807626.14     -301.05033      0.36289648     0.056728835    28.701674      31.674246    
     99070   198.14         339.60519      134738.53     -807625.8      -300.85369      0.36291061     0.056689576    28.748255      31.337388    
     99080   198.16         351.58906      135885.31     -807625.09     -303.12817      0.36292459     0.057115953    28.689143      31.000535    
     99090   198.18         340.38581      135800.06     -807624.47     -302.22971      0.36293843     0.056944491    28.711931      30.663676    
     99100   198.2          347.35759      136037.63     -807624.58     -303.03344      0.36295213     0.057093772    28.692943      30.326818    
     99110   198.22         350.9993       136294.02     -807625.13     -303.04655      0.36296568     0.057094109    28.735608      29.989952    
     99120   198.24         344.1604       136635.93     -807623.07     -304.24823      0.36297909     0.057318388    28.694525      29.653089    
     99130   198.26         352.19996      135999.36     -807625.52     -302.88626      0.36299236     0.057059717    28.685896      29.316224    
     99140   198.28         344.27032      134514.97     -807625.84     -301.65721      0.36300548     0.056826126    28.667327      28.979359    
     99150   198.3          344.80907      134676.54     -807625.75     -301.90473      0.36301846     0.056870719    28.707383      28.642487    
     99160   198.32         342.94106      133537.21     -807627.22     -300.4055       0.3630313      0.056586304    28.740661      28.30561     
     99170   198.34         342.67493      135697.06     -807624.92     -302.77333      0.36304399     0.057030328    28.729139      27.968731    
     99180   198.36         348.7839       134458.76     -807627.4      -301.43054      0.36305655     0.05677544     28.69797       27.631853    
     99190   198.38         346.27539      137763.19     -807624.05     -304.63253      0.36306895     0.057376583    28.714879      27.294972    
     99200   198.4          342.15626      135449.77     -807624.83     -303.63403      0.36308122     0.057186587    28.730153      26.958086    
     99210   198.42         340.98112      138228.92     -807623.2      -305.26696      0.36309334     0.057492213    28.798913      26.621192    
     99220   198.44         344.40532      134953.82     -807627.64     -301.63062      0.36310532     0.056805493    28.749323      26.2843      
     99230   198.46         335.17251      137550.89     -807624.95     -303.18469      0.36311715     0.057096308    28.736156      25.947407    
     99240   198.48         341.36276      131606.98     -807628.79     -300.61701      0.36312885     0.056610934    28.711361      25.610515    
     99250   198.5          341.59248      135016.64     -807626.57     -302.89688      0.3631404      0.057038455    28.753745      25.273616    
     99260   198.52         343.07409      132377.61     -807630.28     -299.82153      0.3631518      0.056457563    28.744723      24.936716    
     99270   198.54         327.71435      138403.25     -807623.66     -304.43174      0.36316306     0.057323906    28.726349      24.599815    
     99280   198.56         336.97265      133643.48     -807627.05     -302.66634      0.36317418     0.056989741    28.738809      24.262911    
     99290   198.58         349.76383      137964.87     -807626.05     -305.47304      0.36318516     0.057516482    28.79772       23.925999    
     99300   198.6          316.77525      134204.49     -807624.82     -302.47831      0.36319599     0.056950916    28.770766      23.589088    
     99310   198.62         335.00931      137377.69     -807625.68     -304.11678      0.36320668     0.057257723    28.720984      23.252179    
     99320   198.64         332.28118      133194.86     -807628.5      -301.14302      0.36321723     0.056696191    28.7183        22.915267    
     99330   198.66         347.33378      134958.36     -807629.64     -302.05172      0.36322763     0.056865643    28.719008      22.578354    
     99340   198.68         321.28431      132933.17     -807627.96     -300.30965      0.36323789     0.056536076    28.665009      22.241442    
     99350   198.7          339.69104      135836.61     -807627.93     -302.86837      0.36324801     0.057016191    28.695307      21.904526    
     99360   198.72         325.32306      134411.65     -807625.66     -303.2658       0.36325798     0.057089441    28.718023      21.567606    
     99370   198.74         339.41664      136831.17     -807626.01     -304.80516      0.36326781     0.057377671    28.709219      21.230683    
     99380   198.76         339.56123      136786.27     -807626.03     -304.82314      0.3632775      0.057379525    28.635737      20.893765    
     99390   198.78         334.89183      135748.98     -807625.36     -304.84489      0.36328704     0.057382112    28.63162       20.556844    
     99400   198.8          334.91985      135990.07     -807626.18     -303.97189      0.36329644     0.057216303    28.631854      20.21992     
     99410   198.82         336.55936      132922.31     -807628.85     -301.51015      0.3633057      0.056751487    28.698723      19.88299     
     99420   198.84         328.81154      135076.71     -807627.14     -302.03498      0.36331481     0.056848846    28.662312      19.546059    
     99430   198.86         329.97439      132335.52     -807628        -301.34468      0.36332378     0.056717518    28.667815      19.209126    
     99440   198.88         342.11418      135877.29     -807627.09     -303.75023      0.36333261     0.05716889     28.733907      18.872186    
     99450   198.9          328.59608      133354.21     -807627.6      -301.34183      0.36334129     0.056714248    28.731416      18.535244    
     99460   198.92         345.2596       138070.7      -807625.79     -305.22954      0.36334983     0.057444588    28.732944      18.198299    
     99470   198.94         343.77472      134063.07     -807627.33     -303.54844      0.36335823     0.057126881    28.753699      17.861351    
     99480   198.96         349.29661      138070.53     -807625.36     -305.94368      0.36336648     0.057576351    28.751453      17.524401    
     99490   198.98         328.49848      133216.01     -807627.12     -301.28621      0.3633746      0.056698584    28.734956      17.187449    
     99500   199            333.83188      137586.54     -807625.94     -302.9252       0.36338256     0.057005772    28.699241      16.850498    
     99510   199.02         340.03423      131830.74     -807629.27     -9615.5884      0.36339039     0.05654575     28.618806      16.513549    
     99520   199.04         341.63469      137384.17     -807625.43     -9733.3779      0.36339807     0.057237217    28.639695      16.176597    
     99530   199.06         337.37548      133093.7      -807628.59     -9613.9784      0.3634056      0.056533915    28.657         15.839641    
     99540   199.08         345.12407      138639.59     -807624.86     -9756.8783      0.363413       0.057373054    28.696129      15.50268     
     99550   199.1          341.73487      133572.22     -807625.67     -9718.0948      0.36342025     0.057143857    28.663677      15.165719    
     99560   199.12         344.42245      138974.92     -807623.53     -9787.3905      0.36342736     0.0575502      28.711194      14.828753    
     99570   199.14         327.14989      134236.89     -807625.45     -9650.1279      0.36343432     0.056742004    28.680385      14.491786    
     99580   199.16         341.12974      136403.24     -807624.34     -9738.0707      0.36344114     0.057258026    28.656369      14.154818    
     99590   199.18         335.9495       132315.37     -807626.48     -9646.5019      0.36344782     0.056718577    28.651053      13.817848    
     99600   199.2          336.90505      135229.52     -807625.79     -9665.3522      0.36345435     0.05682839     28.639929      13.480876    
     99610   199.22         356.67474      133085.56     -807630.11     -9613.5038      0.36346074     0.056522548    28.664177      13.143901    
     99620   199.24         350.80109      136224.44     -807626.02     -9713.8712      0.36346699     0.057111676    28.629959      12.806924    
     99630   199.26         352.85955      135871.48     -807624.58     -9768.4809      0.3634731      0.057431784    28.606856      12.469946    
     99640   199.28         357.97604      137070.91     -807626.07     -9740.5021      0.36347906     0.057266349    28.633893      12.132965    
     99650   199.3          341.12168      137101.11     -807624.46     -9716.7249      0.36348487     0.057125644    28.605141      11.795982    
     99660   199.32         340.67629      136329.14     -807623.43     -9748.8646      0.36349055     0.057313702    28.581439      11.458998    
     99670   199.34         337.01559      136218.2      -807623.32     -9734.3494      0.36349608     0.057227496    28.579893      11.122011    
     99680   199.36         339.74773      134091.45     -807627.66     -9607.2698      0.36350147     0.056479568    28.573163      10.785022    
     99690   199.38         342.01337      134035.74     -807628.08     -9603.4488      0.36350671     0.05645629     28.587773      10.44803     
     99700   199.4          345.9584       133181.73     -807626.43     -9677.0747      0.36351181     0.05688832     28.661772      10.111032    
     99710   199.42         356.68248      135589.55     -807625.93     -9739.5712      0.36351677     0.057254935    28.646072      9.7740331    
     99720   199.44         353.91156      134024.94     -807627.15     -9690.8202      0.36352158     0.056967594    28.61796       9.4370323    
     99730   199.46         349.66392      137879.66     -807623.94     -9774.0863      0.36352625     0.057456336    28.630732      9.1000286    
     99740   199.48         344.96249      136140.73     -807623.54     -9771.3521      0.36353078     0.057439548    28.667281      8.7630212    
     99750   199.5          342.44904      136969.85     -807622.88     -9781.3543      0.36353516     0.057497652    28.617245      8.426013     
     99760   199.52         341.20514      133174.17     -807627.86     -9618.9763      0.3635394      0.056542487    28.565262      8.0890038    
     99770   199.54         343.86925      135037.09     -807627.21     -9648.6708      0.3635435      0.056716398    28.579448      7.7519917    
     99780   199.56         336.06841      132646.36     -807626.13     -9654.9691      0.36354745     0.056752803    28.611818      7.414976     
     99790   199.58         345.65632      135359.02     -807625.68     -9709.7897      0.36355126     0.057074446    28.619859      7.0779577    
     99800   199.6          348.70006      133533.09     -807628.44     -9637.5597      0.36355493     0.056649304    28.622622      6.7409368    
     99810   199.62         336.22429      137883.75     -807623.37     -9744.2198      0.36355845     0.057275695    28.571207      6.4039146    
     99820   199.64         344.40823      136789.4      -807624.43     -9752.2442      0.36356183     0.057322328    28.59836       6.0668892    
     99830   199.66         352.96616      137316.06     -807624        -9803.8953      0.36356507     0.057625413    28.646955      5.7298603    
     99840   199.68         338.65423      134714.39     -807626.04     -9678.601       0.36356816     0.056888473    28.640692      5.3928291    
     99850   199.7          338.38138      136535.46     -807626.1      -9676.5071      0.36357111     0.056875704    28.655187      5.0557952    
     99860   199.72         347.16204      134184.78     -807627.45     -9677.0813      0.36357392     0.05687864     28.671133      4.7187586    
     99870   199.74         344.65646      134697.97     -807626.58     -9695.5363      0.36357658     0.056986695    28.661468      4.3817199    
     99880   199.76         340.67542      133796.96     -807627.88     -9642.0028      0.3635791      0.056671653    28.642863      4.044679     
     99890   199.78         338.82778      136283.62     -807625.32     -9719.761       0.36358148     0.05712831     28.632347      3.7076358    
     99900   199.8          341.61053      136236        -807623.83     -9785.6249      0.36358371     0.057515074    28.607622      3.3705905    
     99910   199.82         352.00086      136636.03     -807626.07     -9762.3209      0.3635858      0.057377775    28.614705      3.0335427    
     99920   199.84         333.45126      135556.52     -807625.59     -9699.9513      0.36358775     0.057010894    28.637249      2.6964921    
     99930   199.86         344.38321      134771.69     -807628.02     -9675.3444      0.36358955     0.056865987    28.616936      2.3594393    
     99940   199.88         341.83384      134650.65     -807626.56     -9712.1704      0.36359121     0.057082168    28.606782      2.022384     
     99950   199.9          330.22384      133206.43     -807626.59     -9668.2186      0.36359273     0.056823609    28.632879      1.6853261    
     99960   199.92         339.34136      135098.02     -807628.35     -9653.7259      0.3635941      0.056738216    28.607936      1.3482659    
     99970   199.94         344.32467      133863.08     -807628.41     -9680.5514      0.36359533     0.056895687    28.590245      1.0112032    
     99980   199.96         327.75762      137748.09     -807622.59     -9794.8004      0.36359641     0.057566992    28.60409       0.67413799   
     99990   199.98         328.94018      135888.13     -807624.34     -9749.9943      0.36359736     0.057303504    28.638875      0.33707021   
    100000   200            349.19289      136332.43     -807627.15     -9749.555       0.36359816     0.057300797    28.656191      0            
Loop time of 3370.71 on 32 procs for 100000 steps with 1080 atoms

Performance: 5.127 ns/day, 4.682 hours/ns, 29.667 timesteps/s, 32.041 katom-step/s
66.0% CPU use with 32 MPI tasks x 1 OpenMP threads

MPI task timing breakdown:
Section |  min time  |  avg time  |  max time  |%varavg| %total
---------------------------------------------------------------
Pair    | 2505.3     | 2792.3     | 3154       | 234.0 | 82.84
Neigh   | 0.0016269  | 0.0017637  | 0.0019412  |   0.2 |  0.00
Comm    | 144.32     | 506.45     | 793.11     | 549.2 | 15.03
Output  | 2.3217     | 2.3311     | 2.3382     |   0.3 |  0.07
Modify  | 62.565     | 63.591     | 64.339     |   5.8 |  1.89
Other   |            | 6.061      |            |       |  0.18

Nlocal:          33.75 ave          43 max          27 min
Histogram: 4 4 0 7 5 4 4 2 1 1
Nghost:        1030.06 ave        1046 max        1014 min
Histogram: 1 2 2 6 4 8 4 2 1 2
Neighs:              0 ave           0 max           0 min
Histogram: 32 0 0 0 0 0 0 0 0 0
FullNghs:      5350.38 ave        6811 max        4249 min
Histogram: 4 4 1 6 5 4 3 3 1 1

Total # of neighbors = 171212
Ave neighs/atom = 158.52963
Neighbor list builds = 4
Dangerous builds = 0

Total wall time: 0:59:31
