
units		metal
atom_style	atomic

read_data ${STRUCTURE}.data
read_data BaTiO3-sc333.data
Reading data file ...
  orthogonal box = (0 0 0) to (11.898253 11.898253 12.912076)
  2 by 4 by 4 MPI processor grid
  reading atoms ...
  135 atoms
  read_data CPU = 0.006 seconds
replicate $L $L $L
replicate 2 $L $L
replicate 2 2 $L
replicate 2 2 2
Replication is creating a 2x2x2 = 8 times larger system...
  orthogonal box = (0 0 0) to (23.796507 23.796507 25.824152)
  2 by 4 by 4 MPI processor grid
  1080 atoms
  replicate CPU = 0.003 seconds

pair_style allegro
pair_coeff	* * ${MODEL}.pth Ba Ti O
pair_coeff	* * BaTiO3-E0.pth Ba Ti O
mass 1 137.3
mass 2 47.9
mass 3 15.9994

timestep 0.002
compute polarization all allegro polarization 3
compute allegro will evaluate the quantity polarization of length 3 (src/compute_allegro.cpp:53)
compute polarizability all allegro polarizability 9
compute allegro will evaluate the quantity polarizability of length 9 (src/compute_allegro.cpp:53)

thermo_style custom pe fmax fnorm spcpu cpuremain

variable efield equal 1e-2*36.36
fix born all addbornforce 0.0 0.0 ${efield}
fix born all addbornforce 0.0 0.0 0.3636

thermo 10
min_style fire
#minimize 0.0 1e-6 100 100
velocity all create ${TEMP} ${SEED} dist gaussian rot yes mom yes
velocity all create 290 ${SEED} dist gaussian rot yes mom yes
velocity all create 290 959 dist gaussian rot yes mom yes
fix nvt all nvt temp ${TEMP} ${TEMP} $(100*dt)
fix nvt all nvt temp 290 ${TEMP} $(100*dt)
fix nvt all nvt temp 290 290 $(100*dt)
fix nvt all nvt temp 290 290 0.2000000000000000111
run 5000
Neighbor list info ...
  update: every = 1 steps, delay = 0 steps, check = yes
  max neighbors/atom: 2000, page size: 100000
  master list distance cutoff = 8
  ghost atom cutoff = 8
  binsize = 8, bins = 3 3 4
  1 neighbor lists, perpetual/occasional/extra = 1 0 0
  (1) pair allegro/kk, perpetual
      attributes: full, newton on, kokkos_device
      pair build: full/bin/kk/device
      stencil: full/bin/3d
      bin: kk/device
Per MPI rank memory allocation (min/avg/max) = 3.516 | 3.516 | 3.516 Mbytes
    PotEng          Fmax          Fnorm          S/CPU         CPULeft    
-807708.29      1.595723       37.044049      0              0            
-807647.46      3.6047452      45.33824       2.3714957      2104.158     
-807637.75      2.5401449      35.267232      25.854139      1146.2803    
-807608.19      3.1106836      37.741671      25.873027      826.683      
-807605.46      4.0610189      50.379803      25.795045      666.83599    
-807569.06      3.8627437      40.428894      25.778651      570.79712    
-807604.62      2.7991267      38.317752      25.866292      506.53369    
-807645.23      3.6617887      34.408724      25.842351      460.546      
-807686.4       2.6102177      34.119909      25.840267      425.96041    
-807669.97      3.4288361      33.798869      25.821519      398.98984    
-807654.87      3.4375878      33.71901       25.86589       377.30339    
-807662         2.4567703      26.014351      25.869675      359.48711    
-807630.91      3.2605191      29.476789      25.837856      344.59514    
-807588.27      3.5697803      38.957122      25.836751      331.93533    
-807571.36      2.6848902      37.282045      25.892495      320.99984    
-807634.62      3.1046404      31.967595      25.861956      311.48566    
-807656.63      3.2093007      29.454886      25.866203      303.11051    
-807666.66      2.84306        33.196613      25.876702      295.67073    
-807649.19      4.5737135      44.054041      25.859308      289.02161    
-807682.99      2.8601613      35.83426       25.861862      283.03072    
-807643.77      3.587737       38.587639      25.812479      277.61802    
-807618.64      3.1402085      38.486837      25.861311      272.66722    
-807564.01      4.7536447      45.430748      25.867189      268.12944    
-807607.96      3.989523       48.722256      25.814196      263.96909    
-807613.54      4.1761842      39.299304      25.826629      260.11945    
-807645.4       3.1190334      34.796739      25.887706      256.52945    
-807645.25      5.9712159      45.206537      25.863965      253.19236    
-807684.43      3.1381223      37.331595      25.825911      250.0838     
-807664.77      4.0823986      34.469607      25.793279      247.17788    
-807641.97      2.9158886      30.781895      25.882474      244.42393    
-807609.46      3.6193713      32.925603      25.875809      241.82938    
-807607.65      3.3893903      41.876481      25.858112      239.38128    
-807598.38      3.2089587      34.970218      25.793265      237.07625    
-807612.47      2.8948913      32.416148      25.905856      234.86356    
-807646.41      3.373203       29.047686      25.877502      232.76413    
-807677.45      2.7871315      30.904172      25.865119      230.76504    
-807679.92      2.4740281      31.063913      25.823345      228.8636     
-807648.51      4.1098186      36.787856      25.850386      227.03892    
-807652.32      2.5721838      29.429754      25.874051      225.28564    
-807623.21      3.4730465      32.860595      25.837427      223.60891    
-807602.86      3.8050428      42.521446      25.811455      222.00114    
-807572.12      3.7020688      40.933892      25.875482      220.44219    
-807629.45      3.0899239      34.407406      25.873293      218.93941    
-807652.83      3.4745839      34.916979      25.864451      217.48995    
-807677.2       2.7821221      33.854025      25.843144      216.09212    
-807644.56      5.0582607      46.385635      25.863301      214.73616    
-807671.61      2.9055881      34.057736      25.867764      213.42168    
-807647.05      3.6431364      35.734152      25.820835      212.15347    
-807625.22      3.1785336      36.992992      25.812884      210.92308    
-807566.16      3.8600065      42.981889      25.881852      209.7176     
-807605.23      3.697785       42.574072      25.889111      208.54391    
-807626.9       3.9614538      33.919953      25.839222      207.40766    
-807658.55      2.596572       30.833481      25.857173      206.29791    
-807647.06      4.5814946      39.952811      25.867324      205.21417    
-807676.96      2.2969976      32.816006      25.85743       204.15747    
-807670.07      2.8493801      30.770253      25.811851      203.13066    
-807644.55      3.1892436      28.965636      25.867399      202.12009    
-807604.43      3.1284154      32.922522      25.861092      201.13214    
-807599.88      3.2163091      37.912712      25.874481      200.1634     
-807608.48      3.4195359      37.83156       25.77686       199.22534    
-807622.76      3.3077009      30.558149      25.852085      198.29734    
-807643.02      2.9995181      30.664656      25.854582      197.38682    
-807667.83      2.7666855      31.470112      25.854428      196.4932     
-807679.47      3.355774       34.113248      25.755183      195.62602    
-807648.19      3.6609715      36.953648      25.804915      194.7687     
-807639.25      2.6325655      31.062956      25.88159       193.91815    
-807614.96      3.1735766      33.749935      25.893544      193.0805     
-807606.18      3.8555173      44.377654      25.78705       192.26663    
-807581.19      4.0165962      40.452047      25.819303      191.46222    
-807622.77      3.173845       34.937712      25.881403      190.66409    
-807648.53      4.0720075      36.890674      25.856324      189.88002    
-807677.64      2.9331071      35.196419      25.808678      189.11147    
-807650.22      4.8307919      42.476989      25.818791      188.35259    
-807657.94      3.0623748      34.03543       25.888923      187.59776    
-807644.05      3.3858209      33.635554      25.875692      186.85403    
-807625.92      3.6945059      36.877259      25.827239      186.12393    
-807575.59      3.441409       38.10484       25.823811      185.40315    
-807597.32      3.6770934      38.370263      25.85314       184.68861    
-807631.1       3.2001514      30.641143      25.848972      183.98281    
-807663.47      2.6002743      30.11888       25.811013      183.28813    
-807653.86      3.7996456      35.602201      25.86774       182.59665    
-807664.04      3.0808897      33.347731      25.773092      181.92006    
-807668.38      2.6784834      31.390629      25.855203      181.24422    
-807645.4       2.6523932      29.453429      25.875393      180.57383    
-807605.32      2.9346374      33.688268      25.909888      179.90765    
-807588.07      3.072771       36.75406       25.860046      179.2517     
-807611.27      3.7439771      38.301843      25.849471      178.60277    
-807630.4       3.0153242      30.5158        25.888193      177.95712    
-807645.7       2.8268523      31.267288      25.901915      177.31641    
-807657.46      4.2435696      35.131037      25.925853      176.67977    
-807675.84      2.8139523      34.801095      25.850502      176.05383    
-807652.88      3.5691274      35.42038       25.861461      175.4324     
-807633.34      2.7202831      32.79467       25.933662      174.81131    
-807605.51      3.2696989      35.437256      25.916388      174.19641    
-807608.1       3.7181104      43.817027      25.80432       173.59362    
-807595.34      3.5382653      36.416234      25.772035      172.99743    
-807623         2.6266359      33.344206      25.813675      172.40294    
-807644.64      3.5773273      35.098497      25.881749      171.80849    
-807675.39      2.5551096      34.196162      25.833614      171.22123    
-807659.37      4.2982559      35.321181      25.814154      170.63921    
-807650.27      2.7211552      32.707741      25.885071      170.05683    
-807637.59      3.557083       32.059561      25.888263      169.47814    
-807626.17      3.6134928      35.63286       25.868918      168.90436    
-807591.07      3.4778899      35.881291      25.841838      168.33577    
-807595.58      2.8109998      36.12718       25.901549      167.76728    
-807630.98      2.8526459      30.45528       25.898753      167.20242    
-807663         2.6266393      29.915311      25.884758      166.64171    
-807661.81      2.4729202      32.01772       25.864441      166.08537    
-807655.19      3.8715239      34.719377      25.915802      165.52939    
-807662.51      3.7054338      30.376174      25.861652      164.97943    
-807644.02      2.7657706      30.394404      25.882161      164.43136    
-807611.93      2.899148       33.862829      25.897966      163.88537    
-807583.38      3.6234721      37.969996      25.928726      163.34065    
-807613.66      3.9130604      36.517443      25.84808       162.80287    
-807635.91      3.4735725      32.027419      25.809241      162.2697     
-807652.99      2.9156926      31.683855      25.816072      161.73873    
-807649.79      3.829756       37.607333      25.904806      161.20584    
-807670.6       3.0035889      34.106887      25.832966      160.67898    
-807655.36      3.8148143      33.478241      25.799368      160.15611    
-807634.09      3.0304762      31.655351      25.85631       159.63279    
-807597.68      3.8865624      36.323761      25.884641      159.1104     
-807607.51      3.880568       40.321956      25.853443      158.59172    
-807608.85      3.1583647      34.462213      25.838355      158.0759     
-807630.24      2.7702712      32.412941      25.926384      157.55815    
-807643.22      3.9286818      34.964903      25.856244      157.0457     
-807671.59      2.8105212      33.359771      25.849835      156.53555    
-807662.72      3.4789612      33.749586      25.813433      156.02898    
-807648.89      2.8753267      31.808439      25.795273      155.52508    
-807627.28      3.5313456      31.895724      25.868745      155.0198     
-807619.9       3.4433905      34.470018      25.890178      154.51544    
-807598.59      4.2297661      37.188505      25.853247      154.01447    
-807600.8       3.5220908      35.305706      25.865306      153.51473    
-807630.67      3.4297681      31.06014       25.884674      153.0159     
-807661.16      3.0403891      31.644423      25.89583       152.51831    
-807665.25      3.0780744      33.403717      25.821119      152.02543    
-807651.24      4.1359188      36.191624      25.837483      151.53345    
-807652.26      2.8851241      31.775526      25.855553      151.04228    
-807637.58      3.0599793      32.054613      25.916843      150.55022    
-807613.11      3.2882644      35.909041      25.835231      150.0629     
-807583.69      3.0432747      37.968365      25.838672      149.57688    
-807611.37      2.83926        35.840721      25.873546      149.09094    
-807639.59      2.906577       31.860481      25.820308      148.60844    
-807657.95      2.7990773      32.859831      25.783038      148.12869    
-807649.05      3.9493545      37.75966       25.837105      147.6482     
-807663.4       3.0379892      33.905345      25.820998      147.1696     
-807652.32      3.601599       33.764781      25.85131       146.69115    
-807634.26      3.1162841      32.58306       25.872433      146.21319    
-807594.43      3.1926361      36.668665      25.9153        145.73494    
-807601.88      3.0997171      38.911482      25.921652      145.25771    
-807613.8       3.5109125      35.743672      25.806282      144.78578    
-807639.61      2.7631704      32.430557      25.803106      144.31508    
-807641.62      3.7023996      36.673344      25.831157      143.84451    
-807664.1       4.1417278      34.365243      25.73753       143.37826    
-807661.17      3.0065895      34.572928      25.772962      142.91181    
-807648.41      3.9378089      32.418037      25.81461       142.44498    
-807620.26      3.75428        34.151339      25.876099      141.97712    
-807610.86      4.2008704      35.940213      25.882259      141.51011    
-807603.29      3.8724913      37.843861      25.790413      141.04713    
-807612.28      3.6739261      34.735765      25.77158       140.58571    
-807630.71      3.5056638      32.548206      25.894879      140.12126    
-807655.77      3.8614626      32.606488      25.84404       139.65939    
-807667.35      2.6969089      33.108906      25.757551      139.2012     
-807654.43      3.4215105      34.370874      25.831931      138.74153    
-807643.89      2.9849342      31.922195      25.927069      138.27982    
-807630.03      3.0932035      31.523493      25.923281      137.81915    
-807615.65      3.4952171      36.392078      25.876281      137.36081    
-807592.45      3.6992151      37.292165      25.90542       136.90247    
-807612.42      3.4469776      34.617469      25.864637      136.4462     
-807639.67      3.4734363      32.675575      25.821198      135.99205    
-807662.79      3.3559866      32.494929      25.878582      135.537      
-807653.37      5.1929579      36.319549      25.837795      135.08395    
-807656.59      3.1794786      34.093203      25.856197      134.63114    
-807646.73      3.7273444      33.392258      25.773672      134.18146    
-807634.72      2.9878953      32.544639      25.868904      133.7298     
-807598.82      3.20219        35.465342      25.917992      133.27751    
-807601.25      3.2275584      36.369267      25.903649      132.82637    
-807621.2       2.9853722      32.736583      25.819154      132.3783     
-807647.49      3.0482317      30.393651      25.835898      131.93046    
-807649.2       4.0200917      33.239204      25.873766      131.48228    
-807659.19      2.6472727      32.84707       25.854694      131.0353     
-807661.3       2.8462859      32.058035      25.824756      130.58979    
-807648.54      2.7915768      30.966076      25.84057       130.1445     
-807620.6       3.2939216      32.251178      25.886344      129.69865    
-807603.66      3.3982538      35.285374      25.915408      129.25271    
-807609.07      3.7536426      36.117985      25.834126      128.8095     
-807622.88      3.5082031      32.482969      25.821584      128.36723    
-807635.43      3.3703917      31.979243      25.884229      127.92396    
-807652.4       2.8787501      32.374527      25.901015      127.48088    
-807664.79      2.5650955      32.784736      25.822981      127.04034    
-807653.97      2.9816842      32.962915      25.847478      126.59976    
-807639.25      3.4340613      31.657475      25.9052        126.15834    
-807621.09      2.7777673      32.686992      25.928435      125.71695    
-807613.77      3.5207526      36.70568       25.884201      125.27719    
-807603.24      3.1065367      35.721934      25.831628      124.83923    
-807618.14      2.4363652      33.258844      25.85771       124.40118    
-807638.52      4.525505       32.444702      25.850605      123.96383    
-807660.77      2.3137584      32.329489      25.801334      123.52813    
-807655.64      2.899749       34.12615       25.800655      123.09294    
-807648.99      3.1155562      33.652271      25.850736      122.65709    
-807639.43      3.685556       32.484999      25.872139      122.22124    
-807630.74      3.342984       33.411836      25.899947      121.78527    
-807602.98      3.4815427      35.832125      25.880145      121.35023    
-807602.54      3.851293       36.405541      25.863969      120.91603    
-807621.83      3.9136766      33.004178      25.89015       120.48172    
-807649.52      3.1729949      32.050675      25.87862       120.04814    
-807651.79      3.7267803      34.100486      25.872901      119.61514    
-807652.94      3.9928072      33.913702      25.847973      119.18312    
-807652.71      3.5759096      33.351788      25.800474      118.75255    
-807645.05      3.2727674      32.201194      25.799619      118.32241    
-807618.18      3.5879703      33.402689      25.907272      117.89043    
-807600.64      3.1494428      35.311883      25.854526      117.45998    
-807610.37      3.1152439      35.651961      25.804575      117.03097    
-807629.2       2.8669455      33.929928      25.842277      116.60158    
-807642.84      3.3098637      32.879543      25.84036       116.17263    
-807648.28      3.6007026      34.481689      25.878816      115.7433     
-807660.08      4.1785898      33.458437      25.794511      115.31604    
-807653.7       2.9363941      32.881361      25.838047      114.8883     
-807636.93      2.8680329      31.732292      25.878442      114.46014    
-807611.11      3.3269677      34.372723      25.902355      114.0319     
-807609.51      3.2250861      36.783502      25.872564      113.60462    
-807612.07      3.3756452      35.37648       25.800572      113.17908    
-807625.04      3.1290323      33.74824       25.830444      112.75331    
-807640.03      4.0307689      33.641315      25.852635      112.32748    
-807660.35      3.1915607      33.002306      25.865343      111.90177    
-807657.56      3.7240766      33.715344      25.824523      111.47715    
-807647.08      3.1742134      32.720783      25.857211      111.05227    
-807630.85      3.497544       32.464667      25.893165      110.62708    
-807622.01      4.0882192      34.328858      25.870699      110.20263    
-807606.5       4.1140546      36.001256      25.906386      109.77788    
-807609.2       3.5355956      35.180077      25.872597      109.35407    
-807627.08      3.7201918      32.466295      25.867521      108.93067    
-807651.18      3.1293879      32.420679      25.852388      108.50785    
-807656.31      2.7659828      33.106184      25.860167      108.0852     
-807651.97      3.4622231      34.078592      25.848542      107.66307    
-807645.27      4.0590355      33.591747      25.842258      107.24134    
-807638.6       3.1522479      32.079701      25.892842      106.81906    
-807616.42      3.0303735      34.741395      25.898687      106.39698    
-807602.06      3.0893596      35.974646      25.860176      105.97585    
-807612.57      3.8590935      34.455245      25.891718      105.55449    
-807636.57      3.0148986      31.219506      25.85482       105.13402    
-807648.26      3.8964062      32.159069      25.816766      104.71445    
-807652.65      3.0744978      32.502917      25.788425      104.29561    
-807655.04      3.5894323      32.79306       25.75352       103.87758    
-807652.26      2.487621       30.359454      25.780429      103.45937    
-807634.07      3.014376       31.286032      25.849541      103.04032    
-807610.13      3.2902628      33.427624      25.880959      102.62105    
-807607.56      3.6564589      35.786113      25.888984      102.20191    
-807619.91      2.8333689      33.509795      25.877914      101.78322    
-807635.06      3.5260356      32.639322      25.874177      101.36484    
-807643.75      2.908283       32.995907      25.894813      100.9464     
-807655.95      3.334686       33.821977      25.893877      100.52824    
-807657.4       2.7963895      32.616316      25.853018      100.11094    
-807645.79      2.6951392      32.251865      25.837012      99.694116    
-807626.18      2.9226035      32.561931      25.879195      99.276911    
-807616.49      2.6886304      33.7193        25.906076      98.859561    
-807609.24      3.4978792      34.654367      25.904281      98.442482    
-807617.92      3.0951132      33.048117      25.89834       98.02573     
-807632.65      3.134619       30.980295      25.900837      97.609181    
-807649.58      3.8880592      32.256309      25.866151      97.193354    
-807657.09      2.8982842      32.355484      25.845887      96.778035    
-807652.92      2.9120429      32.515748      25.835017      96.363085    
-807640.56      3.7363598      31.82696       25.824779      95.948488    
-807629.19      2.5557431      32.028115      25.91636       95.532858    
-807615.86      3.6032877      34.347933      25.87927       95.117952    
-807604.97      3.0927432      35.327935      25.883377      94.703207    
-807616.24      3.2255901      34.018809      25.892416      94.288558    
-807636.9       3.257839       32.301181      25.878451      93.874305    
-807651.56      2.7933434      32.539759      25.843844      93.460713    
-807651.84      2.9827799      34.300922      25.845733      93.047294    
-807648.68      3.0373419      33.715528      25.833805      92.634226    
-807642.08      3.2473817      33.095929      25.880322      92.220758    
-807628.48      2.8384722      32.925596      25.866806      91.80766     
-807609.31      3.1539626      34.895921      25.898293      91.394364    
-807605.21      3.3228568      35.314032      25.895474      90.981301    
-807621.02      3.3931782      33.465618      25.867095      90.568784    
-807641.41      2.9985203      31.731907      25.843377      90.156746    
-807646.64      3.4090424      32.691769      25.866665      89.744607    
-807651.41      3.3143829      33.768338      25.852887      89.332818    
-807650.02      3.2506754      33.533567      25.845612      88.921296    
-807642.14      2.8028716      31.842969      25.857388      88.509811    
-807622.79      2.9673013      33.110931      25.890515      88.098113    
-807607.23      3.0147561      35.812982      25.903592      87.686445    
-807611.45      3.2465087      35.41528       25.84321       87.275656    
-807626.25      2.6536103      33.325094      25.86438       86.864793    
-807636.5       4.0736547      32.542664      25.852892      86.454231    
-807648.61      2.767325       32.474226      25.878751      86.043544    
-807654.38      3.0810607      33.288783      25.853116      85.633313    
-807651.85      3.1018251      31.930823      25.849662      85.223284    
-807634.85      3.5329669      32.773819      25.856277      84.813343    
-807621.87      3.0214296      32.798026      25.871657      84.403395    
-807612.4       3.4075409      34.839345      25.79215       83.994471    
-807612.44      2.9913186      35.31165       25.809399      83.585507    
-807622.82      3.0783896      33.242609      25.836802      83.176397    
-807639.67      3.832046       32.426974      25.836998      82.767436    
-807653.49      4.0145854      32.385141      25.845514      82.358535    
-807654.01      3.1346595      33.409067      25.885029      81.949372    
-807647         3.0597874      32.593219      25.79169       81.541327    
-807636.22      3.197748       32.665373      25.860186      81.132717    
-807625.45      2.8252957      33.320111      25.860134      80.724255    
-807610.77      3.1788619      35.391949      25.886227      80.315676    
-807610.7       2.8949445      34.486645      25.852327      79.907584    
-807626.3       3.5352529      32.879966      25.839539      79.499759    
-807645.47      2.9160443      31.668051      25.845253      79.092016    
-807651.67      5.3046825      32.851879      25.859929      78.684268    
-807651.41      3.1943106      32.249852      25.814629      78.277096    
-807648.19      3.8991569      31.79541       25.857935      77.869639    
-807638.84      3.0513065      31.493556      25.829731      77.462586    
-807621.23      4.1844351      33.77045       25.815639      77.055794    
-807609.28      3.9662702      34.943975      25.804436      76.649233    
-807616.18      3.1211943      34.179267      25.860723      76.242275    
-807631.97      3.4538349      32.86042       25.822996      75.835793    
-807644.19      3.1232606      32.388584      25.791932      75.429719    
-807649.92      3.2633444      32.679383      25.7934        75.023749    
-807654.38      2.9139938      32.034829      25.83346       74.617536    
-807648.66      3.5193676      32.1735        25.837655      74.211408    
-807634.56      3.7485284      31.905011      25.833912      73.805435    
-807618.96      3.3751532      32.568297      25.847287      73.399464    
-807614.14      3.2379009      33.836595      25.865951      72.993452    
-807617.92      3.7284644      34.03516       25.908678      72.587198    
-807632.67      3.1999836      31.831166      25.885422      72.181267    
-807642.68      4.1139562      32.663133      25.894073      71.775386    
-807654.02      2.7870568      32.190099      25.874154      71.369794    
-807652.48      3.8049408      33.198478      25.83538       70.964642    
-807645.6       2.6785371      31.863723      25.793712      70.559943    
-807631.86      2.8871016      32.030514      25.811781      70.155203    
-807619.3       3.0820051      33.543394      25.854816      69.750222    
-807613.67      3.6030602      35.645231      25.850894      69.345383    
-807616.6       3.3928976      34.254368      25.87176       68.94049     
-807630.79      3.2074082      33.316531      25.840775      68.535952    
-807645.97      2.8398762      32.510182      25.828753      68.131614    
-807654.11      2.5167387      32.760711      25.837944      67.72731     
-807650.1       3.9860868      33.090689      25.823508      67.32322     
-807641.66      2.930278       32.733601      25.821063      66.91925     
-807632.02      3.1075482      32.257554      25.813145      66.51544     
-807617.51      3.0279926      34.425079      25.87262       66.111286    
-807609.29      4.2309581      34.968645      25.890674      65.707104    
-807618.07      3.94333        34.108631      25.874107      65.30315     
-807634.46      3.0793542      32.541113      25.867796      64.899345    
-807647.16      3.4220779      32.755116      25.85673       64.495721    
-807649.65      3.6545018      33.9644        25.863577      64.092149    
-807649.73      3.7026446      32.920026      25.858392      63.688712    
-807642.12      2.9611021      32.676344      25.83305       63.28555     
-807629.38      3.3569335      32.723377      25.843284      62.882411    
-807612.63      3.079556       35.080262      25.880332      62.479114    
-807609.53      3.22641        35.230209      25.839432      62.076191    
-807621.92      2.9756422      34.188851      25.843298      61.673336    
-807635.19      3.5300872      33.505318      25.846275      61.270552    
-807644.95      3.1159833      33.22161       25.81643       60.868057    
-807649.22      2.8240672      33.931865      25.83904       60.465501    
-807650.86      2.897853       32.880878      25.862274      60.062883    
-807640.29      2.5931302      31.952229      25.834439      59.660536    
-807625.44      3.4816455      32.744232      25.877857      59.257999    
-807611.82      3.0022908      34.451754      25.818209      58.85593     
-807614.34      3.4210502      35.384222      25.848248      58.453756    
-807620.74      3.9958807      34.15319       25.81355       58.051884    
-807637.2       2.9233164      32.133399      25.819731      57.650055    
-807644.93      3.8679488      33.358821      25.855091      57.248094    
-807653.54      3.1155145      33.550732      25.795398      56.846576    
-807647.19      3.1002187      33.938191      25.809171      56.445053    
-807636.3       2.6847962      32.817203      25.815239      56.043573    
-807624.03      3.4431919      33.865924      25.840397      55.642025    
-807615.37      2.9743364      35.424111      25.862428      55.240431    
-807613.06      3.2446712      35.776725      25.895848      54.838729    
-807623.99      2.6843614      33.131193      25.84098       54.437422    
-807636.95      2.9292633      33.23115       25.872536      54.036017    
-807650.03      3.6365632      32.70601       25.854059      53.634796    
-807650.74      3.0116665      32.787004      25.860396      53.233619    
-807644.83      3.0010164      32.531122      25.854699      52.832552    
-807637.09      3.1408409      32.042796      25.856725      52.431552    
-807625.85      3.0652654      32.622802      25.855829      52.030634    
-807615.7       3.0493486      34.051792      25.876281      51.629685    
-807614.84      2.6077903      33.872381      25.885572      51.228766    
-807627.59      3.2041721      33.026548      25.849826      50.828109    
-807642.08      3.771775       32.598351      25.82192       50.427668    
-807649.95      3.0464866      32.638767      25.855474      50.027129    
-807648.45      2.6756117      33.220142      25.870769      49.626587    
-807646.89      3.3762952      32.474512      25.842683      49.226258    
-807636.89      2.3883426      31.874313      25.828338      48.82607     
-807622.88      2.9642329      33.282951      25.863558      48.425781    
-807613.48      2.9372171      33.928667      25.853158      48.025613    
-807618.01      3.0430756      34.572803      25.875842      47.625409    
-807630.42      3.0488442      32.668598      25.87018       47.225303    
-807641.75      3.1203745      32.675939      25.885123      46.825199    
-807648.06      3.0081346      33.002104      25.882984      46.425177    
-807651.22      2.6916308      32.834573      25.865731      46.025304    
-807644.59      3.0269938      33.308494      25.828683      45.625666    
-807634.1       3.46974        32.24729       25.842678      45.22603     
-807619.44      3.3314278      33.702041      25.806036      44.82662     
-807614.16      3.4646909      34.645884      25.887706      44.426919    
-807617.9       3.1688013      34.285328      25.846853      44.027461    
-807629.57      3.192236       33.249075      25.837917      43.628105    
-807643.22      3.1925937      32.582258      25.848234      43.228769    
-807650.07      2.829611       33.071049      25.853704      42.829474    
-807649.01      2.8440445      33.306852      25.860531      42.430215    
-807643.18      3.1423344      32.65992       25.878943      42.030946    
-807631.95      3.0237059      32.556303      25.872849      41.631766    
-807619.84      2.7341651      34.098879      25.872639      41.232651    
-807613.09      3.1350815      34.769032      25.838919      40.83373     
-807618.18      2.9980829      34.102006      25.84606       40.434842    
-807631.73      2.9145612      32.569752      25.877104      40.035896    
-807643.68      2.7263751      33.15246       25.882105      39.636994    
-807648.95      2.7648192      33.331852      25.852066      39.238265    
-807646.21      3.1758843      34.029287      25.872307      38.839522    
-807641.33      3.4325276      33.163424      25.871054      38.440845    
-807630.3       3.6200322      33.68255       25.901639      38.042118    
-807616.49      2.6735259      34.843073      25.857724      37.643608    
-807614.67      4.2391073      34.995713      25.836289      37.245231    
-807621.36      2.8608986      34.626098      25.879097      36.846762    
-807632.75      4.3744859      33.602085      25.852029      36.448444    
-807644.65      3.3613542      33.661159      25.86233       36.050149    
-807647.54      4.0332642      34.103161      25.880973      35.651848    
-807646.71      3.6719714      33.21324       25.887393      35.253585    
-807639.5       3.2047363      33.4322        25.873219      34.855425    
-807628.87      3.1716267      33.7294        25.875005      34.457316    
-807617.51      3.2031987      34.229157      25.860443      34.059309    
-807614.84      2.7715359      35.068691      25.850684      33.661386    
-807623.26      3.1507877      33.654252      25.816552      33.263619    
-807635.36      3.3161958      33.206429      25.869797      32.865744    
-807644.04      3.5952366      33.648331      25.875332      32.467906    
-807646.94      4.0105022      33.957965      25.854461      32.070184    
-807647.88      3.1619344      32.92752       25.886887      31.672421    
-807638.62      3.5247628      33.912196      25.87233       31.274753    
-807625.1       2.7898294      33.124173      25.870143      30.877144    
-807616.93      2.7828831      34.142603      25.870563      30.479587    
-807616.48      3.3997825      35.350092      25.848888      30.082139    
-807623.92      3.178537       33.789549      25.870409      29.684685    
-807637.59      3.0622302      32.660003      25.836331      29.28737     
-807645.78      3.4058047      33.923115      25.880229      28.889991    
-807648.45      2.7444784      33.527592      25.853606      28.492731    
-807646.6       2.9050201      33.144211      25.859167      28.095505    
-807635.68      3.4911882      34.104677      25.861905      27.698322    
-807623.94      2.9126974      34.189259      25.895539      27.301107    
-807616.48      3.1592967      35.311431      25.88692       26.903963    
-807617.11      3.1424149      34.45158       25.852668      26.506949    
-807627.19      2.8301483      33.360807      25.833856      26.110025    
-807637.88      3.4159028      33.00549       25.879321      25.713044    
-807647.43      2.575668       32.695259      25.841069      25.316195    
-807647.87      3.1780561      33.9211        25.863175      24.919345    
-807644.34      3.2790123      32.616917      25.873574      24.522518    
-807634.29      3.0756485      33.160277      25.85588       24.125776    
-807626.35      2.8405328      33.362783      25.885109      23.729019    
-807614.85      3.2047551      34.45665       25.903747      23.332273    
-807618.91      2.9501037      34.089062      25.859555      22.935661    
-807628.7       3.424386       33.289105      25.884084      22.539047    
-807641.44      3.018374       32.985693      25.882984      22.142482    
-807644.54      3.2455822      33.491945      25.872812      21.745981    
-807647.19      3.8167022      33.275588      25.832919      21.349597    
-807643.14      3.0809302      33.265359      25.894846      20.953145    
-807634.92      2.9547262      33.488468      25.914718      20.556705    
-807621.63      3.0983932      34.085068      25.885839      20.16036     
-807616.36      2.909073       34.88474       25.846681      19.764125    
-807621.83      3.0675826      33.26474       25.903611      19.367839    
-807630.99      3.4174058      33.004226      25.856669      18.971673    
-807639.67      3.1044458      32.55196       25.852757      18.575554    
-807646.92      3.4914104      33.258961      25.856748      18.179471    
-807646.93      3.5300477      33.099354      25.838019      17.783456    
-807641.64      2.8908631      32.66989       25.853746      17.387458    
-807630.6       3.8448706      33.565339      25.865703      16.991483    
-807620.96      3.4281332      34.371375      25.851744      16.595568    
-807616.83      3.7206693      35.409133      25.88663       16.199647    
-807621.16      3.1606635      34.581723      25.858467      15.803804    
-807630.72      3.7388951      33.404581      25.858999      15.407999    
-807640.15      3.7945183      33.584393      25.858794      15.012235    
-807646.25      2.836776       34.009015      25.831745      14.616542    
-807645.19      2.9060811      34.347778      25.863946      14.220848    
-807639.69      3.2305256      34.02022       25.875197      13.825181    
-807628.63      3.7053567      34.274031      25.832038      13.4296      
-807619.91      3.5125877      34.81438       25.857925      13.034028    
-807615         3.1124522      35.83478       25.904506      12.638446    
-807620.7       2.9619415      34.751366      25.883279      12.242926    
-807631.84      2.648725       33.412448      25.879293      11.847449    
-807642.13      2.9900148      33.147136      25.852691      11.452035    
-807647.28      3.2801685      32.811169      25.809287      11.056696    
-807645.3       2.7023859      32.829468      25.846419      10.661358    
-807637.1       3.2164607      33.069372      25.873537      10.266034    
-807630.38      3.0394149      32.525405      25.860849      9.870757     
-807617.93      3.2417542      33.93977       25.832542      9.4755374    
-807616.1       3.4796918      34.864815      25.861097      9.0803312    
-807623         3.3067736      34.760343      25.836733      8.6851774    
-807633.79      3.0433462      34.201781      25.876806      8.2900313    
-807642.39      3.7927628      33.825144      25.863638      7.8949295    
-807645.04      3.3222633      34.215944      25.862382      7.4998637    
-807642.09      3.7629688      34.061883      25.853205      7.1048379    
-807636.44      2.870448       33.232138      25.855073      6.7098451    
-807627.65      3.7356686      33.942791      25.911895      6.3148583    
-807618.05      2.8818545      34.488417      25.882573      5.9199224    
-807617.71      3.582791       35.323287      25.82621       5.5250461    
-807626.08      2.8884549      33.489355      25.878326      5.1301804    
-807636.39      3.2236604      32.907864      25.856553      4.7353574    
-807642.18      3.3217335      32.589965      25.907873      4.3405502    
-807646.56      2.881591       33.024604      25.895886      3.9457826    
-807643.73      2.7262262      33.081204      25.879387      3.5510545    
-807637.48      2.8260789      32.079123      25.887763      3.1563583    
-807625.6       3.513836       33.030443      25.895484      2.7616946    
-807620.84      3.0287836      34.439984      25.886106      2.3670669    
-807620.25      2.4801687      33.17203       25.858827      1.972477     
-807627.43      2.8741116      33.174987      25.832775      1.577922     
-807636.11      3.1831152      32.511345      25.899526      1.183391     
-807645.09      2.9248118      32.651556      25.901002      0.78889367   
-807646.46      3.6355172      32.97104       25.87891       0.39443074   
-807643.84      4.4594723      32.577924      25.895067      0            
Loop time of 197.207 on 32 procs for 5000 steps with 1080 atoms

Performance: 4.381 ns/day, 5.478 hours/ns, 25.354 timesteps/s, 27.382 katom-step/s
67.3% CPU use with 32 MPI tasks x 1 OpenMP threads

MPI task timing breakdown:
Section |  min time  |  avg time  |  max time  |%varavg| %total
---------------------------------------------------------------
Pair    | 104.22     | 145.24     | 192.6      | 305.4 | 73.65
Neigh   | 0          | 0          | 0          |   0.0 |  0.00
Comm    | 2.2639     | 49.596     | 90.605     | 522.5 | 25.15
Output  | 0.029379   | 0.030085   | 0.031763   |   0.2 |  0.02
Modify  | 1.9743     | 2.0206     | 2.0451     |   1.3 |  1.02
Other   |            | 0.3218     |            |       |  0.16

Nlocal:          33.75 ave          48 max          21 min
Histogram: 8 8 0 0 0 0 0 8 0 8
Nghost:        1106.25 ave        1119 max        1092 min
Histogram: 8 0 8 0 0 0 0 0 8 8
Neighs:              0 ave           0 max           0 min
Histogram: 32 0 0 0 0 0 0 0 0 0
FullNghs:       5494.5 ave        7896 max        3378 min
Histogram: 8 8 0 0 0 0 0 8 0 8

Total # of neighbors = 175824
Ave neighs/atom = 162.8
Neighbor list builds = 0
Dangerous builds = 0

reset_timestep 0


variable interval equal 1000
thermo 10

variable nintervals equal $(v_PERIOD/v_interval)
variable nintervals equal 100
variable efield equal 1e-2*36.36*cos((step/${PERIOD})*2*3.14)
variable efield equal 1e-2*36.36*cos((step/100000)*2*3.14)
fix born all addbornforce 0.0 0.0 v_efield

variable Px equal f_born[1]+c_polarization[1]
variable Py equal f_born[2]+c_polarization[2]
variable Pz equal (f_born[3]+c_polarization[3])/vol
variable pe equal pe

fix aveP all ave/time 1 $(v_interval/2) ${interval} v_efield v_Pz v_pe f_born file Pz.${MODEL}.${STRUCTURE}.${TEMP}.$L.${ITER}
fix aveP all ave/time 1 500 ${interval} v_efield v_Pz v_pe f_born file Pz.${MODEL}.${STRUCTURE}.${TEMP}.$L.${ITER}
fix aveP all ave/time 1 500 1000 v_efield v_Pz v_pe f_born file Pz.${MODEL}.${STRUCTURE}.${TEMP}.$L.${ITER}
fix aveP all ave/time 1 500 1000 v_efield v_Pz v_pe f_born file Pz.BaTiO3-E0.${STRUCTURE}.${TEMP}.$L.${ITER}
fix aveP all ave/time 1 500 1000 v_efield v_Pz v_pe f_born file Pz.BaTiO3-E0.BaTiO3-sc333.${TEMP}.$L.${ITER}
fix aveP all ave/time 1 500 1000 v_efield v_Pz v_pe f_born file Pz.BaTiO3-E0.BaTiO3-sc333.290.$L.${ITER}
fix aveP all ave/time 1 500 1000 v_efield v_Pz v_pe f_born file Pz.BaTiO3-E0.BaTiO3-sc333.290.2.${ITER}
fix aveP all ave/time 1 500 1000 v_efield v_Pz v_pe f_born file Pz.BaTiO3-E0.BaTiO3-sc333.290.2.1

thermo_style custom step time temp press pe f_born v_efield v_Pz spcpu cpuremain

# dump 4a all custom 1000 dump.hyst.${MODEL}.${STRUCTURE}.${TEMP}.$L.${ITER}.bin id type xu yu zu fx fy fz
# dump_modify 4a sort id

fix nvt all nvt temp ${TEMP} ${TEMP} $(100*dt)
fix nvt all nvt temp 290 ${TEMP} $(100*dt)
fix nvt all nvt temp 290 290 $(100*dt)
fix nvt all nvt temp 290 290 0.2000000000000000111

run $(v_PERIOD)
run 100000
WARNING: non-constant efield is experimental, strongly distrust scalar/vector output (src/fix_addbornforce.cpp:193)
Per MPI rank memory allocation (min/avg/max) = 3.516 | 3.516 | 3.516 Mbytes
   Step          Time           Temp          Press          PotEng         f_born        v_efield         v_Pz          S/CPU         CPULeft    
         0   0              289.06884      123510.91     -807643.84     -294.02292      0.3636         0.055297415    0              0            
        10   0.02           289.56417      132857.5      -807633.47     -304.52251      0.36359993     0.057272103    28.495248      3509.025     
        20   0.04           291.33129      138467.73     -807627.4      -310.89606      0.36359971     0.058470822    28.536331      3506.139     
        30   0.06           276.47037      145051.11     -807618.83     -317.36851      0.36359935     0.059688167    28.552042      3504.301     
        40   0.08           276.59429      142007.01     -807620.56     -315.71505      0.36359885     0.059377281    28.551547      3503.2217    
        50   0.1            282.84537      137839.62     -807626.94     -310.06069      0.36359821     0.058313955    28.539932      3502.7201    
        60   0.12           286.59357      128425.01     -807639.23     -298.23153      0.36359742     0.056089333    28.585104      3501.345     
        70   0.14           280.9543       123913.78     -807645.64     -290.83426      0.36359649     0.054698246    28.523063      3501.3498    
        80   0.16           277.79783      121667.14     -807646.37     -289.56864      0.36359541     0.054460377    28.48208       3501.8958    
        90   0.18           288.30111      126469.18     -807641.61     -295.61153      0.36359419     0.055597077    28.509472      3501.8686    
       100   0.2            299.8162       132287.47     -807635.22     -303.52141      0.36359283     0.057084939    28.527842      3501.5501    
       110   0.22           295.56891      141032.43     -807624.64     -313.32409      0.36359132     0.058928826    28.521966      3501.2916    
       120   0.24           276.44364      144447.61     -807617.88     -317.29101      0.36358968     0.059675181    28.523177      3501.0055    
       130   0.26           291.61699      142829.56     -807621.46     -315.5023       0.36358788     0.059339058    28.514429      3500.7921    
       140   0.28           289.08467      135604.8      -807629.77     -306.65679      0.36358595     0.057675719    28.522285      3500.4898    
       150   0.3            300.35889      128075.45     -807640.07     -297.59883      0.36358387     0.055972426    28.505005      3500.3235    
       160   0.32           284.61453      122432.97     -807644.18     -290.94655      0.36358165     0.0547216      28.514094      3500.0635    
       170   0.34           276.29726      123146.97     -807643.24     -290.4642       0.36357928     0.054631233    28.519961      3499.7507    
       180   0.36           295.96028      126870.75     -807640.24     -295.98184      0.36357677     0.055669389    28.508655      3499.5109    
       190   0.38           303.56156      134619.82     -807630.96     -306.12149      0.36357412     0.057576913    28.545001      3499.0247    
       200   0.4            295.20479      142144.73     -807621.27     -314.47717      0.36357132     0.059148947    28.500194      3498.827     
       210   0.42           299.00221      144097.28     -807619.17     -316.91439      0.36356838     0.059607839    28.599098      3498.038     
       220   0.44           296.91191      141488.35     -807622.01     -313.62664      0.3635653      0.058989951    28.544512      3497.5923    
       230   0.46           304.1328       134941.41     -807630.46     -306.05891      0.36356207     0.05756705     28.533641      3497.2127    
       240   0.48           299.60715      128337.2      -807638.66     -297.11999      0.3635587      0.055886235    28.473686      3497.1424    
       250   0.5            283.65196      123025.7      -807643.38     -290.08935      0.36355519     0.054564346    28.526132      3496.7919    
       260   0.52           285.33263      124204.33     -807643.47     -290.20831      0.36355153     0.05458727     28.509716      3496.5188    
       270   0.54           288.56763      128633.2      -807637.09     -297.12431      0.36354773     0.055888733    28.528655      3496.154     
       280   0.56           308.33016      135957.61     -807629.09     -307.90152      0.36354379     0.057916542    28.510398      3495.8702    
       290   0.58           301.67983      142146.94     -807622.15     -313.93676      0.3635397      0.05905244     28.557555      3495.3826    
       300   0.6            295.59003      144446.08     -807618.93     -316.33478      0.36353547     0.059504206    28.556068      3494.9102    
       310   0.62           295.77586      141594.85     -807621.68     -313.67689      0.3635311      0.059004954    28.541183      3494.5044    
       320   0.64           308.14516      133653.13     -807631.93     -305.2346       0.36352658     0.057417609    28.509836      3494.2221    
       330   0.66           285.65773      127447.56     -807638.22     -295.82376      0.36352192     0.055648051    28.521983      3493.8905    
       340   0.68           282.04856      123580.78     -807643.87     -289.721        0.36351712     0.054500768    28.48921       3493.6761    
       350   0.7            283.22625      124052.55     -807641.62     -292.23411      0.36351217     0.054974268    28.521432      3493.341     
       360   0.72           297.65864      129358.52     -807636.87     -299.12969      0.36350708     0.056272234    28.510341      3493.0426    
       370   0.74           301.42324      136511.99     -807628.68     -307.937        0.36350185     0.057929899    28.520466      3492.7081    
       380   0.76           301.65789      142116.22     -807622.16     -314.60247      0.36349647     0.059184699    28.530167      3492.3412    
       390   0.78           298.15486      143628.22     -807620.02     -316.35138      0.36349095     0.059514617    28.517541      3492.015     
       400   0.8            295.17529      139629.77     -807624.23     -311.8539       0.36348529     0.05866943     28.51314       3491.7009    
       410   0.82           298.92077      132939.13     -807634.02     -302.65037      0.36347948     0.056938868    28.533977      3491.323     
       420   0.84           292.36942      125453.9      -807640.48     -295.37962      0.36347353     0.055571901    28.515224      3491.0008    
       430   0.86           282.12328      123704.74     -807643.86     -290.62835      0.36346744     0.054678928    28.514804      3490.6787    
       440   0.88           272.66874      124905.28     -807640.98     -292.32455      0.3634612      0.054998995    28.496053      3490.4073    
       450   0.9            300.57142      130322.22     -807637.62     -299.63394      0.36345482     0.056375199    28.465823      3490.2149    
       460   0.92           299.27374      136743.13     -807628.38     -308.88977      0.3634483      0.058117698    28.58608       3489.6959    
       470   0.94           287.84062      142896.21     -807620.11     -315.63917      0.36344163     0.059388689    28.527916      3489.3351    
       480   0.96           290.48561      143191.71     -807621        -315.1803       0.36343482     0.059303462    28.511686      3489.016     
       490   0.98           298.93932      137884.56     -807627.55     -309.94609      0.36342786     0.058319723    28.534756      3488.6381    
       500   1              296.34731      131565.26     -807635.15     -302.04911      0.36342077     0.056834932    28.504251      3488.3359    
       510   1.02           286.47221      124902.5      -807641.09     -9432.5841      0.36341353     0.055466037    28.501226      3488.0391    
       520   1.04           278.65761      122966.81     -807644.76     -9282.6141      0.36340614     0.054585284    28.442114      3487.8798    
       530   1.06           281.70654      125709.99     -807642.13     -9382.6658      0.36339862     0.055174768    28.507622      3487.5614    
       540   1.08           294.51984      131139.84     -807635.66     -9652.1285      0.36339095     0.056760542    28.504892      3487.2481    
       550   1.1            285.94653      138642.2      -807625.43     -9944.3787      0.36338313     0.058480413    28.444153      3487.069     
       560   1.12           290.16545      141886.7      -807622.18     -10068.105      0.36337518     0.059209311    28.449048      3486.8728    
       570   1.14           277.82372      142320.94     -807620.95     -10053.677      0.36336707     0.059125783    28.518183      3486.5226    
       580   1.16           297.23417      136865.73     -807628.33     -9906.2164      0.36335883     0.058259886    28.519234      3486.1701    
       590   1.18           298.02252      131116.52     -807636.02     -9663.8388      0.36335044     0.05683574     28.515303      3485.8259    
       600   1.2            277.89693      125383.74     -807642.18     -9376.9343      0.36334191     0.055149669    28.513146      3485.4859    
       610   1.22           279.62312      124568.77     -807644.08     -9322.6633      0.36333324     0.054831788    28.524734      3485.1222    
       620   1.24           284.07205      125111.39     -807641.39     -9432.0168      0.36332442     0.055476303    28.524995      3484.7585    
       630   1.26           298.49127      132678.4      -807633.65     -9745.7307      0.36331546     0.057322888    28.520001      3484.4049    
       640   1.28           290.00652      137505.69     -807627.38     -9910.0372      0.36330636     0.058290774    28.499451      3484.0907    
       650   1.3            276.20685      143710.41     -807620.38     -10071.623      0.36329711     0.05924273     28.527416      3483.7227    
       660   1.32           296.48711      140987.75     -807624.32     -10038.481      0.36328772     0.05904931     28.517944      3483.3727    
       670   1.34           300.80845      136856.44     -807629.9      -9875.3425      0.36327819     0.058091204    28.529946      3483.001     
       680   1.36           283.90335      129158.81     -807637.46     -9558.9538      0.36326851     0.056231562    28.51067       3482.6644    
       690   1.38           272.9035       125956.65     -807641.79     -9365.7843      0.36325869     0.055096711    28.516479      3482.3171    
       700   1.4            277.70188      123054.72     -807644.22     -9311.0627      0.36324873     0.054776299    28.510522      3481.9802    
       710   1.42           284.33202      127784.94     -807639.66     -9483.9321      0.36323863     0.055794829    28.52058       3481.6255    
       720   1.44           293.35811      133377.17     -807633.39     -9723.7217      0.36322838     0.057207147    28.51883       3481.274     
       730   1.46           284.78635      140039.37     -807624.12     -9977.1628      0.36321798     0.058699886    28.510227      3480.9368    
       740   1.48           295.78687      142263.95     -807622.36     -10077.275      0.36320745     0.059290607    28.50706       3480.6046    
       750   1.5            299.65438      141252.46     -807624.2      -10029.197      0.36319677     0.059009471    28.4482        3480.3678    
       760   1.52           294.15546      134425        -807630.1      -9809.4766      0.36318595     0.057718408    28.524228      3480.0057    
       770   1.54           284.98801      128254.05     -807637.29     -9529.4472      0.36317498     0.056072424    28.5092        3479.6677    
       780   1.56           283.08081      123752.04     -807642.79     -9337.431       0.36316387     0.054944258    28.514673      3479.3208    
       790   1.58           276.29925      124382.07     -807641.29     -9347.1631      0.36315262     0.055003229    28.52175       3478.9629    
       800   1.6            294.96948      128416.59     -807638.45     -9515.1641      0.36314122     0.055993584    28.510874      3478.6217    
       810   1.62           300.0754       134686.45     -807631.44     -9756.9191      0.36312968     0.057418057    28.439075      3478.3888    
       820   1.64           293.31259      141580.37     -807622.49     -10006.179      0.363118       0.058886807    28.530872      3478.0162    
       830   1.66           301.74945      142866.55     -807621.66     -10065.358      0.36310618     0.059237008    28.523648      3477.6546    
       840   1.68           299.76485      140272.15     -807623.93     -9977.4023      0.36309421     0.058721306    28.521813      3477.296     
       850   1.7            302.97171      134133.03     -807631.56     -9742.4849      0.3630821      0.057340628    28.513906      3476.9489    
       860   1.72           291.56361      128666.02     -807637.1      -9507.6674      0.36306984     0.055960469    28.519694      3476.5935    
       870   1.74           291.15814      125241.19     -807642.12     -9341.8717      0.36305745     0.054986502    28.519717      3476.2382    
       880   1.76           290.81159      125637.73     -807641.73     -9349.2415      0.3630449      0.055031781    28.498492      3475.9125    
       890   1.78           300.77401      129282.19     -807636.56     -9558.2607      0.36303222     0.056264082    28.515173      3475.5632    
       900   1.8            299.51451      135260.97     -807628.55     -9808.8038      0.36301939     0.057740928    28.523296      3475.203     
       910   1.82           302.90301      141155.9      -807623.34     -9989.574       0.36300642     0.058807159    28.520279      3474.847     
       920   1.84           298.74826      141792.13     -807621.51     -10029.49       0.36299331     0.059044271    28.517166      3474.4953    
       930   1.86           295.88992      140218.75     -807623.84     -9942.667       0.36298005     0.058535277    28.523023      3474.1359    
       940   1.88           296.17822      133392.73     -807631.72     -9692.7835      0.36296665     0.057066249    28.503184      3473.8024    
       950   1.9            299.68205      127963.11     -807638.96     -9475.0393      0.36295311     0.055786362    28.524887      3473.4408    
       960   1.92           285.55018      124441.63     -807641.73     -9326.3253      0.36293942     0.054912846    28.498787      3473.1124    
       970   1.94           291.59734      126643.85     -807639.62     -9423.1734      0.36292559     0.055485196    28.438063      3472.8601    
       980   1.96           302.36557      129534.4      -807636.33     -9584.0913      0.36291162     0.05643488     28.43895       3472.6047    
       990   1.98           296.68628      138404.87     -807626.61     -9874.5235      0.3628975      0.05814732     28.451303      3472.3321    
      1000   2              287.64738      141276.67     -807621.72     -9999.0109      0.36288325     0.058882693    28.464511      3472.0417    
      1010   2.02           294.88927      142780.43     -807621.22     -314.07709      0.36286884     0.059188058    28.495509      3471.7127    
      1020   2.04           302.49377      136844.59     -807628.22     -308.40719      0.3628543      0.058121891    28.539767      3471.3304    
      1030   2.06           297.73455      132250.26     -807634.22     -301.93797      0.36283961     0.056905017    28.506839      3470.9876    
      1040   2.08           286.91705      126400.36     -807640.37     -294.48307      0.36282478     0.055502291    28.514451      3470.6358    
      1050   2.1            280.84978      125361.81     -807642.08     -292.12984      0.3628098      0.055061041    28.516354      3470.2818    
      1060   2.12           281.36296      126987.05     -807639.61     -294.87802      0.36279469     0.055581338    28.515423      3469.9289    
      1070   2.14           289.39528      131861.46     -807634.6      -301.27436      0.36277943     0.056789369    28.517939      3469.5732    
      1080   2.16           296.82808      137608        -807628.14     -308.9308       0.36276402     0.058235058    28.561537      3469.1686    
      1090   2.18           296.07592      140773.87     -807624.76     -312.4195       0.36274848     0.058895221    28.66361       3468.6518    
      1100   2.2            287.97864      141538.23     -807623.57     -312.52343      0.36273279     0.058917362    28.582855      3468.2267    
      1110   2.22           295.05123      136649.14     -807630.48     -306.75486      0.36271695     0.057832387    28.675717      3467.702     
      1120   2.24           282.99593      131827.2      -807634.75     -300.84346      0.36270098     0.05672041     28.749059      3467.102     
      1130   2.26           286.70004      125597.78     -807642.52     -293.70493      0.36268486     0.055376988    28.627597      3466.6355    
      1140   2.28           273.23137      125801.5      -807641.9      -292.40909      0.3626686      0.055135134    28.501436      3466.3051    
      1150   2.3            276.38588      126627.77     -807639.75     -295.09155      0.36265219     0.055643442    28.514327      3465.9608    
      1160   2.32           296.1239       132791.5      -807634.82     -302.76054      0.36263564     0.057092137    28.51845       3465.612     
      1170   2.34           287.11458      137087.06     -807627.39     -309.00572      0.36261895     0.058272486    28.512549      3465.2694    
      1180   2.36           289.435        142488.5      -807623.71     -312.95567      0.36260212     0.059020108    28.536797      3464.9016    
      1190   2.38           281.20169      139625.39     -807624.83     -310.73482      0.36258514     0.058604024    28.532976      3464.538     
      1200   2.4            293.44878      136692.54     -807630.24     -306.90643      0.36256802     0.057884729    28.508394      3464.1996    
      1210   2.42           288.16884      129056.6      -807637.45     -298.92714      0.36255076     0.056382462    28.501391      3463.868     
      1220   2.44           282.55236      126184.15     -807641.31     -294.11605      0.36253335     0.055477679    28.547255      3463.4903    
      1230   2.46           287.24516      124284.14     -807644.19     -291.8777       0.3625158      0.055058134    28.481536      3463.1781    
      1240   2.48           283.53021      129030.75     -807638.9      -296.58651      0.36249811     0.055949108    28.543823      3462.8042    
      1250   2.5            295.70827      132947.97     -807634.25     -302.93138      0.36248028     0.057148836    28.513407      3462.4602    
      1260   2.52           288.83027      138464.46     -807626.23     -309.85716      0.3624623      0.058458304    28.586947      3462.0454    
      1270   2.54           292.20564      139748.9      -807625.1      -311.40226      0.36244418     0.058752742    28.515491      3461.6998    
      1280   2.56           283.85864      139564.42     -807624.24     -310.99657      0.36242592     0.058679159    28.552498      3461.319     
      1290   2.58           292.21652      134522.99     -807631.33     -304.98216      0.36240751     0.057547275    28.570998      3460.9214    
      1300   2.6            294.90913      129398.31     -807638.25     -298.26576      0.36238896     0.056282835    28.551894      3460.5422    
      1310   2.62           282.138        126263.99     -807641.29     -293.32862      0.36237027     0.05535405     28.501958      3460.2098    
      1320   2.64           283.97471      126031.69     -807641.4      -293.31217      0.36235143     0.055353823    28.487798      3459.8901    
      1330   2.66           285.71315      129598.29     -807636.69     -298.17206      0.36233245     0.056273928    28.531867      3459.5297    
      1340   2.68           299.43102      133500.06     -807633.31     -303.43592      0.36231333     0.057270397    28.521324      3459.179     
      1350   2.7            289.32908      140461.95     -807625.34     -309.83949      0.36229407     0.058482115    28.524148      3458.8257    
      1360   2.72           291.09296      140480.25     -807623.76     -311.61722      0.36227466     0.058820811    28.498396      3458.4955    
      1370   2.74           298.81203      139530.55     -807626.46     -309.80296      0.36225511     0.058481508    28.532766      3458.1345    
      1380   2.76           296.24543      132464.19     -807633.34     -302.50252      0.36223542     0.057106507    28.52778       3457.7781    
      1390   2.78           288.13371      129965.76     -807636.53     -297.97674      0.36221558     0.05625521     28.507344      3457.4395    
      1400   2.8            283.41289      125467.72     -807641.87     -291.95773      0.3621956      0.055121917    28.496371      3457.1104    
      1410   2.82           280.41647      126923.32     -807639.58     -293.63909      0.36217548     0.055442441    28.522091      3456.7588    
      1420   2.84           301.28192      128699.12     -807638.38     -297.74075      0.36215522     0.056220027    28.543294      3456.3891    
      1430   2.86           294.60246      135871.2      -807629.8      -305.27119      0.36213481     0.057645189    28.494301      3456.0612    
      1440   2.88           300.56708      138516.9      -807626.52     -309.37876      0.36211426     0.058424148    28.531873      3455.7013    
      1450   2.9            297.6986       140587.04     -807624.33     -311.0268       0.36209357     0.058738726    28.514838      3455.3559    
      1460   2.92           301.33321      137795.78     -807627.64     -308.1713       0.36207273     0.058202801    28.598355      3454.9412    
      1470   2.94           287.49088      133438.78     -807631.34     -302.43081      0.36205176     0.057121932    28.60951       3454.5182    
      1480   2.96           289.51687      128665.84     -807637.32     -296.62269      0.36203064     0.056028187    28.534272      3454.1577    
      1490   2.98           289.55003      125475.95     -807641.09     -292.77516      0.36200937     0.055304685    28.526564      3453.8035    
      1500   3              290.33003      127741.08     -807639.11     -294.75437      0.36198796     0.055681848    28.566261      3453.4173    
      1510   3.02           299.98146      128544.15     -807636.86     -9547.8862      0.36196642     0.056368503    28.488552      3453.094     
      1520   3.04           291.12711      136159.88     -807627.67     -9796.604       0.36194472     0.05784034     28.519063      3452.7459    
      1530   3.06           304.87542      137845.14     -807626.79     -9885.8922      0.36192289     0.05837103     28.431315      3452.4674    
      1540   3.08           298.27586      141995.3      -807622.71     -9979.4139      0.36190091     0.058926805    28.462162      3452.1637    
      1550   3.1            298.3944       136711.37     -807627.62     -9820.0831      0.36187879     0.057989527    28.515264      3451.8177    
      1560   3.12           291.30055      134511.67     -807630.84     -9674.6446      0.36185653     0.0571342      28.555658      3451.4404    
      1570   3.14           306.21742      126318.59     -807640.58     -9424.8844      0.36183412     0.055662672    28.481877      3451.1203    
      1580   3.16           292.8532       127673.78     -807638.76     -9411.1396      0.36181157     0.05558496     28.501391      3450.7849    
      1590   3.18           297.57097      126019.72     -807640.11     -9385.5188      0.36178888     0.055437113    28.507937      3450.4442    
      1600   3.2            298.84552      132344.48     -807633.55     -9591.3358      0.36176605     0.056656381    28.43618       3450.1579    
      1610   3.22           296.56293      135988.92     -807628.44     -9741.6014      0.36174307     0.05754766     28.440044      3449.8678    
      1620   3.24           302.85856      141180.42     -807622.95     -9936.3525      0.36171995     0.058701887    28.529403      3449.5102    
      1630   3.26           301.94093      138829.17     -807623.28     -9919.1039      0.36169669     0.058603755    28.533559      3449.1494    
      1640   3.28           301.40753      137679.17     -807626.88     -9793.9453      0.36167329     0.057868041    28.506626      3448.8087    
      1650   3.3            309.45768      131666.74     -807633.83     -9604.0939      0.36164974     0.056749988    28.528465      3448.4519    
      1660   3.32           303.22275      128325.75     -807637.38     -9460.5454      0.36162605     0.055905432    28.514608      3448.1052    
      1670   3.34           295.51801      126618.01     -807639.58     -9355.6337      0.36160222     0.055289118    28.508692      3447.7628    
      1680   3.36           295.40678      127437.55     -807638.25     -9397.7431      0.36157824     0.055541655    28.505894      3447.4223    
      1690   3.38           299.97874      131414.12     -807633.18     -9584.0642      0.36155413     0.056646611    28.522538      3447.0697    
      1700   3.4            301.51519      136784.52     -807626.9      -9793.7356      0.36152987     0.057889758    28.55216       3446.6962    
      1710   3.42           306.06696      140485.58     -807624.12     -9906.5057      0.36150546     0.058560283    28.501474      3446.3587    
      1720   3.44           300.18817      139221.67     -807624.54     -9870.2611      0.36148092     0.058349992    28.516834      3446.0102    
      1730   3.46           301.28503      137478.66     -807627.45     -9786.2624      0.36145623     0.057857369    28.593361      3445.6085    
      1740   3.48           301.89165      131492.19     -807633.54     -9601.1758      0.3614314      0.056767018    28.520742      3445.2576    
      1750   3.5            301.81819      128223.02     -807638.65     -9442.1006      0.36140643     0.055830343    28.520106      3444.9072    
      1760   3.52           290.2199       125115.82     -807641.84     -9297.2381      0.36138131     0.054977603    28.501871      3444.5692    
      1770   3.54           293.6381       129184.11     -807637.76     -9449.3065      0.36135605     0.055880739    28.534731      3444.2087    
      1780   3.56           298.01385      131124.35     -807634.27     -9592.9845      0.36133065     0.056734401    28.516408      3443.8607    
      1790   3.58           298.01551      138004.29     -807627.36     -9820.1656      0.36130511     0.058082092    28.511377      3443.5161    
      1800   3.6            295.6801       137659.7      -807626.33     -9852.2428      0.36127942     0.058275957    28.524169      3443.1629    
      1810   3.62           288.15154      141353.67     -807623.27     -9918.8348      0.3612536      0.058674043    28.501706      3442.8247    
      1820   3.64           289.61097      134385.95     -807629.37     -9742.203       0.36122763     0.057633336    28.512871      3442.4789    
      1830   3.66           296.23979      132196.95     -807635.13     -9587.4254      0.36120151     0.056721796    28.528232      3442.1229    
      1840   3.68           277.89639      125925.43     -807639.38     -9376.9073      0.36117526     0.055480347    28.520589      3441.7721    
      1850   3.7            284.55674      127657.16     -807640.15     -9383.1703      0.36114886     0.055521461    28.50439       3441.4317    
      1860   3.72           287.29589      126863.09     -807639.62     -9419.3139      0.36112232     0.055739424    28.526186      3441.0772    
      1870   3.74           292.83116      134199.38     -807633.67     -9636.6472      0.36109564     0.057029722    28.523072      3440.7246    
      1880   3.76           293.60269      136165.17     -807630.03     -9760.7645      0.36106881     0.057768541    28.521901      3440.3729    
      1890   3.78           285.16626      140375.67     -807624.29     -9908.0607      0.36104184     0.058644685    28.511956      3440.0275    
      1900   3.8            286.60223      137400.74     -807627.27     -9824.4178      0.36101474     0.058153979    28.548527      3439.6589    
      1910   3.82           287.54947      134821.42     -807629.88     -9744.8189      0.36098748     0.057687161    28.500566      3439.3207    
      1920   3.84           290.31488      129766.27     -807636.64     -9542.6871      0.36096009     0.056494873    28.505639      3438.9792    
      1930   3.86           285.12562      127765.35     -807640.11     -9409.5062      0.36093255     0.055710662    28.506286      3438.6372    
      1940   3.88           268.19684      127527.34     -807638.45     -9387.2296      0.36090487     0.055583032    28.532405      3438.2789    
      1950   3.9            278.4557       128437.26     -807638.34     -9437.8992      0.36087705     0.055887362    28.498887      3437.9414    
      1960   3.92           291.54694      132378.14     -807634.12     -9630.8436      0.36084909     0.057034319    28.526283      3437.5868    
      1970   3.94           288.98211      136059.93     -807629.08     -9782.2719      0.36082098     0.057935597    28.526038      3437.2325    
      1980   3.96           277.84878      139784.19     -807624.97     -9862.0842      0.36079273     0.058412859    28.506518      3436.8901    
      1990   3.98           295.76246      136991.86     -807629.27     -9802.816       0.36076434     0.058066384    28.518601      3436.5403    
      2000   4              297.50884      134775.9      -807632.1      -9719.8208      0.36073581     0.057579322    28.511037      3436.1951    
      2010   4.02           284.8985       130631.27     -807635.82     -298.24183      0.36070713     0.056540722    28.558185      3435.8215    
      2020   4.04           279.95656      128526.57     -807638.92     -294.29682      0.36067831     0.055797284    28.533627      3435.4628    
      2030   4.06           281.82753      125895.11     -807641.85     -291.60737      0.36064935     0.055291816    28.484792      3435.1332    
      2040   4.08           286.49847      130248.45     -807637.47     -296.51989      0.36062025     0.056227819    28.526044      3434.779     
      2050   4.1            287.97675      132851.02     -807633.16     -301.00534      0.36059101     0.057083005    28.511071      3434.4337    
      2060   4.12           291.34593      137388.63     -807628.75     -305.68629      0.36056162     0.057975429    28.516471      3434.0851    
      2070   4.14           293.0359       137584.8      -807628.29     -306.27534      0.36053209     0.058091904    28.527465      3433.7301    
      2080   4.16           288.02842      138492.29     -807625.82     -307.84085      0.36050242     0.058393644    28.524862      3433.3766    
      2090   4.18           296.2243       133566.05     -807631.88     -302.80525      0.36047261     0.057443204    28.540834      3433.014     
      2100   4.2            284.83172      130955.1      -807634.98     -297.82801      0.36044265     0.056503699    28.475972      3432.6888    
      2110   4.22           278.7456       127704.48     -807639.06     -292.68092      0.36041256     0.055531834    28.509844      3432.3439    
      2120   4.24           287.23692      127775.49     -807639.46     -293.24748      0.36038232     0.055643999    28.517113      3431.9948    
      2130   4.26           291.67839      129424.18     -807636.62     -296.45526      0.36035193     0.05625742     28.521083      3431.6435    
      2140   4.28           292.99562      133671.7      -807632.79     -300.18143      0.36032141     0.056969351    28.514035      3431.2961    
      2150   4.3            299.8284       136995.61     -807628.91     -304.74039      0.36029075     0.057839487    28.526402      3430.9418    
      2160   4.32           300.0979       137992.66     -807626.44     -306.95961      0.36025994     0.058265676    28.512683      3430.5952    
      2170   4.34           300.6711       137451.57     -807626.2      -306.99823      0.36022899     0.058278012    28.531603      3430.238     
      2180   4.36           297.73006      133609.52     -807631.73     -300.84213      0.36019789     0.057114319    28.595988      3429.8455    
      2190   4.38           298.2189       130746.27     -807635.7      -296.63648      0.36016666     0.056320768    28.520589      3429.4947    
      2200   4.4            288.2038       127457.26     -807638.22     -292.55168      0.36013528     0.055550048    29.056843      3428.8562    
      2210   4.42           286.56769      129432.92     -807635.79     -294.53678      0.36010377     0.055931877    29.133335      3428.1804    
      2220   4.44           297.62769      128598.85     -807636.34     -295.49138      0.36007211     0.056118086    29.171798      3427.4877    
      2230   4.46           310.90409      134948.83     -807632.28     -301.17992      0.3600403      0.057203476    29.183494      3426.7921    
      2240   4.48           289.9639       136866.07     -807626.17     -304.41362      0.36000836     0.057822786    29.168999      3426.107     
      2250   4.5            307.74349      140423.25     -807624.73     -308.12177      0.35997627     0.058532358    29.1754        3425.4218    
      2260   4.52           303.22399      135696.31     -807628.44     -303.84565      0.35994404     0.057725213    29.18958       3424.7323    
      2270   4.54           306.05824      134196.31     -807632.28     -300.29182      0.35991167     0.057055181    29.194591      3424.0434    
      2280   4.56           294.90468      128640.22     -807635.97     -295.12241      0.35987916     0.056078064    29.1923        3423.3587    
      2290   4.58           299.72645      128555.47     -807637.85     -293.91363      0.35984651     0.055853444    29.130455      3422.708     
      2300   4.6            290.10816      127145.08     -807638.32     -292.21467      0.35981371     0.055535645    29.113532      3422.0684    
      2310   4.62           298.44213      131701.02     -807635.65     -296.09921      0.35978077     0.056279056    29.120211      3421.4281    
      2320   4.64           286.5144       133699.86     -807629.28     -301.01542      0.35974769     0.057218734    29.117451      3420.7917    
      2330   4.66           303.03646      138024.72     -807626.67     -305.96794      0.35971447     0.058165509    29.204131      3420.1151    
      2340   4.68           284.55956      138795.28     -807623.95     -306.25287      0.35968111     0.058225074    29.160842      3419.4626    
      2350   4.7            309.60016      136982.84     -807630.1      -303.67489      0.3596476      0.057740326    29.17584       3418.8054    
      2360   4.72           301.33921      133565.33     -807632.63     -300.12836      0.35961396     0.057071332    29.202034      3418.1381    
      2370   4.74           291.66293      129553.47     -807635.55     -296.02478      0.35958017     0.056296301    29.181085      3417.4837    
      2380   4.76           299.34783      127335.19     -807640.15     -292.58898      0.35954624     0.055648151    29.12601       3416.8584    
      2390   4.78           288.1098       127822.89     -807638.21     -293.11216      0.35951216     0.055752939    29.149272      3416.2244    
      2400   4.8            294.43352      131332.25     -807635.34     -297.00215      0.35947795     0.056498232    29.155938      3415.5896    
      2410   4.82           275.56211      135444.87     -807628.09     -301.76061      0.35944359     0.057408912    29.147569      3414.9612    
      2420   4.84           292.84948      137483.71     -807627.65     -304.66244      0.35940909     0.057966539    29.11149       3414.3523    
      2430   4.86           301.25334      136766.66     -807629.32     -304.21856      0.35937446     0.057887663    29.088395      3413.7565    
      2440   4.88           299.04268      136073.8      -807630.1      -303.1888       0.35933967     0.057697301    29.109501      3413.1529    
      2450   4.9            286.08971      132403.22     -807631.86     -299.65547      0.35930475     0.057030447    29.134171      3412.5398    
      2460   4.92           289.31783      129145.13     -807637.3      -294.59943      0.35926969     0.056073652    29.123522      3411.9338    
      2470   4.94           284.98566      127757.85     -807638.63     -292.64108      0.35923448     0.055706362    29.118801      3411.3322    
      2480   4.96           291.58866      128674.81     -807637.76     -294.49339      0.35919913     0.056064479    29.0919        3410.7451    
      2490   4.98           291.42883      131611.28     -807633.72     -298.50842      0.35916364     0.05683446     29.131954      3410.1415    
      2500   5              295.83667      134419.18     -807631.04     -301.79273      0.35912801     0.057465478    29.138819      3409.5368    
[...]
     98740   197.48         293.60397      133740.09     -807632.89     -9676.8643      0.36236891     0.057066503    30.083855      41.856179    
     98750   197.5          298.53189      132543.94     -807632.47     -9721.5164      0.36238762     0.057326866    30.13263       41.523983    
     98760   197.52         280.32843      135440.33     -807629.03     -9753.1778      0.36240618     0.057510625    30.150409      41.191785    
     98770   197.54         292.52393      132364.87     -807634.25     -9647.5339      0.36242459     0.056884794    30.188717      40.859581    
     98780   197.56         287.07002      133899.78     -807633        -9669.8786      0.36244287     0.057013671    30.208187      40.527375    
     98790   197.58         285.52044      132450.68     -807631.57     -9717.415       0.362461       0.05729108     30.169608      40.195174    
     98800   197.6          288.11522      132649.57     -807632.66     -9700.0022      0.36247899     0.057185581    30.103899      39.862983    
     98810   197.62         292.85091      131726.44     -807636.17     -9615.105       0.36249683     0.056682286    30.086757      39.530794    
     98820   197.64         281.4872       132749.03     -807633.36     -9661.6198      0.36251453     0.056953715    30.087705      39.198604    
     98830   197.66         281.20052      133759.88     -807630.61     -9756.1076      0.36253209     0.05750792     30.104355      38.866412    
     98840   197.68         278.60096      133767.94     -807631.39     -9725.1631      0.36254951     0.057322762    30.115512      38.534219    
     98850   197.7          282.7379       133094.78     -807633.62     -9675.7536      0.36256678     0.057028812    30.156112      38.202021    
     98860   197.72         282.75409      133029.63     -807633.32     -9692.6602      0.36258391     0.057125761    30.173124      37.86982     
     98870   197.74         281.25202      134297.01     -807631.23     -9757.4869      0.3626009      0.057505137    30.197993      37.537617    
     98880   197.76         284.02356      131782.17     -807633.98     -9685.9396      0.36261774     0.057080825    30.20639       37.205413    
     98890   197.78         287.76733      131901.4      -807636.49     -9622.9367      0.36263445     0.056706927    30.169818      36.873213    
     98900   197.8          282.03518      131364.99     -807635.34     -9638.4182      0.362651       0.056795565    30.096432      36.541023    
     98910   197.82         279.8947       133192.85     -807631.91     -9741.6104      0.36266742     0.057401039    30.105944      36.208832    
     98920   197.84         284.22051      132158.62     -807634.12     -9692.0953      0.36268369     0.057106716    30.12707       35.876638    
     98930   197.86         281.81586      133502.75     -807634.05     -9682.3015      0.36269982     0.057046473    30.115049      35.544445    
     98940   197.88         283.78872      132384.23     -807633.69     -9703.6333      0.36271581     0.057169637    30.122937      35.212252    
     98950   197.9          278.97448      133743.53     -807630.9      -9771.2381      0.36273165     0.057565421    30.129904      34.880058    
     98960   197.92         283.02212      132605.61     -807633.87     -9693.167       0.36274735     0.057103008    30.165184      34.547859    
     98970   197.94         286.45205      132506.14     -807635.81     -9640.3572      0.36276291     0.056789467    30.118001      34.215667    
     98980   197.96         283.22563      131518.15     -807634.51     -9666.7695      0.36277832     0.056942637    30.036844      33.883483    
     98990   197.98         278.68206      133089.62     -807631.72     -9727.8926      0.36279359     0.057300274    30.079235      33.551295    
     99000   198            290.99499      132013.08     -807634.34     -9689.3919      0.36280872     0.057071114    30.078451      33.219107    
     99010   198.02         286.60055      133349.14     -807633.85     -302.3132       0.3628237      0.056978233    30.206658      32.886904    
     99020   198.04         277.65093      133896.46     -807630.79     -303.72637      0.36283855     0.057242237    30.230989      32.554699    
     99030   198.06         289.42812      134742.83     -807630.1      -305.60998      0.36285324     0.057594902    30.253301      32.222493    
     99040   198.08         288.80513      133817.83     -807631.89     -303.20854      0.3628678      0.057140038    30.239749      31.890287    
     99050   198.1          296.19509      132692.52     -807634.14     -301.61536      0.36288221     0.056837543    30.176049      31.558089    
     99060   198.12         295.76105      133307.07     -807632.4      -302.96855      0.36289648     0.057090297    30.18082       31.225891    
     99070   198.14         285.88126      133514.9      -807630.31     -303.50799      0.36291061     0.057189721    30.233912      30.893687    
     99080   198.16         298.48958      132814.3      -807633.38     -301.95668      0.36292459     0.056895218    30.22977       30.561484    
     99090   198.18         289.14163      132631.9      -807632.18     -301.7375       0.36293843     0.056851751    30.197038      30.229284    
     99100   198.2          298.25619      133658.52     -807630.57     -304.54283      0.36295213     0.057378151    30.191438      29.897085    
     99110   198.22         302.93705      134194.67     -807630.91     -304.81604      0.36296568     0.057427482    30.247646      29.564881    
     99120   198.24         289.42529      135024.36     -807629.86     -303.93273      0.36297909     0.057258951    30.251058      29.232677    
     99130   198.26         306.55911      132821.34     -807633.15     -303.05426      0.36299236     0.057091365    30.215475      28.900477    
     99140   198.28         308.13615      132609.95     -807632.19     -304.22621      0.36300548     0.057310073    30.208341      28.568278    
     99150   198.3          292.99775      132778.24     -807630.54     -303.8287       0.36301846     0.057233144    30.235854      28.236076    
     99160   198.32         287.34602      132242.56     -807632.62     -300.98865      0.3630313      0.05669615     30.169285      27.903881    
     99170   198.34         298.34314      132255.77     -807633.9      -301.29215      0.36304399     0.056751335    30.165192      27.571686    
     99180   198.36         298.64205      133150.55     -807631.66     -303.70986      0.36305655     0.057204755    30.187572      27.239489    
     99190   198.38         297.6179       134155.76     -807630.6      -304.732        0.36306895     0.057395318    30.209845      26.907291    
     99200   198.4          293.40841      133492.05     -807631.35     -303.4784       0.36308122     0.057157275    30.239213      26.57509     
     99210   198.42         298.9151       134665.4      -807632.08     -303.61813      0.36309334     0.057181683    30.243921      26.242889    
     99220   198.44         300.33862      133582.22     -807631.58     -304.58403      0.36310532     0.057361702    30.222682      25.91069     
     99230   198.46         289.45947      133452.55     -807630.52     -304.24732      0.36311715     0.057296423    30.239852      25.57849     
     99240   198.48         286.42425      132036.94     -807634.3      -300.19085      0.36312885     0.056530681    30.238408      25.246291    
     99250   198.5          286.70562      132038.59     -807633.78     -300.93291      0.3631404      0.05666862     30.233384      24.914092    
     99260   198.52         293.21466      132348.19     -807631.94     -303.91626      0.3631518      0.057228617    30.214556      24.581895    
     99270   198.54         290.86614      132995.46     -807631.4      -304.34621      0.36316306     0.0573078      30.196262      24.2497      
     99280   198.56         289.99527      134017.62     -807632.45     -303.35058      0.36317418     0.057118576    30.174053      23.917506    
     99290   198.58         289.80158      134411.47     -807631.82     -304.14145      0.36318516     0.057265761    30.192524      23.585312    
     99300   198.6          296.67523      134428.38     -807630.58     -306.54714      0.36319599     0.057716999    30.149915      23.253121    
     99310   198.62         291.21248      133335.36     -807632.01     -304.56017      0.36320668     0.057341203    30.184727      22.920927    
     99320   198.64         289.48582      132472.4      -807634.83     -301.64425      0.36321723     0.056790557    30.193766      22.588733    
     99330   198.66         286.92443      131118.66     -807634.68     -301.58649      0.36322763     0.056778057    30.220844      22.256537    
     99340   198.68         292.67154      131519.26     -807634.28     -302.96213      0.36323789     0.05703543     30.198867      21.924343    
     99350   198.7          286.97384      132052.42     -807633.57     -303.03225      0.36324801     0.057047041    30.212236      21.592148    
     99360   198.72         289.63394      132785.13     -807634.76     -302.2879       0.36325798     0.056905353    30.243589      21.259951    
     99370   198.74         282.95047      133680.67     -807632.11     -304.12422      0.36326781     0.057249489    30.228966      20.927756    
     99380   198.76         276.85729      135363.09     -807628.88     -306.61352      0.3632775      0.057716544    30.217783      20.595561    
     99390   198.78         288.26951      134099.81     -807631.66     -305.50452      0.36328704     0.057506277    30.291877      20.263362    
     99400   198.8          283.19638      132964.25     -807633.83     -302.68067      0.36329644     0.05697326     30.295422      19.931163    
     99410   198.82         293.49617      131354.61     -807635.33     -302.65546      0.3633057      0.056967062    30.239705      19.598968    
     99420   198.84         275.70226      132405.85     -807631.76     -303.77445      0.36331481     0.057176249    30.26652       19.266772    
     99430   198.86         288.63414      131614.27     -807634.88     -302.47423      0.36332378     0.056930117    30.261697      18.934576    
     99440   198.88         285.49677      131679.06     -807634.83     -302.0766       0.36333261     0.056853896    30.213052      18.602384    
     99450   198.9          284.35182      132712.94     -807632.92     -303.85358      0.36334129     0.057186974    30.20757       18.270192    
     99460   198.92         283.20589      134876.28     -807629.84     -306.78773      0.36334983     0.05773784     30.160801      17.938003    
     99470   198.94         289.98299      134711.68     -807631.17     -306.41308      0.36335823     0.057665999    30.130158      17.605817    
     99480   198.96         280.06371      134424.91     -807632.11     -304.01685      0.36336648     0.057213735    30.133399      17.27363     
     99490   198.98         290.91189      133646.42     -807633.76     -303.81521      0.3633746      0.057174512    30.211649      16.941438    
     99500   199            283.90468      132584.7      -807632.75     -303.8206       0.36338256     0.057174273    30.143657      16.609251    
     99510   199.02         287.25693      130833.12     -807634.96     -9662.5284      0.36339039     0.056821787    30.029859      16.27707     
     99520   199.04         285.90012      130876.28     -807636.28     -9607.0448      0.36339807     0.056494314    30.079748      15.944886    
     99530   199.06         279.79459      131764.23     -807633.51     -9665.3617      0.3634056      0.056836069    30.084545      15.612702    
     99540   199.08         285.98787      133660.34     -807630.87     -9770.3565      0.363413       0.05745231     30.108661      15.280517    
     99550   199.1          293.29642      133499.76     -807631.76     -9765.7494      0.36342025     0.057424073    30.106572      14.948331    
     99560   199.12         296.12124      135430.77     -807631.51     -9773.9429      0.36342736     0.057471128    30.148861      14.616144    
     99570   199.14         289.75513      133702.37     -807631.18     -9747.5671      0.36343432     0.057314939    30.151591      14.283957    
     99580   199.16         293.53389      134916.15     -807629.99     -9788.2593      0.36344114     0.057553126    30.179924      13.951768    
     99590   199.18         296.49287      132130.6      -807634.2      -9659.8492      0.36344782     0.056797055    30.141334      13.619581    
     99600   199.2          301.82962      132266.68     -807634.76     -9650.9908      0.36345435     0.05674395     30.137597      13.287395    
     99610   199.22         293.17823      130698.73     -807634.22     -9623.3117      0.36346074     0.056580214    30.072021      12.955212    
     99620   199.24         298.50399      134217.59     -807631.55     -9725.7572      0.36346699     0.057181559    30.088136      12.623027    
     99630   199.26         291.27315      133439.62     -807631.11     -9703.1735      0.3634731      0.057047822    30.093966      12.290843    
     99640   199.28         296.6174       135557        -807630.18     -9751.0625      0.36347906     0.057328435    30.10059       11.958658    
     99650   199.3          297.85717      133933.01     -807630.07     -9759.4677      0.36348487     0.057376933    30.146449      11.626471    
     99660   199.32         299.66155      135827.93     -807628.98     -9798.3675      0.36349055     0.05760473     30.214786      11.294282    
     99670   199.34         298.1438       132742.41     -807631.42     -9713.6363      0.36349608     0.057105725    30.204333      10.962094    
     99680   199.36         299.73855      133366.57     -807632.74     -9676.7991      0.36350147     0.056888319    30.155935      10.629907    
     99690   199.38         292.4133       132491.04     -807632.37     -9658.7203      0.36350671     0.056781217    30.122539      10.297722    
     99700   199.4          304.08615      132541.63     -807632.69     -9701.75        0.36351181     0.057033378    30.08873       9.965538     
     99710   199.42         288.96732      133433.25     -807631.02     -9688.8037      0.36351677     0.056956494    30.130386      9.6333526    
     99720   199.44         300.69349      133148.06     -807632.78     -9688.7041      0.36352158     0.056955155    30.128757      9.3011672    
     99730   199.46         298.22809      134858.31     -807629.78     -9777.1214      0.36352625     0.057474178    30.162065      8.9689809    
     99740   199.48         292.04746      133793.74     -807629.3      -9770.0161      0.36353078     0.057431695    30.158793      8.6367949    
     99750   199.5          304.4983       134871.52     -807630.9      -9774.5359      0.36353516     0.057457571    30.156373      8.304609     
     99760   199.52         294.14124      132702.29     -807632.46     -9685.9791      0.3635394      0.056936344    30.173316      7.9724228    
     99770   199.54         293.16447      134715.6      -807631.12     -9726.8088      0.3635435      0.057175706    30.128237      7.6402379    
     99780   199.56         288.93568      130929.32     -807632.58     -9670.2645      0.36354745     0.056842712    30.089432      7.308054     
     99790   199.58         297.40352      133675.79     -807633.11     -9691.3952      0.36355126     0.056966323    30.068018      6.9758706    
     99800   199.6          294.68861      131573.36     -807634.07     -9657.1778      0.36355493     0.056764619    30.067279      6.6436871    
     99810   199.62         302.36087      134851.94     -807631.82     -9767.0111      0.36355845     0.05740966     30.107356      6.3115026    
     99820   199.64         293.96403      133341.74     -807631.82     -9737.3407      0.36356183     0.057234728    30.155414      5.9793173    
     99830   199.66         295.07724      135454.7      -807630.8      -9777.0191      0.36356507     0.05746744     30.169742      5.6471317    
     99840   199.68         294.53821      133125.35     -807633.28     -9704.3332      0.36356816     0.057039721    30.12086       5.3149472    
     99850   199.7          282.8659       134139.03     -807630.25     -9752.6992      0.36357111     0.05732354     30.087238      4.9827633    
     99860   199.72         280.23814      131387.8      -807632.14     -9685.9935      0.36357392     0.056931023    30.008038      4.6505805    
     99870   199.74         286.98161      132540.68     -807633.72     -9666.7894      0.36357658     0.056817732    30.046646      4.318397     
     99880   199.76         294.73021      131306.1      -807635.44     -9652.4607      0.3635791      0.05673312     30.041515      3.9862135    
     99890   199.78         289.72799      134134.67     -807632.03     -9741.0746      0.36358148     0.057253581    30.048797      3.6540297    
     99900   199.8          293.48226      133422.92     -807632.28     -9753.6067      0.36358371     0.057326887    30.117869      3.321845     
     99910   199.82         295.81367      134723        -807632.81     -9748.2395      0.3635858      0.057295012    30.139171      2.9896602    
     99920   199.84         284.54846      134057.34     -807630.89     -9762.1632      0.36358775     0.057376541    30.122558      2.6574755    
     99930   199.86         292.65668      133238.67     -807632.31     -9755.0772      0.36358955     0.057334609    30.145427      2.3252908    
     99940   199.88         278.35748      132950.82     -807631.48     -9721.4822      0.36359121     0.057136896    30.14254       1.9931061    
     99950   199.9          300.41866      131115.84     -807636.71     -9652.0321      0.36359273     0.056728475    30.158546      1.6609215    
     99960   199.92         284.02964      132476.84     -807634.15     -9663.6951      0.3635941      0.056796808    30.15269       1.328737     
     99970   199.94         295.18776      132197.49     -807634.41     -9706.3651      0.36359533     0.057047402    30.137464      0.99655261   
     99980   199.96         280.60538      133346.71     -807631.78     -9727.2242      0.36359641     0.057169826    30.149782      0.6643683    
     99990   199.98         286.98517      133770.08     -807632.73     -9726.2206      0.36359736     0.05716378     30.165522      0.33218408   
    100000   200            274.61405      134257        -807630.41     -9746.8428      0.36359816     0.057284856    30.174708      0            
Loop time of 3321.84 on 32 procs for 100000 steps with 1080 atoms

Performance: 5.202 ns/day, 4.614 hours/ns, 30.104 timesteps/s, 32.512 katom-step/s
60.1% CPU use with 32 MPI tasks x 1 OpenMP threads

MPI task timing breakdown:
Section |  min time  |  avg time  |  max time  |%varavg| %total
---------------------------------------------------------------
Pair    | 2575.9     | 2799.3     | 3029.1     | 214.4 | 84.27
Neigh   | 0.001233   | 0.0013527  | 0.001575   |   0.2 |  0.00
Comm    | 217.45     | 446.95     | 670.18     | 536.0 | 13.45
Output  | 2.4321     | 2.4408     | 2.4527     |   0.2 |  0.07
Modify  | 65.86      | 66.688     | 67.496     |   4.7 |  2.01
Other   |            | 6.491      |            |       |  0.20

Nlocal:          33.75 ave          40 max          28 min
Histogram: 3 2 4 4 0 9 3 5 0 2
Nghost:        1034.16 ave        1050 max        1020 min
Histogram: 4 5 2 3 1 4 3 5 2 3
Neighs:              0 ave           0 max           0 min
Histogram: 32 0 0 0 0 0 0 0 0 0
FullNghs:      5349.75 ave        6429 max        4372 min
Histogram: 3 2 4 4 1 7 5 4 0 2

Total # of neighbors = 171192
Ave neighs/atom = 158.51111
Neighbor list builds = 3
Dangerous builds = 0

Total wall time: 0:58:49
