
units		metal
atom_style	atomic

read_data ${STRUCTURE}.data
read_data BaTiO3-sc333.data
Reading data file ...
  orthogonal box = (0 0 0) to (11.898253 11.898253 12.912076)
  4 by 4 by 4 MPI processor grid
  reading atoms ...
  135 atoms
  read_data CPU = 0.064 seconds
replicate $L $L $L
replicate 2 $L $L
replicate 2 2 $L
replicate 2 2 2
Replication is creating a 2x2x2 = 8 times larger system...
  orthogonal box = (0 0 0) to (23.796507 23.796507 25.824152)
  4 by 4 by 4 MPI processor grid
  1080 atoms
  replicate CPU = 0.006 seconds

pair_style allegro
pair_coeff	* * ${MODEL}.pth Ba Ti O
pair_coeff	* * BaTiO3-E0.pth Ba Ti O
mass 1 137.3
mass 2 47.9
mass 3 15.9994

timestep 0.002
compute polarization all allegro polarization 3
compute allegro will evaluate the quantity polarization of length 3 (src/compute_allegro.cpp:53)
compute polarizability all allegro polarizability 9
compute allegro will evaluate the quantity polarizability of length 9 (src/compute_allegro.cpp:53)

thermo_style custom pe fmax fnorm spcpu cpuremain

variable efield equal 1e-2*36.36
fix born all addbornforce 0.0 0.0 ${efield}
fix born all addbornforce 0.0 0.0 0.3636

thermo 10
min_style fire
#minimize 0.0 1e-6 100 100
velocity all create ${TEMP} 126342 dist gaussian rot yes mom yes
velocity all create 280 126342 dist gaussian rot yes mom yes
fix nvt all nvt temp ${TEMP} ${TEMP} $(100*dt)
fix nvt all nvt temp 280 ${TEMP} $(100*dt)
fix nvt all nvt temp 280 280 $(100*dt)
fix nvt all nvt temp 280 280 0.2000000000000000111
run 5000
Neighbor list info ...
  update: every = 1 steps, delay = 0 steps, check = yes
  max neighbors/atom: 2000, page size: 100000
  master list distance cutoff = 8
  ghost atom cutoff = 8
  binsize = 8, bins = 3 3 4
  1 neighbor lists, perpetual/occasional/extra = 1 0 0
  (1) pair allegro/kk, perpetual
      attributes: full, newton on, kokkos_device
      pair build: full/bin/kk/device
      stencil: full/bin/3d
      bin: kk/device
Per MPI rank memory allocation (min/avg/max) = 3.592 | 3.592 | 3.592 Mbytes
    PotEng          Fmax          Fnorm          S/CPU         CPULeft    
-807708.43      1.5957984      37.03419       0              0            
-807648.61      3.0466134      45.055851      2.186209       2282.4909    
-807638.56      2.4235456      35.038984      35.595644      1208.9107    
-807611.12      2.7157596      36.557767      35.95428       850.39918    
-807607.84      3.908329       49.298103      35.979406      670.98029    
-807570.24      3.2126421      38.732169      36.007908      563.19593    
-807602.62      2.5624102      37.918587      36.059307      491.21455    
-807647.64      3.2886999      31.61909       36.030805      439.7355     
-807687         2.3142858      32.666599      35.963067      401.08901    
-807670.15      3.1562951      32.99435       35.979162      370.96199    
-807656.01      3.0793479      33.321539      36.080279      346.76667    
-807663.99      2.29035        25.738627      36.068155      326.92421    
-807633.2       2.3062684      28.738167      36.02339       310.35664    
-807589.25      2.810548       38.23641       36.022783      296.29542    
-807571.28      2.5524319      36.379465      36.068727      284.19097    
-807633.86      3.4429373      32.415231      36.025865      273.67417    
-807656.42      2.6834059      28.711862      36.023925      264.43772    
-807667.32      3.3002073      32.685871      35.996809      256.2612     
-807649.37      4.2283644      43.529329      36.025593      248.95637    
-807684.2       2.7816609      35.120119      36.0409        242.38826    
-807645.2       3.4122766      37.929331      36.035013      236.45031    
-807620.44      2.9147947      37.578342      36.087899      231.04218    
-807565.94      3.6173579      44.114892      34.434743      226.38953    
-807609.36      3.7818084      48.313292      33.998112      222.19356    
-807615.56      3.7049809      37.04416       36.230949      217.96323    
-807643.52      2.7795706      34.371958      36.356857      214.03109    
-807645.96      4.4053833      43.804731      36.896463      210.30692    
-807686.42      2.9129417      36.419056      33.811874      207.2717     
-807664.85      4.1496225      33.946428      36.932714      204.01087    
-807641.98      2.8438231      30.368431      37.01049       200.94701    
-807611.49      3.3002216      32.018501      37.02497       198.06773    
-807610.99      3.6229072      40.658853      37.035677      195.35561    
-807599.77      2.7962625      34.072496      36.954581      192.80479    
-807612.66      2.2425975      30.66868       37.051337      190.38217    
-807645.75      3.0385113      28.223045      37.081362      188.08317    
-807678.46      2.1729752      29.495725      37.095292      185.8988     
-807679.58      2.1146768      30.429011      36.989111      183.83077    
-807648.91      3.8564718      35.475291      37.061944      181.85327    
-807653.18      3.1574023      28.425625      37.03128       179.96837    
-807627.43      3.5105914      31.374271      37.0372        178.16577    
-807605.13      3.70319        40.833727      36.217         176.51011    
-807574.34      3.7690663      39.123336      36.171592      174.92563    
-807630.52      2.8434323      32.979276      36.17469       173.40318    
-807653.59      3.8313803      32.561247      36.19135       171.93733    
-807676.35      2.6274125      32.817095      36.161159      170.52794    
-807645.27      4.6415243      44.926942      36.13857       169.17065    
-807672.73      3.0474839      33.524828      36.185514      167.8568     
-807646.75      3.7523506      34.845299      36.134767      166.59083    
-807627.47      3.5162151      36.373861      36.146854      165.36522    
-807569.4       4.2006561      42.05029       36.217074      164.1734     
-807607.93      3.7255695      42.494291      36.179662      163.02077    
-807626.05      3.4929023      34.094633      36.107958      161.90734    
-807657.61      2.7098729      30.949111      36.163945      160.82239    
-807644.82      4.4312817      41.017737      36.172743      159.76738    
-807679.02      2.3749761      32.24723       36.159543      158.74204    
-807667.65      2.7504858      31.323273      36.063122      157.74991    
-807646.59      2.5566236      28.061573      36.126069      156.77948    
-807605.03      3.1648552      32.109326      36.205031      155.82869    
-807605.37      3.1032874      36.201318      36.179233      154.90267    
-807610.44      3.7605462      35.722585      36.154201      154.0001     
-807624.84      2.7707875      29.088334      36.16252       153.11793    
-807641.64      2.9900459      30.061333      36.163507      152.25556    
-807670.55      2.7488845      30.128274      36.144436      151.41312    
-807680.12      2.5518499      32.746832      36.127199      150.58955    
-807649.57      4.4231465      35.797671      36.177185      149.78047    
-807639.13      2.7504225      31.113863      36.151435      148.98909    
-807617.34      3.8628803      33.521224      36.168467      148.21246    
-807609.03      3.8686698      43.316517      36.105417      147.45388    
-807582.42      4.0162257      39.715087      36.135779      146.70798    
-807624.39      3.6718456      34.467689      36.244339      145.97051    
-807650.04      3.6455029      35.8996        36.208373      145.2479     
-807679.09      2.8467699      34.6218        36.538733      144.52279    
-807649.3       4.6364118      42.383589      37.056985      143.78746    
-807658.81      2.8955676      33.866272      37.059047      143.06479    
-807643.78      3.7257754      33.803015      37.061561      142.35426    
-807627.78      3.6716357      37.381544      37.02407       141.65703    
-807575.84      3.571259       38.891439      37.025889      140.97097    
-807599.99      3.3135086      38.751318      37.084781      140.29335    
-807632         3.2108118      30.993434      36.972855      139.63061    
-807665.02      2.2949821      29.745275      37.049535      138.97482    
-807651.01      3.4543125      36.58527       37.061685      138.32821    
-807665.95      2.6078946      32.710686      37.063115      137.69086    
-807667.51      2.6391268      30.47549       36.946685      137.06679    
-807647.24      3.4421575      28.855119      37.065792      136.44688    
-807603.81      2.9342975      33.458694      37.046381      135.83601    
-807592.93      3.5930943      36.219865      37.099117      135.23128    
-807613.97      3.468189       36.384585      37.039749      134.63642    
-807633.71      2.538824       28.799535      37.059632      134.04835    
-807644.49      3.4657271      31.127031      37.042787      133.46809    
-807660.17      3.0987072      33.395606      37.082092      132.89347    
-807677.13      2.8653461      33.802413      37.020011      132.32769    
-807652.93      3.8586831      34.784146      36.957204      131.77048    
-807632.94      2.9327795      32.25667       37.067855      131.21591    
-807607.08      4.0098662      35.480021      37.0604        130.6677     
-807610.25      3.8619487      43.276936      36.999415      130.12734    
-807599.74      3.9625994      35.582962      37.022366      129.59195    
-807624.02      3.2357415      33.391167      37.044272      129.06142    
-807646.95      3.1545634      34.155007      37.042001      128.53632    
-807677         2.4989633      34.304613      36.985585      128.01813    
-807658.69      3.2220502      36.392818      37.014767      127.50407    
-807650.63      2.8915309      32.547652      37.047406      126.99394    
-807636.73      3.6832092      32.028624      37.083801      126.48752    
-807626.96      3.4468172      36.557389      37.075265      125.98599    
-807590.77      2.9029903      36.425896      37.062222      125.48932    
-807599.34      2.7820182      36.252484      37.063095      124.99699    
-807633.13      2.8848684      30.425422      37.085732      124.50828    
-807667.09      2.5583114      30.167797      37.065532      124.02425    
-807661.65      3.4950134      33.001584      37.042662      123.54484    
-807657.53      3.3079166      33.169044      37.088681      123.06809    
-807662.05      2.3173937      29.105614      37.056103      122.59599    
-807645.06      2.4601696      28.820451      37.041579      122.12794    
-807609.79      2.9165728      33.085868      37.055719      121.6631     
-807586.5       3.1682499      36.306118      37.077665      121.20119    
-807616.86      3.1616462      34.183952      37.034901      120.74375    
-807641.26      4.2017968      31.192268      37.040017      120.28947    
-807653.29      3.1126976      31.717537      37.052152      119.83809    
-807653.31      4.6858741      37.481102      37.094119      119.38884    
-807672.81      2.9358786      33.31661       37.035706      118.94405    
-807654.03      3.7556615      34.12834       37.014384      118.50272    
-807631.88      2.7162036      32.432799      37.065628      118.06308    
-807596.49      3.4885727      36.483251      37.10228       117.62542    
-807609.41      4.3406997      39.82048       37.084675      117.19095    
-807612.18      4.2173402      34.148901      37.064314      116.75963    
-807634.2       3.0532123      30.993836      37.096964      116.33021    
-807645.16      4.3456488      34.643009      37.108107      115.90313    
-807673.94      2.515345       32.578487      37.058932      115.47964    
-807663.1       2.8647731      33.178738      37.022902      115.05936    
-807648.84      3.3290865      31.356141      37.079009      114.64026    
-807625.02      3.2462082      32.414831      37.071818      114.22364    
-807619.18      3.5355683      36.296325      37.003613      113.81072    
-807600.81      3.0597625      36.321572      36.947448      113.40117    
-807606.5       2.8488851      35.190772      36.877105      112.9952     
-807630.73      3.625033       32.451814      37.020934      112.58833    
-807663.47      2.6973711      32.44367       37.030921      112.18331    
-807665.21      2.8903427      33.876282      36.991896      111.78109    
-807653.5       4.2032919      34.814489      36.981224      111.38103    
-807649.35      2.9328426      31.200566      36.930689      110.98387    
-807637.68      3.451803       31.517316      37.049059      110.58627    
-807613.06      3.5206877      34.488174      37.035384      110.19077    
-807587.23      3.3858148      37.618163      37.019843      109.79738    
-807614.87      2.9614286      33.784214      37.07212       109.40476    
-807644.02      3.5326539      31.418256      37.012283      109.015      
-807661.15      3.1045596      31.299555      37.008829      108.62699    
-807650.98      5.2526563      36.974967      37.064606      108.23961    
-807663.16      2.9923811      32.704464      36.978932      107.85541    
-807651.85      4.0017362      33.052778      36.930612      107.47364    
-807633.36      2.9577689      32.078767      36.989688      107.09235    
-807593.45      3.770703       36.557919      37.064606      106.71125    
-807602.92      4.4745474      38.582501      37.065901      106.33163    
-807620.14      3.1387369      33.506079      36.797518      105.95813    
-807644.47      2.6556852      30.897497      37.028507      105.58202    
-807645.01      3.7386582      35.255141      36.975016      105.20823    
-807666.33      2.6608254      32.895695      37.043644      104.83464    
-807662.52      2.9179644      33.043593      36.830117      104.46596    
-807647.55      3.5714167      30.81808       36.965957      104.0963     
-807615.93      4.3556538      33.731205      37.018943      103.72706    
-807609.96      3.1687055      36.079166      36.975284      103.35979    
-807605.58      3.5298434      36.627207      37.000882      102.99334    
-807618.08      2.6618532      33.067752      36.788773      102.63149    
-807633.53      4.0140892      32.444121      37.005022      102.26736    
-807659.38      3.057157       32.236264      36.913751      101.90583    
-807667.95      2.8768747      33.182302      36.796072      101.54724    
-807654.63      3.3975288      33.465089      37.006648      101.18651    
-807639.6       3.5112858      32.380115      37.050286      100.82622    
-807630.07      2.8479381      31.773226      37.052281      100.467      
-807612.07      3.4989139      36.741301      37.022705      100.10931    
-807596.71      3.1066257      35.608812      36.911343      99.754312    
-807614.93      2.9422655      33.017861      36.992747      99.399131    
-807644.69      2.6091014      30.661562      37.014733      99.044643    
-807664.39      2.4049679      31.588465      36.999543      98.69137     
-807654.77      3.4358716      34.457572      37.01302       98.338883    
-807654.6       3.2461472      32.325335      37.006189      97.987454    
-807647.51      2.6172324      30.790204      36.964554      97.63755     
-807631.57      2.4811985      32.18969       37.018867      97.287815    
-807597.81      3.1654228      34.850126      36.974482      96.939602    
-807601.87      3.5849448      35.95605       37.048743      96.591269    
-807624.83      3.3376829      32.717358      37.085592      96.243334    
-807650.77      2.8851325      31.208948      37.057996      95.896651    
-807649.74      4.8212851      34.64859       37.06332       95.550761    
-807658.23      2.7124745      33.840677      37.068492      95.205653    
-807659.74      2.8872887      32.326616      37.035231      94.861813    
-807646.49      3.2320335      30.930313      37.040586      94.51872     
-807615.98      3.0200499      32.486158      36.977518      94.177235    
-807604.73      2.9448336      34.287588      37.081289      93.835215    
-807611.77      3.6709433      34.716174      36.893225      93.496343    
-807630.15      3.140013       30.907464      36.873861      93.158446    
-807638.33      3.7871548      31.502011      37.036677      92.819254    
-807656.42      3.3772844      31.681139      37.023682      92.480961    
-807666.1       2.7406897      31.959013      36.923213      92.144613    
-807654.13      3.2073033      31.484989      36.997469      91.808063    
-807636.71      3.2915848      30.453222      36.974033      91.472491    
-807620.46      2.9734977      31.842998      36.976668      91.137569    
-807613.88      3.5977755      35.245886      37.009834      90.80293     
-807608.1       3.1113614      34.818926      37.028977      90.468737    
-807622.6       3.5630876      31.957586      36.996981      90.135573    
-807643.38      3.6423322      32.798305      36.952782      89.80356     
-807662.4       2.9188866      32.848504      37.062034      89.470936    
-807655.55      3.7770028      34.237872      37.048101      89.139105    
-807648.37      3.3918621      33.178366      37.046375      88.807919    
-807638.71      3.1635438      31.84692       37.063282      88.477162    
-807626.36      2.8274387      34.003101      37.054448      88.147113    
-807603.58      4.0779754      35.279275      36.97876       87.818483    
-807605.52      4.0504068      35.106059      37.07741       87.489368    
-807627.59      3.4997102      32.357953      36.980622      87.16187     
-807651.77      2.6490212      31.014014      36.998291      86.834746    
-807654.18      3.1243613      33.10966       36.976306      86.508407    
-807652.05      3.5421371      34.387079      37.031945      86.18203     
-807652.07      4.2376022      32.028662      37.020781      85.856314    
-807641.54      2.5129452      31.463929      37.017268      85.531168    
-807614.92      3.0622637      34.196572      37.050056      85.206215    
-807601.48      3.164541       36.611693      37.086504      84.881421    
-807611.99      3.3336339      35.462519      37.055205      84.557461    
-807633.78      3.6635831      32.587197      37.021288      84.234347    
-807644.49      3.7541593      32.439869      36.98578       83.912081    
-807651.77      2.8220269      33.744598      37.039734      83.589772    
-807659.57      3.0606721      32.735675      36.985083      83.26848     
-807651.67      2.6904439      31.867945      37.007337      82.947445    
-807632.27      3.2284766      32.176904      37.043989      82.626529    
-807611.65      3.1014621      33.343668      37.05137       82.306013    
-807609.32      3.1323714      35.853641      37.077179      81.985717    
-807614.51      3.5261444      34.787932      37.055781      81.666079    
-807629.59      3.3074593      32.406419      37.039101      81.347045    
-807643.66      3.0606897      32.843903      37.027904      81.028556    
-807659.82      2.8789671      33.10995       36.970644      80.71102     
-807657.14      4.1211625      33.072413      36.877204      80.394749    
-807645.91      3.2171566      32.21159       37.024074      80.077564    
-807628.61      3.7123202      33.00428       36.987347      79.76112     
-807619.15      3.4834158      34.329666      37.043557      79.444589    
-807607.75      4.1235589      35.420664      36.957017      79.129221    
-807612.26      3.2611417      34.223284      37.028392      78.813627    
-807631.47      3.6161622      32.211795      37.04373       78.498298    
-807652.65      2.6507071      31.83716       37.022131      78.183545    
-807657.3       2.9436705      32.7003        37.014254      77.869243    
-807651.61      3.1316029      32.89868       37.030202      77.555187    
-807645.53      3.1275838      31.869702      36.942332      77.242236    
-807634.52      2.5972222      31.371227      37.057411      76.928699    
-807617.57      3.0236467      33.643552      36.979705      76.616164    
-807602.84      2.964909       35.589291      37.061603      76.303323    
-807618.45      3.268498       33.53654       36.968381      75.991592    
-807638.84      2.8596964      31.737317      37.024754      75.679756    
-807651.16      2.8727978      31.926707      36.990004      75.368543    
-807650.59      3.9571785      34.465006      36.893577      75.058429    
-807655.46      2.5142589      32.504518      36.93409       74.74832     
-807646.65      3.0978603      32.08532       36.972944      74.438235    
-807630.78      2.9058967      32.536431      37.020503      74.128109    
-807608.44      2.7132163      34.408456      37.013402      73.818364    
-807610.33      3.3343801      35.933511      36.900993      73.509791    
-807623.26      3.4857352      32.390025      36.913712      73.201426    
-807639.38      3.907087       31.005716      37.051935      72.892337    
-807646.39      3.2896295      32.213827      37.058715      72.583512    
-807658.86      3.423007       32.395695      36.945259      72.275828    
-807655.4       2.7969425      32.136475      37.034953      71.967789    
-807644.06      2.6585545      30.913914      37.015393      71.660192    
-807624.55      3.1362195      32.072646      37.068751      71.352511    
-807615.44      3.1609018      34.424589      37.0605        71.045187    
-807612.17      3.47735        35.223434      37.031438      70.73836     
-807620.23      3.1926573      33.138601      37.052242      70.431676    
-807636.46      3.6663187      32.26646       37.063771      70.1252      
-807651.95      3.309621       33.068769      37.054227      69.819073    
-807659.12      2.8897533      32.956895      36.971627      69.513786    
-807648.54      3.4761373      33.352092      37.058754      69.20818     
-807640.57      2.5896243      30.892735      37.012895      68.903155    
-807626.71      3.1361232      32.588059      37.005137      68.598447    
-807617.72      3.3605615      33.996954      37.009652      68.293972    
-807608.15      2.8041475      34.18625       36.96861       67.990024    
-807622.98      2.8597291      32.004985      37.017651      67.686011    
-807641.77      3.3503315      30.885659      37.030863      67.382168    
-807655.41      3.2777802      31.928979      36.933909      67.079197    
-807651.22      3.824925       33.275702      37.006974      66.776003    
-807649.56      3.3568662      32.56405       37.017785      66.472987    
-807641.18      2.9447286      31.708743      37.028613      66.170147    
-807629.38      2.9044793      32.515552      36.959011      65.867979    
-807608.41      2.6822324      34.046523      36.965537      65.566003    
-807611.88      2.6121301      34.302464      37.027387      65.263881    
-807626.01      3.0908556      33.171193      37.027301      64.961994    
-807643.74      3.6687176      32.091008      37.02529       64.660351    
-807647.92      3.1919602      33.101969      37.014139      64.359002    
-807654.12      3.4520664      33.370522      37.039494      64.05773     
-807651.59      3.578432       32.290228      37.058706      63.756571    
-807642.53      2.5283536      31.223855      37.029293      63.455805    
-807619.68      2.947854       32.826564      37.033746      63.155235    
-807610.71      3.5016055      34.082721      37.041095      62.854839    
-807615.14      3.1787288      34.217194      37.053604      62.554589    
-807629.1       2.7003143      31.755944      37.056385      62.254538    
-807638.35      3.1913323      32.403945      37.062764      61.954665    
-807651.53      3.279279       32.554171      37.055896      61.65504     
-807657.89      2.9092788      32.638812      37.025558      61.355788    
-807649.85      3.1618146      31.836995      37.022954      61.056754    
-807634.95      2.5962059      31.372717      37.068329      60.757678    
-807618.57      3.0576654      33.198799      37.056203      60.458868    
-807614.66      3.6351351      34.759171      37.035911      60.160366    
-807613.83      3.0229392      33.572883      37.025443      59.862114    
-807625.78      2.4587474      32.091715      37.045235      59.563952    
-807641.95      3.2424083      32.288509      37.068444      59.265864    
-807658.14      2.668817       32.034571      37.060778      58.968007    
-807651.39      3.8599938      33.358514      37.03343       58.670479    
-807645.06      3.4216651      32.656812      37.056625      58.37302     
-807634         3.7430109      32.430569      37.074798      58.075656    
-807623.86      2.8878473      34.384617      36.967771      57.779008    
-807608.17      3.1305589      35.31263       37.036447      57.482197    
-807613.82      2.6316349      34.08176       37.015307      57.185667    
-807630.09      2.8626203      31.859626      37.065565      56.889071    
-807650.54      2.9932532      31.390597      37.038287      56.592782    
-807651.67      3.7292977      32.957681      37.023758      56.296736    
-807649.8       3.8581522      33.061791      36.99984       56.000973    
-807646.63      2.9343259      32.426003      37.006352      55.705347    
-807636.83      3.1040543      32.053707      37.051734      55.409677    
-807617.48      2.8331014      34.055699      37.060154      55.114137    
-807607.03      3.4740674      35.611585      37.071938      54.818709    
-807618.67      3.1947215      33.764725      37.020953      54.523678    
-807635.34      3.4257865      32.504675      37.062082      54.228624    
-807645.62      2.7878304      31.257191      37.030921      53.93387     
-807648.4       2.6202092      32.816857      37.027358      53.63929     
-807654.97      2.5579225      31.765255      37.046231      53.344785    
-807646.34      2.7318827      31.610141      37.031083      53.050501    
-807631.59      2.4101186      31.536541      37.044937      52.756312    
-807613.84      2.7326005      33.246247      37.01635       52.462398    
-807615.47      2.8961586      34.814348      37.03184       52.168569    
-807619.84      2.8706581      33.454434      37.014015      51.874963    
-807632.84      3.1140932      32.898429      37.015986      51.581497    
-807642.75      3.3017805      33.112726      37.043059      51.288065    
-807655.83      3.8049888      32.647726      37.024725      50.994853    
-807651.53      3.5437893      32.697734      37.025577      50.701783    
-807643.57      2.9924488      31.571458      37.076795      50.40865     
-807625.89      3.1280357      32.574509      37.086831      50.115621    
-807621.86      3.2342217      33.627817      37.06213       49.822834    
-807613.91      2.8045251      33.874448      37.0364        49.530288    
-807619.27      2.8117154      33.09692       37.051235      49.237822    
-807632.02      3.4343563      32.643334      37.09692       48.945319    
-807652.56      3.5950293      31.269314      37.062179      48.653088    
-807652.97      3.055153       33.129357      37.060078      48.361       
-807648.52      2.8704416      32.558446      37.010943      48.069229    
-807640.91      3.1857602      32.08213       37.021049      47.777551    
-807630.6       2.5131021      32.03368       37.009289      47.486046    
-807617.34      2.4891759      33.031155      37.03229       47.194585    
-807610.41      2.8448726      33.805714      37.02125       46.903291    
-807623.74      2.4062479      31.773706      37.044842      46.61204     
-807641.17      2.9597566      31.136126      37.070661      46.320824    
-807650.44      3.2798298      31.546345      37.049232      46.029809    
-807649         2.7421627      33.044996      37.032817      45.738976    
-807650.91      3.4731819      31.847911      37.045005      45.448224    
-807642.18      2.9461573      31.8569        37.023174      45.157668    
-807628.44      3.3602362      31.903246      37.028364      44.867214    
-807612.03      3.1939243      33.405857      37.040357      44.576839    
-807615.97      3.1890944      34.199485      37.076152      44.286464    
-807627.52      3.8894653      32.355805      37.065373      43.996244    
-807641.46      3.2062413      30.464396      37.051494      43.706188    
-807646.33      3.6017692      32.291268      37.066055      43.416201    
-807654.6       2.8060018      31.440663      37.0579        43.126355    
-807648.85      3.5157602      32.500025      37.040232      42.836681    
-807641.09      3.2761104      30.928867      37.035767      42.547132    
-807620.67      3.2254209      32.927217      37.022782      42.257735    
-807615.37      3.3958567      35.096716      37.017642      41.968464    
-807616.09      3.3409552      35.050411      36.974214      41.679433    
-807627.08      3.5721775      33.651686      37.017651      41.390376    
-807637.59      3.252603       32.640056      37.016608      41.101429    
-807651.03      3.2859132      33.174311      37.057708      40.812466    
-807652.57      3.1606435      33.505917      37.071573      40.52357     
-807647.15      3.1889509      32.624036      36.929089      40.235194    
-807633.94      3.2441214      32.224906      37.050478      39.946567    
-807623.61      3.3682533      33.080664      37.030269      39.658101    
-807615.43      3.2257834      34.254154      37.05485       39.369669    
-807615.84      3.5287482      33.819502      36.971226      39.081572    
-807625.31      3.1868876      32.317198      37.016933      38.793445    
-807642.84      2.7547208      31.980931      37.047084      38.505336    
-807650.32      3.3233899      33.346038      37.038258      38.21735     
-807649.84      2.6711464      33.231996      37.06948       37.929379    
-807643.39      3.7119118      33.690967      37.056634      37.641541    
-807635.36      3.2347277      32.411884      37.015584      37.353908    
-807622.64      2.8617509      34.439349      37.025443      37.066344    
-807610.58      3.3680547      34.975798      37.044602      36.778826    
-807616.93      3.0741369      34.531083      37.066333      36.491347    
-807630.42      3.0938459      32.261681      36.994636      36.204144    
-807646.07      2.7970477      32.475854      37.021169      35.916965    
-807646.67      3.6769331      33.61972       36.998191      35.629934    
-807650.98      2.9651629      32.444817      36.949783      35.34311     
-807642.88      2.7110586      33.096316      36.888164      35.056521    
-807635.91      2.6495834      32.448782      37.038043      34.769657    
-807617.63      4.2766565      33.786684      37.032985      34.482894    
-807613.78      2.8941627      34.4515        37.033186      34.196219    
-807619.22      3.3133622      33.079495      37.033703      33.90963     
-807634.15      3.0693631      32.258853      37.030763      33.623135    
-807641.43      3.2781232      32.583781      37.047914      33.336687    
-807650.32      3.4543305      32.507195      37.014833      33.050399    
-807650.36      2.7139962      32.536383      37.017723      32.764189    
-807644.3       2.6732449      32.226718      37.013589      32.478071    
-807630.47      2.4915919      31.68944       37.054712      32.191948    
-807620.78      2.6265855      32.772545      37.067662      31.905881    
-807616.65      4.1968326      33.654498      37.045613      31.619944    
-807622.71      3.4469833      32.867004      37.048249      31.334084    
-807633.82      3.9721961      31.143414      37.0138        31.048377    
-807644.19      3.7634328      31.928253      36.989617      30.762798    
-807653.2       2.4747365      31.791884      37.026702      30.477222    
-807650.44      2.9973746      32.031373      37.000132      30.191779    
-807641.84      2.6431505      31.815061      37.015044      29.906382    
-807627.27      3.2993217      32.992945      37.055536      29.620985    
-807622.05      2.8244486      33.786639      37.02631       29.335722    
-807614.39      3.9932627      34.332821      37.042891      29.050504    
-807623.09      3.4338931      32.115983      37.055         28.76534     
-807633.75      3.9436425      32.721192      37.058663      28.480246    
-807650.24      2.855322       31.760752      37.041502      28.19526     
-807649.85      4.5854469      32.991302      37.065071      27.910306    
-807647.82      3.2025356      31.85771       37.043304      27.625466    
-807639.35      2.4130869      30.911407      37.056179      27.340677    
-807631.2       2.3784771      31.787769      37.065263      27.055947    
-807620.34      3.0482219      31.772972      37.081803      26.771262    
-807614.88      3.3384284      33.514482      37.037506      26.486726    
-807626.25      2.8433437      31.563818      37.019235      26.202292    
-807639.93      2.8388737      31.617189      37.002331      25.917955    
-807646.74      2.3670074      31.777773      36.880391      25.633887    
-807647.61      2.9949655      32.783592      36.920561      25.349816    
-807646.76      2.8909219      32.317623      36.974487      25.065724    
-807641.19      2.4529531      31.808079      37.011886      24.781641    
-807627.23      2.7354137      32.937798      37.050426      24.497565    
-807616.46      2.9181054      33.206534      37.056351      24.213549    
-807617.7       3.1166642      33.580622      36.988069      23.929703    
-807627.95      3.0156569      32.413768      37.022557      23.645871    
-807638.19      2.6109302      31.909819      37.005726      23.362129    
-807644.99      2.7361884      33.153538      37.055978      23.078381    
-807649.45      2.6836371      32.918924      37.07898       22.794665    
-807647.64      3.0927486      32.659047      37.042297      22.511068    
-807637.63      3.5543821      32.58512       37.052113      22.227522    
-807621.65      2.9254177      33.212882      37.068411      21.944019    
-807618.63      3.3877974      33.85046       37.073949      21.660573    
-807618.69      2.9861895      33.958652      37.040362      21.377236    
-807627.01      4.4780206      33.182698      37.019886      21.093989    
-807636.58      3.633243       32.414616      37.05219       20.810761    
-807649.63      2.6025229      31.92298       37.041732      20.52761     
-807650.11      3.9972864      32.491091      37.034479      20.244529    
-807643.67      3.0903138      32.654697      37.027832      19.961516    
-807632.93      3.1105942      32.562226      37.049064      19.678539    
-807625.43      2.7025023      33.058018      37.036261      19.395638    
-807617.48      2.7492357      33.44926       37.050483      19.112779    
-807618.16      3.2483965      34.223671      37.032755      18.830001    
-807626.52      3.4091874      32.732167      37.013628      18.547302    
-807642.75      3.6343104      32.238592      37.036146      18.264637    
-807646.83      3.2224553      33.400611      37.023811      17.982043    
-807647.62      2.9644153      32.093752      37.036462      17.699493    
-807640.39      3.1792155      32.912313      37.045125      17.416991    
-807636.84      3.0802494      31.919501      37.05406       17.134537    
-807621.47      3.0038164      34.273252      37.054865      16.85214     
-807616.32      4.1654669      33.940781      37.03378       16.56982     
-807617.61      3.2657859      34.111744      37.046706      16.287543    
-807631.99      3.234134       33.546456      37.046198      16.005323    
-807642.77      2.8260586      32.761823      36.990735      15.723209    
-807644.53      3.3389572      32.897834      37.036606      15.441106    
-807646.89      2.6341124      32.418679      37.020585      15.159072    
-807643.12      2.8934339      32.631628      36.996546      14.877112    
-807634.35      2.6763047      32.278456      37.043515      14.595164    
-807618.14      2.5630293      33.087758      37.049045      14.313266    
-807617.44      3.326348       32.891266      37.042182      14.031426    
-807624.01      2.7163599      32.805842      37.08699       13.749603    
-807635.28      3.3837574      31.889883      37.061138      13.467854    
-807641.6       3.4176978      31.979826      37.066328      13.186154    
-807648.53      3.4371448      31.949821      37.060169      12.904511    
-807648.35      3.44121        32.16228       37.028484      12.622942    
-807641.62      3.6696252      32.247857      37.056879      12.341404    
-807627.86      3.6449783      31.829704      37.062212      12.059914    
-807619.61      3.3949678      33.044889      37.011178      11.778509    
-807621.37      2.8674823      32.846055      37.02993       11.49714     
-807626.87      3.0884511      31.925857      37.073325      11.215793    
-807633.18      3.1037186      31.933699      37.061435      10.934504    
-807645.72      2.9745916      31.193045      36.944787      10.653334    
-807650.99      3.0763659      32.008356      36.951338      10.372206    
-807645.88      2.824494       32.135924      36.973207      10.091111    
-807637.61      3.1876982      32.644373      37.011523      9.8100404    
-807629.18      3.0158702      31.758571      37.050512      9.5289958    
-807623.3       2.8593844      33.146555      37.031634      9.2480087    
-807619.95      3.7777311      33.420113      37.048211      8.9670601    
-807625.02      2.7091836      32.703628      37.064783      8.6861505    
-807636.5       3.095759       31.854532      37.076349      8.4052829    
-807647.76      2.6658997      31.992316      37.065897      8.1244673    
-807646.63      2.7711679      32.685951      37.042192      7.8437087    
-807643.36      2.749601       32.977492      37.018977      7.5630054    
-807637.98      3.9506034      31.861085      37.034968      7.2823402    
-807630.19      3.0352112      32.753433      37.064342      7.0017087    
-807618.71      3.0774083      33.508194      37.061963      6.7211236    
-807619.87      2.8894395      33.372038      37.026214      6.4405961    
-807626.72      4.0601092      33.459863      37.033684      6.1601099    
-807640.7       3.3191698      32.128623      37.020911      5.8796714    
-807644.51      3.3469055      32.044148      36.991318      5.5992849    
-807646.46      3.5275087      32.577545      36.958062      5.3189499    
-807644         2.8459411      31.40716       37.01224       5.0386405    
-807638.15      2.7811497      31.314108      36.983932      4.7583804    
-807624.01      3.3270243      32.578931      37.023859      4.4781514    
-807618.3       3.2041383      33.619701      37.065331      4.1979549    
-807620.71      3.1669874      33.503574      37.052123      3.9178039    
-807629.95      3.2506154      32.679208      37.063776      3.6376928    
-807636.93      3.2205818      33.448381      37.07657       3.3576217    
-807644.76      3.6257982      32.92785       37.042087      3.0775986    
-807647.61      2.7587835      33.467683      37.058596      2.797614     
-807641.13      2.6489904      33.733544      37.079902      2.517668     
-807633.54      2.6977747      32.699055      37.081947      2.2377634    
-807622.65      2.8433554      33.504202      37.049151      1.9579037    
-807620.37      2.7764581      34.334259      37.031749      1.6780858    
-807620.59      2.9069684      33.370508      37.045978      1.3983064    
-807630.58      2.760435       31.999059      37.024721      1.1185679    
-807635.9       2.8204035      32.909157      37.01158       0.83886887   
-807647.73      2.5010314      32.071752      37.020662      0.55920775   
-807645.51      3.2878181      32.374684      37.017503      0.27958491   
-807640.92      3.0193023      32.190122      37.052851      0            
Loop time of 139.783 on 64 procs for 5000 steps with 1080 atoms

Performance: 6.181 ns/day, 3.883 hours/ns, 35.770 timesteps/s, 38.631 katom-step/s
89.2% CPU use with 64 MPI tasks x 1 OpenMP threads

MPI task timing breakdown:
Section |  min time  |  avg time  |  max time  |%varavg| %total
---------------------------------------------------------------
Pair    | 69.09      | 94.537     | 135.3      | 221.2 | 67.63
Neigh   | 0          | 0          | 0          |   0.0 |  0.00
Comm    | 2.0003     | 42.715     | 68.17      | 329.0 | 30.56
Output  | 0.035408   | 0.037855   | 0.038805   |   0.3 |  0.03
Modify  | 2.0751     | 2.127      | 2.1879     |   2.0 |  1.52
Other   |            | 0.3653     |            |       |  0.26

Nlocal:         16.875 ave          32 max           7 min
Histogram: 16 0 16 16 0 0 0 0 8 8
Nghost:        883.125 ave         893 max         868 min
Histogram: 8 8 0 0 0 0 16 16 0 16
Neighs:              0 ave           0 max           0 min
Histogram: 64 0 0 0 0 0 0 0 0 0
FullNghs:      2747.25 ave        5264 max        1126 min
Histogram: 16 0 16 16 0 0 0 0 8 8

Total # of neighbors = 175824
Ave neighs/atom = 162.8
Neighbor list builds = 0
Dangerous builds = 0

reset_timestep 0


variable interval equal 1000
thermo 10

variable nintervals equal $(v_PERIOD/v_interval)
variable nintervals equal 100
variable efield equal 1e-2*36.36*cos((step/${PERIOD})*2*3.14)
variable efield equal 1e-2*36.36*cos((step/100000)*2*3.14)
fix born all addbornforce 0.0 0.0 v_efield

variable Px equal f_born[1]+c_polarization[1]
variable Py equal f_born[2]+c_polarization[2]
variable Pz equal (f_born[3]+c_polarization[3])/vol
variable pe equal pe

fix aveP all ave/time 1 $(v_interval/2) ${interval} v_efield v_Pz v_pe f_born file Pz.${MODEL}.${STRUCTURE}.${TEMP}.$L
fix aveP all ave/time 1 500 ${interval} v_efield v_Pz v_pe f_born file Pz.${MODEL}.${STRUCTURE}.${TEMP}.$L
fix aveP all ave/time 1 500 1000 v_efield v_Pz v_pe f_born file Pz.${MODEL}.${STRUCTURE}.${TEMP}.$L
fix aveP all ave/time 1 500 1000 v_efield v_Pz v_pe f_born file Pz.BaTiO3-E0.${STRUCTURE}.${TEMP}.$L
fix aveP all ave/time 1 500 1000 v_efield v_Pz v_pe f_born file Pz.BaTiO3-E0.BaTiO3-sc333.${TEMP}.$L
fix aveP all ave/time 1 500 1000 v_efield v_Pz v_pe f_born file Pz.BaTiO3-E0.BaTiO3-sc333.280.$L
fix aveP all ave/time 1 500 1000 v_efield v_Pz v_pe f_born file Pz.BaTiO3-E0.BaTiO3-sc333.280.2

thermo_style custom step time temp press pe f_born v_efield v_Pz spcpu cpuremain

dump 4a all custom 100 dump.hyst.${MODEL}.${STRUCTURE}.${TEMP}.$L.bin id type xu yu zu fx fy fz
dump 4a all custom 100 dump.hyst.BaTiO3-E0.${STRUCTURE}.${TEMP}.$L.bin id type xu yu zu fx fy fz
dump 4a all custom 100 dump.hyst.BaTiO3-E0.BaTiO3-sc333.${TEMP}.$L.bin id type xu yu zu fx fy fz
dump 4a all custom 100 dump.hyst.BaTiO3-E0.BaTiO3-sc333.280.$L.bin id type xu yu zu fx fy fz
dump 4a all custom 100 dump.hyst.BaTiO3-E0.BaTiO3-sc333.280.2.bin id type xu yu zu fx fy fz
dump_modify 4a sort id

fix nvt all nvt temp ${TEMP} ${TEMP} $(100*dt)
fix nvt all nvt temp 280 ${TEMP} $(100*dt)
fix nvt all nvt temp 280 280 $(100*dt)
fix nvt all nvt temp 280 280 0.2000000000000000111

run $(v_PERIOD)
run 100000
WARNING: non-constant efield is experimental, strongly distrust scalar/vector output (src/fix_addbornforce.cpp:193)
Per MPI rank memory allocation (min/avg/max) = 3.608 | 3.609 | 3.609 Mbytes
   Step          Time           Temp          Press          PotEng         f_born        v_efield         v_Pz          S/CPU         CPULeft    
         0   0              280.74803      124920.4      -807640.87     -295.36712      0.3636         0.055550222    0              0            
        10   0.02           293.78561      136435.63     -807630.67     -307.30068      0.36359993     0.057794598    40.551204      2465.7895    
        20   0.04           295.0853       138374.36     -807626.95     -311.43587      0.36359971     0.058572346    40.512171      2466.722     
        30   0.06           265.0825       147314.32     -807615.84     -318.27731      0.36359935     0.059859088    40.525908      2466.5892    
        40   0.08           295.18954      140276.69     -807623.97     -314.62732      0.36359885     0.059172708    40.453785      2467.5       
        50   0.1            284.257        137963.55     -807627.43     -309.59878      0.36359821     0.058227082    40.368471      2468.99      
        60   0.12           292.93697      125460.52     -807643.32     -295.12437      0.36359742     0.05550496     40.392603      2469.655     
        70   0.14           276.3264       124312.99     -807645.05     -291.01148      0.36359649     0.054731576    40.482573      2469.2739    
        80   0.16           268.9415       122048.18     -807645.19     -290.15129      0.36359541     0.05456996     40.530015      2468.5657    
        90   0.18           293.18221      128034.01     -807641.2      -297.6314       0.36359419     0.055976962    40.620438      2467.3494    
       100   0.2            286.47019      133160.54     -807633.37     -304.79143      0.36359283     0.057323799    40.568175      2466.6443    
       110   0.22           289.06177      141572.17     -807624.12     -314.56208      0.36359132     0.059161664    40.252216      2467.7796    
       120   0.24           270.45223      144632.21     -807618.04     -318.3302       0.36358968     0.059870629    40.462553      2467.6095    
       130   0.26           277.66956      141625.76     -807623.18     -314.30071      0.36358788     0.059113065    40.489087      2467.303     
       140   0.28           290.16833      133657.37     -807634.43     -304.98168      0.36358595     0.057360666    40.456391      2467.1475    
       150   0.3            285.17657      126153.27     -807642.27     -296.65136      0.36358387     0.055794226    40.321839      2467.5285    
       160   0.32           266.03454      123803.5      -807644.2      -292.16527      0.36358165     0.054950817    40.469655      2467.2662    
       170   0.34           267.08248      122396.83     -807646.26     -290.52097      0.36357928     0.054641911    40.606729      2466.5156    
       180   0.36           284.88984      128930.12     -807641.26     -298.09373      0.36357677     0.056066602    40.562899      2465.9682    
       190   0.38           285.90172      133713.45     -807632.49     -307.34133      0.36357412     0.057806348    40.51475       2465.6068    
       200   0.4            274.7769       143075.23     -807621.18     -317.13455      0.36357132     0.059648765    40.545555      2465.1637    
       210   0.42           269.77414      141984.19     -807622.3      -315.48203      0.36356838     0.059338428    40.37611       2465.2303    
       220   0.44           277.08996      141125.83     -807626.38     -312.41015      0.3635653      0.058761142    40.520002      2464.87      
       230   0.46           277.20219      131682.48     -807634.95     -304.0242       0.36356207     0.057184338    40.47708       2464.6329    
       240   0.48           273.01862      127491.81     -807640.59     -297.6757       0.3635587      0.05599076     40.585803      2464.1198    
       250   0.5            261.54474      121208.85     -807648.05     -288.6487       0.36355519     0.054293366    40.574451      2463.6557    
       260   0.52           272.17511      125159.97     -807646.22     -291.84904      0.36355153     0.054895886    40.548621      2463.2685    
       270   0.54           277.45914      127630.95     -807639.51     -299.49875      0.36354773     0.056335363    40.6169        2462.7387    
       280   0.56           283.94149      137989.74     -807628.99     -310.82261      0.36354379     0.058466001    40.653319      2462.1503    
       290   0.58           273.62518      139951.17     -807625.04     -313.38438      0.3635397      0.058948536    40.602664      2461.6913    
       300   0.6            278.18864      143537.45     -807623.22     -315.66679      0.36353547     0.059378555    40.535878      2461.3811    
       310   0.62           282.22348      137697.53     -807627.95     -311.586        0.3635311      0.058611642    40.314187      2461.5116    
       320   0.64           283.98113      132407.35     -807634.66     -304.99081      0.36352658     0.05737175     40.416821      2461.422     
       330   0.66           267.16578      125284.35     -807643.89     -293.32268      0.36352192     0.055177568    40.466292      2461.2315    
       340   0.68           262.31164      124002.92     -807645.81     -290.62309      0.36351712     0.054670464    40.506773      2460.9654    
       350   0.7            267.5733       124756.74     -807643        -294.14408      0.36351217     0.055333568    40.493885      2460.7225    
       360   0.72           282.0905       131103.28     -807636.81     -302.32263      0.36350708     0.05687289     40.559383      2460.3692    
       370   0.74           283.75836      136117.04     -807630.52     -308.78515      0.36350185     0.058089454    40.517491      2460.0903    
       380   0.76           275.12289      141302.82     -807623.71     -314.26266      0.36349647     0.059120773    40.459557      2459.9057    
       390   0.78           269.24495      141921.03     -807620.79     -316.3115       0.36349095     0.059507116    40.443352      2459.7432    
       400   0.8            287.89647      137250.74     -807628.41     -311.19431      0.36348529     0.058545339    40.451316      2459.5643    
       410   0.82           282.41839      130665.23     -807637.35     -301.38116      0.36347948     0.056700087    40.380608      2459.4873    
       420   0.84           273.14586      125133.14     -807643.85     -293.50444      0.36347353     0.05521911     40.555293      2459.1492    
       430   0.86           260.95812      124136.52     -807643.29     -292.27539      0.36346744     0.054988803    40.520839      2458.864     
       440   0.88           275.85154      125751        -807642.52     -295.0522       0.3634612      0.055512185    40.508756      2458.5969    
       450   0.9            283.593        131191.8      -807636.95     -301.61004      0.36345482     0.056746997    40.533422      2458.2978    
       460   0.92           293.80892      137074.82     -807630.07     -309.8694       0.3634483      0.058302017    40.52108       2458.0172    
       470   0.94           271.84919      143281.6      -807620.6      -316.20962      0.36344163     0.059496022    40.510085      2457.7521    
       480   0.96           278.32801      141319.58     -807622.83     -314.78592      0.36343482     0.059229258    40.530829      2457.4616    
       490   0.98           284.63813      136996.91     -807629.69     -308.63092      0.36342786     0.058072259    40.573888      2457.1197    
       500   1              293.89873      129038.86     -807639.42     -300.09148      0.36342077     0.056466574    40.531059      2456.8336    
       510   1.02           273.44142      126172.2      -807640.96     -18914.457      0.36341353     0.055610953    40.157588      2456.9965    
       520   1.04           275.98013      123226.76     -807645.5      -18643.672      0.36340614     0.054815924    40.293868      2456.9824    
       530   1.06           280.05917      127820.83     -807642.12     -18887.483      0.36339862     0.055533924    40.325859      2456.9226    
       540   1.08           285.60994      132019.61     -807635.34     -19374.186      0.36339095     0.056966154    40.312189      2456.8713    
       550   1.1            278.11264      140319.71     -807624.45     -19996.41       0.36338313     0.058796953    40.26837       2456.8617    
       560   1.12           283.19417      141148.06     -807623.48     -20103.32       0.36337518     0.059112601    40.197137      2456.9216    
       570   1.14           274.3105       141780.88     -807623.34     -20021.356      0.36336707     0.058872905    40.23578       2456.9291    
       580   1.16           283.4843       134781.01     -807630.69     -19631.819      0.36335883     0.057728777    40.250168      2456.9125    
       590   1.18           286.21984      130308.5      -807636.2      -19287.323      0.36335044     0.056717071    40.247837      2456.8905    
       600   1.2            288.15207      123624.23     -807644.87     -18744.595      0.36334191     0.055122399    40.28991       2456.818     
       610   1.22           274.97045      124585.1      -807643.95     -18677.275      0.36333324     0.054925742    40.196324      2456.8338    
       620   1.24           279.64289      126782.02     -807640.3      -18954.341      0.36332442     0.055741883    40.288935      2456.7494    
       630   1.26           284.57614      134560.87     -807631.05     -19584.702      0.36331546     0.057597102    40.282815      2456.6659    
       640   1.28           279.85441      138868.74     -807624.9      -19933.167      0.36330636     0.05862338     40.344505      2456.5181    
       650   1.3            286.95687      141862.83     -807623.08     -20103.337      0.36329711     0.059125354    40.308648      2456.4011    
       660   1.32           291.68262      139946.25     -807625.36     -19994.582      0.36328772     0.058807018    40.228319      2456.3546    
       670   1.34           290.67333      136047.94     -807629.8      -19695.445      0.36327819     0.057928732    40.206156      2456.3223    
       680   1.36           293.37369      129196.8      -807639        -19121.401      0.36326851     0.056241838    40.187051      2456.3011    
       690   1.38           269.12854      125536.98     -807642.3      -18688.988      0.36325869     0.054971464    40.285739      2456.1855    
       700   1.4            287.57487      124427.66     -807644.51     -18705.402      0.36324873     0.055021253    40.279381      2456.0716    
       710   1.42           277.34395      127652.49     -807637.27     -19077.055      0.36323863     0.056116018    40.132139      2456.0814    
       720   1.44           278.70683      134510.38     -807629.97     -19552.688      0.36322838     0.057516738    40.220059      2456.0089    
       730   1.46           290.55591      138743.16     -807627.21     -19832.077      0.36321798     0.058340265    40.239727      2455.9149    
       740   1.48           293.65273      142239.57     -807623        -20120.624      0.36320745     0.059190805    40.203209      2455.8471    
       750   1.5            285.0165       139696.03     -807623.5      -20011.893      0.36319677     0.058872672    40.183351      2455.7907    
       760   1.52           280.29504      136173.05     -807629.45     -19583.584      0.36318595     0.057614354    40.18007       2455.732     
       770   1.54           296.38478      127834.39     -807641.58     -18949.153      0.36317498     0.055749558    40.319738      2455.5571    
       780   1.56           280.64556      125993.02     -807641.83     -18786.285      0.36316387     0.055272081    40.359926      2455.349     
       790   1.58           273.65476      124734.64     -807641.18     -18771.557      0.36315262     0.055230461    40.27307       2455.207     
       800   1.6            294.52219      129853.73     -807638.39     -19134.13       0.36314122     0.056299003    40.250563      2455.0796    
       810   1.62           300.16467      133298.91     -807634.41     -19446.238      0.36312968     0.057219148    40.095872      2455.0666    
       820   1.64           290.90866      141118.24     -807625.01     -19971.056      0.363118       0.058765279    40.315254      2454.8836    
       830   1.66           283.11103      141544.3      -807622.53     -20072.109      0.36310618     0.05906455     40.422583      2454.6203    
       840   1.68           278.2802       140103.21     -807625.68     -19831.959      0.36309421     0.058359805    40.312473      2454.4372    
       850   1.7            287.36983      132786.56     -807634.13     -19380.616      0.3630821      0.057033533    40.405506      2454.186     
       860   1.72           287.94023      128208.05     -807639.96     -19022.93       0.36306984     0.055982822    40.373275      2453.9576    
       870   1.74           274.61995      124907.02     -807642.15     -18775.949      0.36305745     0.055257865    40.502006      2453.639     
       880   1.76           280.12045      126194.65     -807642.25     -18827.936      0.3630449      0.055412776    40.447614      2453.3596    
       890   1.78           278.73317      130265.09     -807637.53     -19137.225      0.36303222     0.056325019    40.346619      2453.1497    
       900   1.8            291.88319      135558.44     -807631.24     -19670.177      0.36301939     0.057895656    40.323122      2452.9549    
       910   1.82           276.21437      140357.36     -807623.32     -20051.437      0.36300642     0.059019936    40.239851      2452.8148    
       920   1.84           279.55174      140538.68     -807624.66     -20010.42       0.36299331     0.058901334    40.299436      2452.6328    
       930   1.86           277.60538      137147.91     -807628.62     -19745.454      0.36298005     0.05812352     40.192951      2452.5194    
       940   1.88           288.42313      132058.96     -807635        -19447.284      0.36296665     0.057247928    40.204948      2452.3953    
       950   1.9            279.35338      128010.4      -807639.65     -19076.53       0.36295311     0.056158616    40.356035      2452.1715    
       960   1.92           271.29188      125388.9      -807643.86     -18742.175      0.36293942     0.055176405    40.40277       2451.9176    
       970   1.94           272.60841      126892.25     -807642.21     -18867.638      0.36292559     0.055547881    40.347449      2451.6985    
       980   1.96           265.30255      130823.82     -807634.99     -19276.774      0.36291162     0.056754595    40.304847      2451.5053    
       990   1.98           282.70089      136642.73     -807630.13     -19745.979      0.3628975      0.058138286    40.290228      2451.3199    
      1000   2              277.99636      138510.04     -807627.1      -19902.373      0.36288325     0.058601061    40.261259      2451.151     
      1010   2.02           282.82615      139596.19     -807626.87     -311.84544      0.36286884     0.058767503    40.332663      2450.9375    
      1020   2.04           280.54186      135858.2      -807630.07     -308.50494      0.3628543      0.058140313    40.521137      2450.6113    
      1030   2.06           282.8386       132264.66     -807635.36     -303.46895      0.36283961     0.057193555    40.554742      2450.267     
      1040   2.08           262.68106      126645.37     -807641.2      -294.82822      0.36282478     0.055567343    40.542685      2449.9316    
      1050   2.1            267.17492      126396.18     -807643.45     -293.17516      0.3628098      0.055258065    40.573187      2449.5803    
      1060   2.12           266.44683      126795.18     -807640.84     -295.79551      0.36279469     0.055754275    40.537313      2449.2515    
      1070   2.14           280.24835      132316.47     -807635.63     -302.85017      0.36277943     0.057086405    40.499898      2448.9453    
      1080   2.16           276.32092      135472.53     -807632.04     -305.90337      0.36276402     0.057664373    40.525415      2448.6258    
      1090   2.18           282.19256      140668.62     -807626.46     -312.15416      0.36274848     0.0588452      40.404309      2448.3749    
      1100   2.2            272.13639      138740.75     -807625.04     -312.22919      0.36273279     0.05886189     40.382976      2448.1358    
      1110   2.22           280.21964      137121.65     -807629.61     -308.5733       0.36271695     0.058175217    40.385357      2447.8952    
      1120   2.24           270.68235      130114.01     -807637.01     -299.77408      0.36270098     0.056518791    40.551836      2447.5647    
      1130   2.26           269.97498      127320.11     -807640.77     -295.72517      0.36268486     0.055757896    40.545658      2447.239     
      1140   2.28           269.3232       125471.31     -807642.22     -294.08333      0.3626686      0.055450821    40.55279       2446.911     
      1150   2.3            285.59308      127735.19     -807641.33     -296.97805      0.36265219     0.055999165    40.464668      2446.6305    
      1160   2.32           286.60647      131554.17     -807637.58     -300.7292       0.36263564     0.056709083    40.400228      2446.3842    
      1170   2.34           286.88244      136496.97     -807629.52     -308.59393      0.36261895     0.058194829    40.446448      2446.1139    
      1180   2.36           278.09906      140604.3      -807624.34     -312.33724      0.36260212     0.058903479    40.465423      2445.8344    
      1190   2.38           274.61316      139513.21     -807625.08     -310.85843      0.36258514     0.058627336    40.468946      2445.5536    
      1200   2.4            278.06769      135465.5      -807630.47     -305.60605      0.36256802     0.057639468    40.418349      2445.2989    
      1210   2.42           278.81306      130003.94     -807636.97     -298.9654       0.36255076     0.05638968     40.318557      2445.0942    
      1220   2.44           281.36981      127778.3      -807640.03     -295.92841      0.36253335     0.055819534    40.553121      2444.7727    
      1230   2.46           288.64165      124881.58     -807644.17     -292.57496      0.3625158      0.055189661    40.511816      2444.4726    
      1240   2.48           281.43465      128814.1      -807639.03     -296.37737      0.36249811     0.055909653    40.528363      2444.1653    
      1250   2.5            280.23435      132238.15     -807632.88     -302.2959       0.36248028     0.057028952    40.572106      2443.838     
      1260   2.52           300.72658      138688.62     -807627.14     -310.65308      0.3624623      0.058608464    40.628091      2443.4853    
      1270   2.54           289.69442      139062.44     -807625.48     -310.69723      0.36244418     0.058619724    40.63155       2443.1327    
      1280   2.56           279.56854      140332.1      -807624.39     -310.10759      0.36242592     0.058511424    40.593397      2442.7996    
      1290   2.58           287.79581      133389.83     -807631.74     -303.9309       0.36240751     0.057348913    40.628829      2442.4514    
      1300   2.6            293.45543      131281.19     -807635.77     -300.51122      0.36238896     0.056706553    40.596309      2442.1197    
      1310   2.62           285.973        124873.65     -807641.71     -293.55546      0.36237027     0.055396857    40.415839      2441.8723    
      1320   2.64           276.93616      127317.68     -807640.41     -293.44031      0.36235143     0.055378006    40.483031      2441.5941    
      1330   2.66           282.12679      128006.01     -807637.64     -297.07737      0.36233245     0.056067327    40.469266      2441.3226    
      1340   2.68           296.24742      135794.5      -807630.36     -306.30952      0.36231333     0.057812759    40.499932      2441.0377    
      1350   2.7            286.38715      137965.16     -807626.75     -308.69762      0.36229407     0.058266586    40.552606      2440.7299    
      1360   2.72           292.25977      140946.24     -807625.16     -311.06266      0.36227466     0.058716133    40.504561      2440.4443    
      1370   2.74           277.99124      137310.77     -807625.52     -308.85742      0.36225511     0.058303019    40.481062      2440.1695    
      1380   2.76           297.41588      134980.02     -807631.39     -305.70295      0.36223542     0.057710687    40.39976       2439.9307    
      1390   2.78           280.80242      128293.87     -807637.91     -296.95321      0.36221558     0.056061978    40.531426      2439.6346    
      1400   2.8            283.21998      126591.21     -807641.98     -293.21336      0.3621956      0.055358983    40.404525      2439.3939    
      1410   2.82           283.37938      124936.88     -807642.17     -293.19296      0.36217548     0.055358206    40.373502      2439.1664    
      1420   2.84           280.85041      131130.74     -807634.7      -300.37771      0.36215522     0.056717943    40.548242      2438.8644    
      1430   2.86           297.71867      133166.46     -807633.68     -303.96696      0.36213481     0.057398907    40.624287      2438.5315    
      1440   2.88           277.86156      140091.75     -807625.69     -309.1784       0.36211426     0.058386311    40.607742      2438.2066    
      1450   2.9            276.87562      139936.7      -807624.08     -310.83962      0.36209357     0.058703375    40.543683      2437.9092    
      1460   2.92           283.93289      139023.88     -807626.1      -309.83364      0.36207273     0.058516759    40.498031      2437.6313    
      1470   2.94           288.95066      132579.57     -807634.41     -302.3227       0.36205176     0.057101513    40.595423      2437.3141    
      1480   2.96           282.76184      128952.78     -807639.59     -296.31354      0.36203064     0.055969792    40.599463      2436.9963    
      1490   2.98           269.82403      126148.9      -807640.49     -293.65825      0.36200937     0.055471499    40.530726      2436.707     
      1500   3              282.69748      125851.02     -807641.23     -294.81001      0.36198796     0.055692358    40.580397      2436.3984    
      1510   3.02           284.97407      130142.55     -807637.35     -19140.584      0.36196642     0.05650078     40.332844      2436.1893    
      1520   3.04           291.47859      134720.43     -807632.84     -19495.387      0.36194472     0.057551567    40.350258      2435.9728    
      1530   3.06           281.44664      139423.95     -807625.5      -19882.611      0.36192289     0.058698216    40.304234      2435.7741    
      1540   3.08           272.72976      140301.43     -807623.93     -19909.146      0.36190091     0.058780125    40.29144       2435.5798    
      1550   3.1            284.32369      137776.92     -807628.89     -19701.472      0.36187879     0.05817054     40.349211      2435.3622    
      1560   3.12           284.80707      131882.47     -807635.81     -19267.102      0.36185653     0.056891518    40.312086      2435.1587    
      1570   3.14           267.5791       128421.52     -807637.47     -19009.859      0.36183412     0.056135414    40.260602      2434.9744    
      1580   3.16           273.78038      125100.31     -807642.79     -18730.525      0.36181157     0.055313998    40.245924      2434.795     
      1590   3.18           273.75318      127018.51     -807641.44     -18818.683      0.36178888     0.055577825    40.355534      2434.5729    
      1600   3.2            281.11827      129637.87     -807637.59     -19136.783      0.36176605     0.056520847    40.336219      2434.3578    
      1610   3.22           280.23469      136088.2      -807629.57     -19645.018      0.36174307     0.058025616    40.204247      2434.1921    
      1620   3.24           275.12722      138657.97     -807625.67     -19852.362      0.36171995     0.058641797    40.308455      2433.9862    
      1630   3.26           281.8121       140557.42     -807626.26     -19874.093      0.36169669     0.058709764    40.369871      2433.7571    
      1640   3.28           284.08766      135508.11     -807630.97     -19596.22       0.36167329     0.05789265     40.387145      2433.5214    
      1650   3.3            287.31919      132013.22     -807635.62     -19323.261      0.36164974     0.057089969    40.27904       2433.3252    
      1660   3.32           268.40643      126815.06     -807640.52     -18843.524      0.36162605     0.055676248    40.343436      2433.1048    
      1670   3.34           281.30257      125582.65     -807644.55     -18697.004      0.36160222     0.055246971    40.427205      2432.8539    
      1680   3.36           269.27238      126489.85     -807640.88     -18830.984      0.36157824     0.055646553    40.435699      2432.6       
      1690   3.38           273.36291      132401.38     -807634.23     -19293.702      0.36155413     0.057017714    40.418897      2432.3521    
      1700   3.4            269.05955      135937.51     -807628.98     -19590.73       0.36152987     0.057899388    40.429545      2432.1005    
      1710   3.42           289.66563      138865.66     -807628.43     -19807.271      0.36150546     0.058543315    40.177995      2431.9379    
      1720   3.44           273.08065      138796.51     -807625.53     -19844.438      0.36148092     0.058657153    40.37907       2431.7036    
      1730   3.46           278.32838      136307.11     -807630.26     -19583.864      0.36145623     0.057890887    40.380755      2431.4684    
      1740   3.48           291.08156      129532.98     -807639.14     -19122.916      0.3614314      0.056532186    40.307967      2431.2584    
      1750   3.5            266.26064      126904.08     -807640.34     -18816.078      0.36140643     0.055628938    40.352668      2431.0325    
      1760   3.52           274.67744      124941.86     -807643.02     -18718.285      0.36138131     0.055343665    40.364089      2430.8025    
      1770   3.54           273.54585      128140.26     -807638.98     -18959.924      0.36135605     0.056062027    40.414094      2430.5553    
      1780   3.56           283.35054      132499.72     -807635.22     -19282.172      0.36133065     0.057018881    40.358833      2430.3267    
      1790   3.58           272.3775       137067.42     -807628.79     -19585.928      0.36130511     0.057921205    40.19515       2430.1533    
      1800   3.6            284.14435      139155.32     -807626.43     -19827.999      0.36127942     0.058641246    40.353635      2429.9257    
      1810   3.62           275.98768      138483.45     -807625.92     -19773.835      0.3612536      0.058485239    40.279301      2429.7228    
      1820   3.64           288.82791      134991.54     -807632.24     -19462.451      0.36122763     0.057568396    40.409429      2429.4762    
      1830   3.66           280.58443      130037.08     -807636.75     -19079.588      0.36120151     0.056439997    40.265742      2429.2769    
      1840   3.68           279.94147      127847.33     -807640.57     -18810.951      0.36117526     0.055649378    40.325733      2429.0575    
      1850   3.7            281.07303      126525.8      -807641.32     -18756.839      0.36114886     0.055493351    40.342424      2428.8322    
      1860   3.72           284.01923      129144.32     -807638.78     -18928.787      0.36112232     0.056006186    40.40106       2428.5878    
      1870   3.74           297.48993      131668.76     -807635.28     -19257.234      0.36109564     0.056982199    40.354681      2428.3582    
      1880   3.76           281.70174      137099.11     -807627        -19633.591      0.36106881     0.058100156    40.305028      2428.1444    
      1890   3.78           289.87395      138902.19     -807625.57     -19788.724      0.36104184     0.058563604    40.342185      2427.9184    
      1900   3.8            291.18763      138094.7      -807626.37     -19739.066      0.36101474     0.058421029    40.363634      2427.6853    
      1910   3.82           295.91053      133951.78     -807631.88     -19416.303      0.36098748     0.057470099    40.252951      2427.487     
      1920   3.84           283.77109      130164.71     -807635.46     -19071.875      0.36096009     0.056454915    40.306549      2427.2714    
      1930   3.86           286.88215      126170.41     -807640.23     -18788.296      0.36093255     0.055619731    40.38342       2427.0314    
      1940   3.88           286.76018      127402.6      -807640.1      -18788.354      0.36090487     0.055624169    40.41771       2426.7807    
      1950   3.9            283.77641      128659.02     -807638.04     -18897.522      0.36087705     0.055951681    40.380231      2426.5416    
      1960   3.92           283.62449      134228.96     -807630.96     -19344.306      0.36084909     0.057278954    40.391611      2426.299     
      1970   3.94           291.39397      136755.29     -807628.26     -19590.047      0.36082098     0.05801112     40.393218      2426.0558    
      1980   3.96           294.82642      139720.65     -807625.25     -19810.819      0.36079273     0.058669475    40.380152      2425.8165    
      1990   3.98           291.56356      137296.31     -807628        -19612.173      0.36076434     0.058085757    40.328857      2425.5926    
      2000   4              290.23525      134842.03     -807631.8      -19358.898      0.36073581     0.057340164    40.130451      2425.4285    
      2010   4.02           284.44911      128829.77     -807636.83     -296.81515      0.36070713     0.05627025     40.173361      2425.2507    
      2020   4.04           282.44714      127680.72     -807639.77     -293.7086       0.36067831     0.055685759    40.367674      2425.0141    
      2030   4.06           276.60162      126192.44     -807640.15     -292.68774      0.36064935     0.055496666    40.323087      2424.7905    
      2040   4.08           288.85145      130102.62     -807637.77     -296.93168      0.36062025     0.056305905    40.45671       2424.5274    
      2050   4.1            279.22091      133573.43     -807631.55     -302.10394      0.36059101     0.057291345    40.524176      2424.2447    
      2060   4.12           292.94994      138233.58     -807628.39     -307.32971      0.36056162     0.058287116    40.508927      2423.9668    
      2070   4.14           286.51787      137884.64     -807627.96     -307.10656      0.36053209     0.058249565    40.502923      2423.691     
      2080   4.16           288.8543       136345.39     -807629.11     -306.49368      0.36050242     0.058138102    40.497069      2423.4171    
      2090   4.18           279.26212      133143.26     -807632.67     -301.80625      0.36047261     0.057253689    40.531862      2423.1335    
      2100   4.2            280.45018      129165.48     -807638.07     -296.7042       0.36044265     0.05629049     40.595031      2422.8324    
      2110   4.22           276.33039      126893.99     -807641.38     -292.96228      0.36041256     0.055585219    40.358879      2422.5987    
      2120   4.24           278.97367      127016.17     -807642.02     -292.8471       0.36038232     0.055568027    40.552031      2422.3104    
      2130   4.26           277.86756      129922.74     -807637.32     -297.53243      0.36035193     0.056461832    40.575624      2422.0158    
      2140   4.28           276.11671      133735.67     -807632.68     -302.05996      0.36032141     0.057325864    40.628402      2421.7071    
      2150   4.3            287.97724      136917.33     -807630.7      -305.76239      0.36029075     0.058033461    40.637442      2421.3965    
      2160   4.32           271.98346      137353.65     -807627.58     -306.71854      0.36025994     0.058219916    40.614699      2421.0927    
      2170   4.34           277.52159      137223.53     -807629.06     -305.99529      0.36022899     0.058087623    40.496702      2420.8217    
      2180   4.36           275.241        132414.33     -807633.77     -300.99043      0.36019789     0.057142473    40.319544      2420.5997    
      2190   4.38           282.94215      129043.05     -807639.56     -296.17006      0.36016666     0.056232211    40.381108      2420.3606    
      2200   4.4            274.81649      126189.19     -807641.38     -293.26997      0.36013528     0.055686438    40.438155      2420.1058    
      2210   4.42           280.2113       128926.63     -807640.42     -294.92392      0.36010377     0.056005394    40.336332      2419.8787    
      2220   4.44           268.19253      130513.75     -807636.28     -297.47181      0.36007211     0.0564942      40.496657      2419.6083    
      2230   4.46           282.13158      134445.78     -807633.6      -301.97862      0.3600403      0.057355172    40.487381      2419.3405    
      2240   4.48           283.41369      135857.86     -807630.97     -304.85052      0.36000836     0.057905774    40.541605      2419.0585    
      2250   4.5            284.00511      137672.75     -807628.37     -307.47478      0.35997627     0.058409453    40.506303      2418.7861    
      2260   4.52           276.22665      134885.77     -807631.1      -303.61475      0.35994404     0.057681346    40.511529      2418.5126    
      2270   4.54           275.73079      132621.98     -807635.05     -299.47457      0.35991167     0.056899903    40.491297      2418.2446    
      2280   4.56           269.97109      128631.56     -807638.43     -295.25768      0.35987916     0.056103767    40.479952      2417.9798    
      2290   4.58           272.99145      127900.96     -807639.44     -294.5327       0.35984651     0.055971087    40.556454      2417.6952    
      2300   4.6            275.26733      127731.53     -807640.07     -294.17798      0.35981371     0.055908773    40.582939      2417.4042    
      2310   4.62           267.40084      131399.35     -807635.35     -297.64612      0.35978077     0.056573076    40.403431      2417.1598    
      2320   4.64           290.5665       133838.61     -807634.11     -302.0608       0.35974769     0.057417445    40.678671      2416.8449    
      2330   4.66           279.90995      137100.77     -807628.6      -305.99768      0.35971447     0.058171162    40.601605      2416.5502    
      2340   4.68           280.02128      136853.77     -807629.05     -305.46089      0.35968111     0.058074502    40.478304      2416.2871    
      2350   4.7            280.8126       135194.14     -807632.07     -302.36908      0.3596476      0.057492041    40.477183      2416.0245    
      2360   4.72           281.36358      131241.53     -807635.35     -299.0561       0.35961396     0.056867436    40.477938      2415.7619    
      2370   4.74           282.93339      127683.08     -807639.14     -295.32024      0.35958017     0.056162314    40.465366      2415.5025    
      2380   4.76           280.57686      127601.26     -807640.32     -293.58956      0.35954624     0.055838453    40.431941      2415.2516    
      2390   4.78           285.65945      128647.45     -807640.93     -293.56916      0.35951216     0.055839864    40.531872      2414.9758    
      2400   4.8            281.30094      131963.26     -807635.56     -298.17986      0.35947795     0.056722265    40.496266      2414.7091    
      2410   4.82           295.36339      133688        -807632.88     -302.66876      0.35944359     0.057581685    40.337525      2414.4819    
      2420   4.84           285.75523      136905.33     -807628.49     -305.48662      0.35940909     0.058123351    40.395188      2414.2403    
      2430   4.86           282.36083      137265.85     -807629.55     -303.77331      0.35937446     0.057802941    40.349074      2414.01      
      2440   4.88           278.53653      135556.12     -807630.7      -301.84877      0.35933967     0.057442291    40.384046      2413.771     
      2450   4.9            288.35133      132105.45     -807634.66     -299.01457      0.35930475     0.05690847     40.311904      2413.5495    
      2460   4.92           276.4147       129225.89     -807636.83     -294.91748      0.35926969     0.056134189    40.393878      2413.3079    
      2470   4.94           280.74729      128227.95     -807640.24     -291.82687      0.35923448     0.055551371    40.497823      2413.0411    
      2480   4.96           288.65218      128297.7      -807639.38     -293.53029      0.35919913     0.055881127    40.544876      2412.7632    
      2490   4.98           282.80445      131898.75     -807632.9      -298.94729      0.35916364     0.056918018    40.530828      2412.4889    
[...]
     98740   197.48         291.37715      131677.45     -807633.85     -19338.8        0.36236891     0.057022484    46.962524      29.266748    
     98750   197.5          286.21987      134091.74     -807631.68     -19426.606      0.36238762     0.057278432    46.90975       29.034231    
     98760   197.52         294.76366      133224.61     -807631.69     -19502.549      0.36240618     0.057499403    46.784828      28.801724    
     98770   197.54         284.49368      135637.15     -807629.17     -19569.694      0.36242459     0.057694433    46.923832      28.569214    
     98780   197.56         290.98343      132619.45     -807633.75     -19340.064      0.36244287     0.057014575    46.851789      28.336711    
     98790   197.58         286.74949      132948.43     -807633.52     -19315.737      0.362461       0.056940009    46.817442      28.104214    
     98800   197.6          289.74169      131127.12     -807635.18     -19245.42       0.36247899     0.056729911    46.798881      27.871722    
     98810   197.62         275.93621      133110.22     -807631.66     -19353.26       0.36249683     0.057044982    46.641114      27.639243    
     98820   197.64         282.5006       131346.73     -807634.24     -19260.576      0.36251453     0.05676902     46.898518      27.406753    
     98830   197.66         285.52053      134206.37     -807632.71     -19390.555      0.36253209     0.057149353    46.881181      27.174268    
     98840   197.68         281.23947      133066.32     -807630.97     -19482.204      0.36254951     0.05741671     46.88026       26.941787    
     98850   197.7          289.35243      134867.16     -807630.51     -19591.57       0.36256678     0.057736277    46.934784      26.709307    
     98860   197.72         289.71249      132443.27     -807634.24     -19376.498      0.36258391     0.057099763    46.914976      26.476832    
     98870   197.74         283.45196      133505.35     -807632.89     -19426.631      0.3626009      0.057244815    46.796342      26.244367    
     98880   197.76         290.2185       130736        -807635.63     -19339.157      0.36261774     0.056984406    46.847865      26.011903    
     98890   197.78         273.61993      132444.99     -807633.53     -19346.118      0.36263445     0.057002291    46.908874      25.77944     
     98900   197.8          279.51686      130380.46     -807636.63     -19230.152      0.362651       0.056658019    46.879953      25.546982    
     98910   197.82         271.69555      133391.34     -807632.88     -19416.413      0.36266742     0.057204212    46.7071        25.314536    
     98920   197.84         277.50681      132198.2      -807633.97     -19420.333      0.36268369     0.057213193    46.808045      25.08209     
     98930   197.86         278.00335      133736.51     -807632.48     -19528.565      0.36269982     0.057529493    46.90703       24.849642    
     98940   197.88         269.70624      133079.27     -807632.63     -19457.489      0.36271581     0.057317583    46.898196      24.617199    
     98950   197.9          281.35096      133466.18     -807634.84     -19428.666      0.36273165     0.057230174    46.884052      24.38476     
     98960   197.92         279.38184      131530.28     -807634.96     -19409.024      0.36274735     0.057169841    46.965482      24.152321    
     98970   197.94         273.04487      131818.43     -807635.26     -19337.212      0.36276291     0.056955875    46.965959      23.919887    
     98980   197.96         270.67036      130511.4      -807636.25     -19254.735      0.36277832     0.056710539    46.993182      23.687454    
     98990   197.98         281.5873       130728.44     -807636.54     -19336.873      0.36279359     0.056950058    46.998241      23.455026    
     99000   198            272.76092      132195.93     -807633.65     -19442.601      0.36280872     0.057259058    46.928615      23.222605    
     99010   198.02         271.41634      132653.97     -807632.94     -304.34275      0.3628237      0.057360751    47.045773      22.990182    
     99020   198.04         274.46868      134072.07     -807632.87     -304.78792      0.36283855     0.057442305    47.081059      22.757762    
     99030   198.06         276.56589      133393.82     -807633.13     -304.83248      0.36285324     0.057448375    46.826936      22.525357    
     99040   198.08         271.32455      133923.34     -807632.16     -304.96892      0.3628678      0.057471782    46.919496      22.292951    
     99050   198.1          279.62516      131042.6      -807635.91     -302.34084      0.36288221     0.056974255    46.784461      22.060556    
     99060   198.12         272.55873      131945.74     -807635.61     -301.55235      0.36289648     0.056823434    46.806071      21.828163    
     99070   198.14         278.90953      130108.68     -807637.01     -301.03131      0.36291061     0.056723044    47.006403      21.595766    
     99080   198.16         281.23937      132721.65     -807634.99     -303.25951      0.36292459     0.057140699    47.023894      21.363372    
     99090   198.18         266.39947      131821.24     -807634.2      -301.96313      0.36293843     0.056894263    47.060432      21.13098     
     99100   198.2          276.86875      134858.98     -807632.52     -304.91775      0.36295213     0.057448789    47.009783      20.898595    
     99110   198.22         280.41213      132950.76     -807633.4      -304.58025      0.36296568     0.057383059    46.620491      20.666229    
     99120   198.24         289.88804      134792.74     -807632.78     -306.26306      0.36297909     0.057697968    47.020234      20.433851    
     99130   198.26         288.66992      131434.73     -807636.37     -302.47712      0.36299236     0.05698264     47.013133      20.201477    
     99140   198.28         267.55035      134433.75     -807632.29     -303.37484      0.36300548     0.057149693    47.100171      19.969104    
     99150   198.3          275.64636      130427.2      -807635.65     -301.17488      0.36301846     0.056733236    46.988601      19.736739    
     99160   198.32         277.25888      132641.68     -807634.04     -302.78763      0.3630313      0.057035017    47.03667       19.504376    
     99170   198.34         274.62091      129729.28     -807635.03     -301.37014      0.36304399     0.056766024    47.129084      19.272013    
     99180   198.36         279.12081      134143.22     -807632.89     -303.86567      0.36305655     0.057234104    47.111298      19.039656    
     99190   198.38         286.67537      132805.77     -807633.43     -304.32977      0.36306895     0.05731956     47.107687      18.807302    
     99200   198.4          294.07811      134349.78     -807632.19     -306.37521      0.36308122     0.057702862    47.108725      18.574952    
     99210   198.42         289.72902      133110.51     -807633.77     -304.09877      0.36309334     0.057272204    46.908812      18.342614    
     99220   198.44         273.65862      133206.17     -807631.66     -303.82294      0.36310532     0.057218369    47.12454       18.110272    
     99230   198.46         288.95613      131379.09     -807635.24     -302.3098       0.36311715     0.056931547    47.091759      17.877935    
     99240   198.48         279.00512      131860.81     -807633.54     -302.51068      0.36312885     0.056967541    47.115313      17.645602    
     99250   198.5          278.32509      131442.99     -807634.12     -301.73987      0.3631404      0.056820578    47.066929      17.413274    
     99260   198.52         296.59596      132110.36     -807636.06     -302.21048      0.3631518      0.056907412    47.008657      17.180952    
     99270   198.54         287.90504      133780.62     -807632.43     -304.6253       0.36316306     0.057360354    46.956933      16.948635    
     99280   198.56         288.26227      134702.69     -807631.06     -305.97872      0.36317418     0.057613435    47.040255      16.71632     
     99290   198.58         279.70573      134843.55     -807630.93     -304.87641      0.36318516     0.057404145    47.021053      16.48401     
     99300   198.6          286.96893      133485.75     -807633.06     -303.76523      0.36319599     0.057193217    47.034893      16.251703    
     99310   198.62         279.16508      132994.1      -807632.02     -303.72237      0.36320668     0.057183464    46.861956      16.019405    
     99320   198.64         289.97809      131427.31     -807634.86     -302.34917      0.36321723     0.056923272    47.059024      15.787105    
     99330   198.66         288.56375      131898.79     -807635.67     -301.34455      0.36322763     0.056732508    47.072608      15.554809    
     99340   198.68         287.56655      132362.31     -807635.1      -301.80652      0.36323789     0.056817875    47.027802      15.322518    
     99350   198.7          287.3127       133815.83     -807632.19     -304.75471      0.36324801     0.057371302    47.099582      15.090229    
     99360   198.72         284.02613      133391.65     -807632.04     -304.51672      0.36325798     0.057324925    46.962771      14.857947    
     99370   198.74         287.88054      134374.78     -807632.21     -304.96642      0.36326781     0.057408027    47.000817      14.625669    
     99380   198.76         280.34969      133186.55     -807631.84     -304.44923      0.3632775      0.057309142    47.05372       14.393393    
     99390   198.78         286.03954      134192.99     -807631.97     -305.28351      0.36328704     0.057464675    47.027539      14.161122    
     99400   198.8          285.92934      132083.45     -807634.68     -302.84546      0.36329644     0.057004277    47.070132      13.928853    
     99410   198.82         279.65862      132701.06     -807634.65     -302.289        0.3633057      0.056898086    46.82813       13.696595    
     99420   198.84         275.39519      131497.2      -807634.9      -301.83419      0.36331481     0.056811055    47.073614      13.464335    
     99430   198.86         280.85507      132960.79     -807634.11     -303.72027      0.36332378     0.057164639    47.128604      13.232077    
     99440   198.88         277.25138      132213.91     -807634.03     -303.74978      0.36333261     0.057168804    46.896905      12.999828    
     99450   198.9          277.43819      133611.47     -807633.57     -304.53261      0.36334129     0.057314771    47.122942      12.767578    
     99460   198.92         276.35865      133325.84     -807633.47     -304.8031       0.36334983     0.05736433     47.107268      12.535333    
     99470   198.94         278.21656      133986.11     -807632.79     -306.00618      0.36335823     0.057589421    47.218157      12.303089    
     99480   198.96         271.52144      132416.43     -807633.42     -304.6626       0.36336648     0.057335261    47.126866      12.070851    
     99490   198.98         271.94852      131734.04     -807635.34     -302.94801      0.3633746      0.057011314    46.935538      11.838621    
     99500   199            268.34538      130713.09     -807635.1      -302.82176      0.36338256     0.056986306    46.92437       11.606396    
     99510   199.02         267.82821      132226.91     -807634.73     -19404.66       0.36339039     0.057055847    46.586391      11.374182    
     99520   199.04         278.4853       132241.4      -807636.38     -19398.378      0.36339807     0.05703617     46.846347      11.141966    
     99530   199.06         279.29535      132147.55     -807635.59     -19456.954      0.3634056      0.05720721     46.851145      10.909753    
     99540   199.08         274.63641      133870.78     -807633.87     -19529.055      0.363413       0.057418033    46.876654      10.677544    
     99550   199.1          270.87636      133989.7      -807631.85     -19624.374      0.36342025     0.057697133    46.866895      10.445338    
     99560   199.12         271.21735      133350.43     -807633.68     -19508.839      0.36342736     0.05735633     46.904756      10.213136    
     99570   199.14         267.33328      132629.92     -807634.16     -19441.635      0.36343432     0.057157652    46.873876      9.9809384    
     99580   199.16         280.97168      131943.73     -807635.68     -19458.578      0.36344114     0.057206392    46.897335      9.7487439    
     99590   199.18         269.24892      131403.18     -807635.34     -19371.269      0.36344782     0.056948665    46.873462      9.5165537    
     99600   199.2          279.25019      131669.45     -807636.96     -19346.061      0.36345435     0.056873535    46.957965      9.2843657    
     99610   199.22         277.15996      131124.75     -807637.07     -19317.531      0.36346074     0.056788663    46.739835      9.0521854    
     99620   199.24         277.06437      132830.33     -807633.43     -19539.828      0.36346699     0.057441174    46.898073      8.8200061    
     99630   199.26         274.40268      132996.51     -807633.46     -19510.496      0.3634731      0.057353982    46.881765      8.5878309    
     99640   199.28         266.22789      134826.69     -807631.3      -19562.159      0.36347906     0.057504911    46.922156      8.3556587    
     99650   199.3          268.47342      133687.72     -807632        -19527.499      0.36348487     0.057402107    46.919219      8.1234905    
     99660   199.32         283.51309      134075.16     -807633.32     -19561.723      0.36349055     0.057501812    46.911656      7.8913261    
     99670   199.34         274.26432      131588.29     -807634.08     -19420.553      0.36349608     0.057085972    46.936538      7.6591653    
     99680   199.36         280.44422      131812.18     -807635.64     -19358.661      0.36350147     0.0569032      46.872418      7.4270092    
     99690   199.38         282.06035      130390.21     -807636.01     -19340.059      0.36350671     0.056847703    46.862339      7.194857     
     99700   199.4          275.79258      132530.68     -807633.51     -19431.162      0.36351181     0.057114687    46.798881      6.9627094    
     99710   199.42         281.85856      132054.81     -807633.91     -19450.016      0.36351677     0.057169324    46.728121      6.7305665    
     99720   199.44         273.23305      134168.28     -807631.78     -19498.422      0.36352158     0.057310845    46.747038      6.498427     
     99730   199.46         284.6262       133580.77     -807633.21     -19500.573      0.36352625     0.057316431    46.64122       6.2662924    
     99740   199.48         280.06076      134768.54     -807631.04     -19588.022      0.36353078     0.057572745    46.727617      6.0341604    
     99750   199.5          285.4573       133414.47     -807633.49     -19474.266      0.36353516     0.057237706    46.607773      5.8020334    
     99760   199.52         284.38238      132131.4      -807634.24     -19406.913      0.3635394      0.05703908     46.771486      5.5699081    
     99770   199.54         284.26669      131977.67     -807634.99     -19355.307      0.3635435      0.056886763    46.764215      5.3377865    
     99780   199.56         278.74521      132356.28     -807633.32     -19410.859      0.36354745     0.057049415    46.760122      5.1056687    
     99790   199.58         287.91796      132009        -807633.98     -19447.511      0.36355126     0.057156536    46.714415      4.8735549    
     99800   199.6          287.63708      131979.18     -807634.92     -19384.026      0.36355493     0.056969379    46.801435      4.641444     
     99810   199.62         278.7725       134161.6      -807631.54     -19517.913      0.36355845     0.057362316    46.602282      4.4093385    
     99820   199.64         287.73543      132946.16     -807632.39     -19545.028      0.36356183     0.057441471    46.770768      4.1772351    
     99830   199.66         295.02521      133886.43     -807632.89     -19572.074      0.36356507     0.057520445    46.835958      3.9451349    
     99840   199.68         283.2459       131550.23     -807634.14     -19394.703      0.36356816     0.056998683    46.723302      3.7130392    
     99850   199.7          274.79824      133707.45     -807631.32     -19495.528      0.36357111     0.057294532    46.662926      3.4809476    
     99860   199.72         283.4143       131138.12     -807634.44     -19380.587      0.36357392     0.056956298    46.663763      3.2488595    
     99870   199.74         278.09406      133916.15     -807632.48     -19456.694      0.36357658     0.057179545    46.65128       3.0167751    
     99880   199.76         269.97165      132156.04     -807633.14     -19351.221      0.3635791      0.056869184    46.679554      2.784694     
     99890   199.78         282.87921      134303.52     -807632.07     -19527.584      0.36358148     0.057387103    46.538663      2.5526173    
     99900   199.8          294.7001       131896.31     -807634.44     -19491.788      0.36358371     0.057281555    46.817534      2.3205427    
     99910   199.82         291.28093      134436.97     -807632.39     -19589.81       0.3635858      0.057569289    46.62339       2.0884726    
     99920   199.84         287.72732      132107.75     -807635.19     -19387.644      0.36358775     0.056974868    46.860989      1.8564051    
     99930   199.86         276.70249      133637.34     -807631.99     -19497.163      0.36358955     0.057296431    46.809453      1.6243416    
     99940   199.88         288.02436      131019.33     -807634.87     -19425.054      0.36359121     0.057084263    46.877559      1.3922815    
     99950   199.9          281.09343      132073.69     -807634.03     -19420.363      0.36359273     0.05707024     46.91287       1.1602252    
     99960   199.92         273.75836      132130.67     -807634.13     -19353.183      0.3635941      0.056872606    46.7569        0.92817287   
     99970   199.94         282.6213       132912.84     -807634.06     -19444.04       0.36359533     0.057139412    46.715543      0.69612426   
     99980   199.96         281.95906      133537.22     -807632.31     -19556.805      0.36359641     0.057470617    46.808963      0.46407915   
     99990   199.98         284.80032      132897.59     -807633.89     -19489.58       0.36359736     0.057272918    46.830642      0.23203773   
    100000   200            277.74525      133787.74     -807632.65     -19511.09       0.36359816     0.057336003    46.83078       0            
Loop time of 2320.37 on 64 procs for 100000 steps with 1080 atoms

Performance: 7.447 ns/day, 3.223 hours/ns, 43.097 timesteps/s, 46.544 katom-step/s
88.2% CPU use with 64 MPI tasks x 1 OpenMP threads

MPI task timing breakdown:
Section |  min time  |  avg time  |  max time  |%varavg| %total
---------------------------------------------------------------
Pair    | 1587.3     | 1756.5     | 1918.8     | 171.1 | 75.70
Neigh   | 0.0011108  | 0.02757    | 0.17474    |  25.1 |  0.00
Comm    | 316.7      | 479.35     | 648.48     | 327.5 | 20.66
Output  | 3.0589     | 3.4263     | 3.767      |  11.5 |  0.15
Modify  | 71.779     | 73.005     | 74.12      |   5.3 |  3.15
Other   |            | 8.101      |            |       |  0.35

Nlocal:         16.875 ave          22 max          11 min
Histogram: 4 0 5 7 11 14 5 11 2 5
Nghost:        826.375 ave         838 max         805 min
Histogram: 1 0 5 5 4 7 10 19 7 6
Neighs:              0 ave           0 max           0 min
Histogram: 64 0 0 0 0 0 0 0 0 0
FullNghs:      2693.06 ave        3517 max        1742 min
Histogram: 3 1 4 8 11 15 6 9 3 4

Total # of neighbors = 172356
Ave neighs/atom = 159.58889
Neighbor list builds = 3
Dangerous builds = 0

Total wall time: 0:41:09
