
units		metal
atom_style	atomic

read_data ${STRUCTURE}.data
read_data BaTiO3-sc333.data
Reading data file ...
  orthogonal box = (0 0 0) to (11.898253 11.898253 12.912076)
  2 by 4 by 4 MPI processor grid
  reading atoms ...
  135 atoms
  read_data CPU = 0.006 seconds
replicate $L $L $L
replicate 2 $L $L
replicate 2 2 $L
replicate 2 2 2
Replication is creating a 2x2x2 = 8 times larger system...
  orthogonal box = (0 0 0) to (23.796507 23.796507 25.824152)
  2 by 4 by 4 MPI processor grid
  1080 atoms
  replicate CPU = 0.003 seconds

pair_style allegro
pair_coeff	* * ${MODEL}.pth Ba Ti O
pair_coeff	* * BaTiO3-E0.pth Ba Ti O
mass 1 137.3
mass 2 47.9
mass 3 15.9994

timestep 0.002
compute polarization all allegro polarization 3
compute allegro will evaluate the quantity polarization of length 3 (src/compute_allegro.cpp:53)
compute polarizability all allegro polarizability 9
compute allegro will evaluate the quantity polarizability of length 9 (src/compute_allegro.cpp:53)

thermo_style custom pe fmax fnorm spcpu cpuremain

variable efield equal 1e-2*36.36
fix born all addbornforce 0.0 0.0 ${efield}
fix born all addbornforce 0.0 0.0 0.3636

thermo 10
min_style fire
#minimize 0.0 1e-6 100 100
velocity all create ${TEMP} ${SEED} dist gaussian rot yes mom yes
velocity all create 320 ${SEED} dist gaussian rot yes mom yes
velocity all create 320 18230 dist gaussian rot yes mom yes
fix nvt all nvt temp ${TEMP} ${TEMP} $(100*dt)
fix nvt all nvt temp 320 ${TEMP} $(100*dt)
fix nvt all nvt temp 320 320 $(100*dt)
fix nvt all nvt temp 320 320 0.2000000000000000111
run 5000
Neighbor list info ...
  update: every = 1 steps, delay = 0 steps, check = yes
  max neighbors/atom: 2000, page size: 100000
  master list distance cutoff = 8
  ghost atom cutoff = 8
  binsize = 8, bins = 3 3 4
  1 neighbor lists, perpetual/occasional/extra = 1 0 0
  (1) pair allegro/kk, perpetual
      attributes: full, newton on, kokkos_device
      pair build: full/bin/kk/device
      stencil: full/bin/3d
      bin: kk/device
Per MPI rank memory allocation (min/avg/max) = 3.516 | 3.516 | 3.516 Mbytes
    PotEng          Fmax          Fnorm          S/CPU         CPULeft    
-807708.29      1.5957386      37.044549      0              0            
-807645.09      3.7088414      45.572579      2.3064684      2163.4817    
-807634.09      2.8043495      35.652645      25.921419      1175.6326    
-807606.42      4.1309885      37.789975      25.928667      846.07451    
-807602.63      4.3894409      50.408152      25.851484      681.24547    
-807565.98      3.7493958      41.596628      25.802401      582.26607    
-807602.53      2.9077288      38.857726      25.91075       516.01726    
-807645.96      3.525572       35.000122      25.933115      468.56291    
-807684.42      2.9552928      34.261654      25.878178      432.92611    
-807665.81      3.6362141      34.67408       25.901098      405.10408    
-807652.63      3.3002368      34.636175      25.9442        382.7378     
-807660.2       2.7734903      27.85057       25.926494      364.37976    
-807627.57      3.3715507      31.147768      25.932364      349.01353    
-807584.02      3.4119105      40.379117      25.891122      335.97503    
-807570.14      3.6821548      37.964619      25.930265      324.72376    
-807632.95      3.8479357      34.286317      25.86279       314.95377    
-807653.51      4.0397401      31.518353      25.890635      306.34412    
-807664.05      2.869969       34.360605      25.846352      298.72073    
-807646.9       4.4259956      44.238254      25.921298      291.87144    
-807679.15      3.0094225      36.624179      25.860548      285.72546    
-807641.05      4.0543161      39.168811      25.820838      280.16968    
-807615.04      3.0297         38.963081      25.898479      275.07966    
-807561.11      4.3338056      46.059237      25.961827      270.39679    
-807605.53      4.122001       49.452035      25.880068      266.11288    
-807613.19      4.2287215      39.2813        25.835192      262.16707    
-807640.5       3.1854583      36.081458      25.921777      258.48139    
-807641.99      4.809338       45.772068      25.934257      255.04615    
-807680.48      3.0453024      38.077872      25.859427      251.85638    
-807661.63      3.0901429      35.746956      25.796656      248.88269    
-807636.65      2.6951302      32.72113       25.918108      246.05784    
-807606.85      3.3066972      34.877542      25.919928      243.39516    
-807604.36      4.2031495      42.750693      25.876191      240.88925    
-807596.97      3.5983562      36.524957      25.855925      238.52023    
-807608.84      2.693548       33.575062      25.916902      236.25847    
-807641.31      3.429506       30.910959      25.922213      234.10598    
-807672.61      3.0155214      31.973561      25.905742      232.0577     
-807676.09      2.9979601      32.962836      25.758082      230.13028    
-807642.34      3.9963378      39.096994      25.905681      228.2584     
-807647.3       3.133612       31.773612      25.926227      226.46099    
-807619.61      3.6160724      35.225919      25.917906      224.73744    
-807600.87      4.1051565      44.088696      25.8606        223.09062    
-807567.88      4.1264386      42.621272      25.936235      221.49263    
-807623.08      3.0996661      36.782548      25.90547       219.95738    
-807648.02      3.5497298      36.005429      25.88214       218.47928    
-807670.92      2.7491614      35.511384      25.860932      217.05408    
-807640.37      4.7700673      47.040983      25.910906      215.6675     
-807664.52      2.7063651      35.98497       25.918035      214.32337    
-807643.86      3.9943135      37.033934      25.879126      213.02562    
-807623.58      3.2496132      38.141865      25.902876      211.7625     
-807565.55      3.8187471      43.862198      25.936914      210.53052    
-807601.48      3.4471241      43.268156      25.906274      209.3365     
-807624.66      3.6886447      34.884819      25.883902      208.1771     
-807653.24      2.7363442      32.107898      25.911727      207.04386    
-807641.25      4.5031622      40.648138      25.931662      205.93633    
-807670.65      2.9594052      34.466466      25.896955      204.85979    
-807664.38      2.9754998      33.285809      25.825083      203.81706    
-807641.15      3.4919393      31.375482      25.914451      202.78715    
-807600.63      3.602572       35.69631       25.929342      201.77811    
-807598.07      3.4617469      38.61152       25.90881       200.7929     
-807606.92      4.4171904      40.007046      25.812359      199.83879    
-807618.43      3.7041549      33.276817      25.905173      198.89338    
-807635.86      3.1265709      33.366248      25.940189      197.96256    
-807661.59      3.631428       34.094081      25.933001      197.0501     
-807673.37      2.8203344      36.631614      25.830133      196.165      
-807642.37      5.1759088      39.890879      25.891396      195.28923    
-807633.31      3.4921252      34.577259      25.937853      194.42389    
-807613.01      3.6116005      36.768584      25.961458      193.57079    
-807605.72      4.2522008      45.693197      25.873579      192.74011    
-807581.04      4.0095066      40.832169      25.902867      191.91972    
-807615.14      3.1320536      36.968512      25.91941       191.11037    
-807643.31      3.8975259      36.592013      25.928286      190.31232    
-807672.2       2.7770617      36.322548      25.820459      189.53561    
-807646.33      4.5882468      42.52454       25.866115      188.76566    
-807650.19      4.051364       36.393947      25.926459      188.00095    
-807641.25      3.6256862      35.605621      25.913209      187.24762    
-807622.85      3.7933275      38.415255      25.908543      186.50447    
-807577.49      4.1552031      41.077353      25.872462      185.77373    
-807589         3.6229548      41.060494      25.915577      185.0484     
-807625.36      4.8657727      34.531952      25.828176      184.33884    
-807654.27      3.0050285      33.263823      25.815552      183.63845    
-807649.03      4.8633692      37.486941      25.867395      182.94181    
-807653.42      4.1141467      36.706986      25.770389      182.26035    
-807663.65      3.7097311      33.575048      25.854709      181.57959    
-807641.03      3.5605838      33.412757      25.829355      180.90783    
-807603.17      4.1686295      37.123337      25.921982      180.236      
-807583.19      3.696595       40.418833      25.920001      179.57103    
-807606.85      3.6923602      41.322563      25.859967      178.91688    
-807623.85      3.4467857      35.725505      25.847797      178.26973    
-807636.71      3.4694638      35.515043      25.866148      177.62721    
-807648.61      3.508282       38.362857      25.925807      176.98634    
-807669.41      3.0308186      37.067647      25.894641      176.35325    
-807650.21      4.8174472      36.879592      25.822601      175.73043    
-807629.65      2.9736326      34.70142       25.92269       175.1061     
-807604.96      4.0160179      36.656007      25.938854      174.48585    
-807607.15      3.9544567      42.421928      25.896453      173.87332    
-807597.68      3.8592661      38.657713      25.877493      173.26676    
-807615.12      3.3692654      36.319397      25.936688      172.66108    
-807638.88      4.1015519      35.712373      25.921752      172.06086    
-807667.14      3.1603318      35.467973      25.901785      171.46623    
-807656.86      4.1657239      36.825225      25.858445      170.87844    
-807643.37      4.2379369      35.249403      25.904793      170.2919     
-807633.49      3.9687503      33.843973      25.896154      169.70984    
-807624.26      3.5431464      36.18087       25.921043      169.13018    
-807594.35      4.6899822      39.162725      25.855442      168.55805    
-807591.95      3.0903433      38.596513      25.927675      167.98539    
-807624.3       4.0553385      33.661563      25.922479      167.41657    
-807654.34      3.179821       33.13892       25.886069      166.85323    
-807658.49      3.3385585      34.657887      25.834878      166.29601    
-807648.03      3.684173       37.056546      25.923291      165.73715    
-807654.15      2.8443895      32.761767      25.919588      165.18166    
-807641.34      3.794781       32.233426      25.919241      164.62927    
-807612.76      3.2491254      35.203888      25.897667      164.08101    
-807582.42      3.2133744      38.934177      25.891246      163.53598    
-807607.75      3.5884253      37.723051      25.917458      162.99243    
-807631.76      2.9185052      34.304147      25.856833      162.4547     
-807647.68      2.6154412      33.608685      25.87661       161.91861    
-807643.69      4.162385       38.409549      25.902159      161.38383    
-807663.08      3.6257415      35.670869      25.915882      160.85093    
-807651.49      3.3046231      35.330562      25.871798      160.32265    
-807632.12      3.4585904      33.9501        25.91584       159.79465    
-807596.13      3.7170928      38.092421      25.913997      159.26911    
-807603.15      3.3630287      40.352322      25.892688      158.74687    
-807608.46      3.7128698      37.026862      25.84294       158.22916    
-807627.02      3.0976006      33.872552      25.91085       157.71047    
-807634.92      4.1177588      36.542817      25.923263      157.19336    
-807662.53      2.8832836      34.453102      25.921231      156.67844    
-807657.72      3.9156317      35.712532      25.793406      156.17125    
-807643.96      4.2932385      34.173946      25.88074       155.66209    
-807623.7       5.0310714      34.225395      25.90476       155.15382    
-807617.14      4.0403639      35.393864      25.914062      154.64704    
-807602.13      4.4139531      38.522803      25.742867      154.14942    
-807600.41      3.7266559      36.923756      25.813304      153.65049    
-807622.1       3.3519381      33.416753      25.896748      153.14976    
-807650.41      3.2898605      34.230909      25.880688      152.65142    
-807659.91      3.3993264      35.294407      25.845613      152.15618    
-807646.6       4.2873004      36.868986      25.854849      151.66218    
-807642.77      3.8442923      34.387788      25.863139      151.16942    
-807633.77      3.9765381      34.766956      25.881755      150.67747    
-807613.44      3.1307823      37.864257      25.798407      150.19032    
-807587.29      4.2119964      39.276108      25.844685      149.70281    
-807604.45      3.2086455      37.982855      25.849463      149.21654    
-807631.79      3.8495213      35.091131      25.850797      148.73164    
-807654.1       3.128932       34.030374      25.806604      148.24979    
-807645.02      3.9985886      38.19802       25.89591       147.76592    
-807654.65      3.1230893      34.67532       25.869171      147.2844     
-807647.17      3.5111417      35.356576      25.842688      146.80515    
-807632.6       2.979285       33.762981      25.813904      146.32822    
-807596.14      3.8460067      37.222229      25.89917       145.84944    
-807596.7       3.5825414      39.400813      25.854261      145.37351    
-807613.2       3.6359927      36.858783      25.876441      144.89799    
-807635.29      3.0785347      34.490729      25.863676      144.42411    
-807640.56      4.8641275      36.694169      25.91047       143.94977    
-807655.21      3.7787603      35.042458      25.852403      143.47857    
-807657.89      3.4872043      35.333956      25.852361      143.00848    
-807645.07      3.4314487      33.781889      25.793485      142.54146    
-807619.08      4.0506622      34.557475      25.852706      142.07348    
-807607.65      3.1461348      35.891898      25.867479      141.60606    
-807605.41      3.5780292      38.701763      25.916914      141.13805    
-807614.9       3.8446152      35.771857      25.81497       140.67439    
-807627.86      3.7522193      34.979737      25.912547      140.20855    
-807648.36      3.9782104      34.374387      25.905557      139.74394    
-807662.35      3.5058484      34.243075      25.818568      139.28304    
-807651.55      3.8499236      35.19274       25.849649      138.82207    
-807638.12      4.7221557      33.977465      25.921221      138.35981    
-807622.3       3.6229318      34.93835       25.938431      137.89796    
-807614.59      3.8807131      36.879369      25.901738      137.43814    
-807597.76      3.7490283      38.562474      25.887576      136.97963    
-807610.99      3.4534655      35.733263      25.903228      136.52152    
-807635         3.680824       35.173682      25.87646       136.06506    
-807654.31      3.4771281      35.454178      25.852039      135.61014    
-807652.42      4.5928707      37.086081      25.858463      135.15584    
-807647.14      3.6905493      35.934943      25.910301      134.70084    
-807642.01      3.3034245      34.435436      25.875338      134.24764    
-807628.13      3.6905674      34.990359      25.906288      133.79433    
-807602.28      3.3280627      37.600826      25.894276      133.34214    
-807596.29      3.3325365      38.23336       25.919166      132.89001    
-807619.59      3.6007015      34.524261      25.915436      132.43874    
-807640.14      3.8422302      33.968622      25.900876      131.9886     
-807648.25      3.2782252      35.177938      25.889645      131.53948    
-807647.73      4.6848258      37.034937      25.930028      131.08999    
-807653.48      3.3027952      35.039502      25.918223      130.64152    
-807640.59      3.9047705      35.143224      25.90492       130.19409    
-807617.51      3.5824602      36.248321      25.922549      129.74688    
-807597.13      3.7919067      39.05905       25.922352      129.30034    
-807607.13      3.9076471      38.709538      25.9217        128.85448    
-807619.69      3.627428       36.367062      25.879383      128.41034    
-807635.42      4.4446673      33.801869      25.903083      127.96623    
-807643.74      4.0815285      35.668374      25.883481      127.52323    
-807655.58      2.9625729      35.133345      25.897165      127.08049    
-807649.41      4.389617       35.889522      25.855549      126.63938    
-807632.81      3.0363301      34.64528       25.897001      126.19782    
-807613.33      3.3766026      35.903503      25.938624      125.75584    
-807608.23      3.4777607      38.144175      25.895826      125.31548    
-807606.11      3.6105186      38.303419      25.859365      124.87654    
-807617.58      3.7870525      36.51171       25.904503      124.43708    
-807633.91      3.9798936      35.603918      25.938676      123.99737    
-807649.78      3.9516531      36.192733      25.916337      123.55872    
-807653.08      3.4606583      35.628837      25.876034      123.12154    
-807641.33      5.288676       36.514494      25.903148      122.68426    
-807630.98      3.3633532      35.100445      25.901775      122.24752    
-807621.4       4.8816602      35.96475       25.952273      121.81015    
-807606.86      4.0140581      38.332986      25.922446      121.37397    
-807602.57      4.7489158      36.98854       25.892819      120.93894    
-807619.37      4.4210858      36.070245      25.927201      120.50364    
-807641.08      5.3618348      35.057066      25.922165      120.06893    
-807649.7       4.9870923      36.02431       25.922554      119.63469    
-807644.9       3.7358021      36.576119      25.933273      119.2007     
-807642.49      4.4222509      36.09049       25.928286      118.76728    
-807635.12      3.2072479      35.216859      25.915193      118.33459    
-807617.89      3.5404285      36.647723      25.913809      117.90238    
-807601.09      3.6125163      38.30908       25.912107      117.47064    
-807607.26      3.4187085      38.039493      25.914358      117.03929    
-807626.29      3.5604858      35.922474      25.887904      116.60891    
-807640.31      3.436123       35.070103      25.923849      116.17822    
-807643.24      3.9878675      36.775626      25.902984      115.74836    
-807650.08      3.4235836      35.930352      25.87523       115.31946    
-807646.74      3.3999177      35.509473      25.872532      114.89101    
-807632.52      3.6906812      34.799279      25.894032      114.46252    
-807609.48      3.2819979      35.996158      25.930812      114.03372    
-807606.96      3.3609741      36.946205      25.912055      113.60567    
-807612.78      3.6458057      36.506796      25.929446      113.17767    
-807625.29      3.2971112      34.814622      25.925389      112.75012    
-807634.59      4.9759044      36.048044      25.931061      112.32286    
-807648.84      3.4440351      35.455812      25.910006      111.89635    
-807653.59      4.4958104      35.556327      25.826299      111.47175    
-807641.28      3.1539046      35.534842      25.890675      111.0463     
-807625.98      3.7634373      35.339534      25.878345      110.62142    
-807613.74      3.6956146      36.562213      25.858935      110.19723    
-807610.68      3.4190962      38.064646      25.870789      109.77316    
-807608.72      3.4309108      37.123464      25.893311      109.34901    
-807624.28      2.8277021      34.624786      25.93768       108.92443    
-807643.03      3.7770532      34.139589      25.931268      108.50029    
-807651.99      3.2932016      35.270701      25.854382      108.07781    
-807647.64      3.7795746      34.952826      25.874052      107.65529    
-807638.25      4.1430286      35.280911      25.928568      107.23216    
-807630.04      2.9480461      34.386561      25.913082      106.80961    
-807616.45      3.6551536      36.972869      25.849687      106.38843    
-807602.27      3.4861841      38.346321      25.917942      105.96641    
-807610.84      3.1349741      36.447436      25.921587      105.54463    
-807631.13      2.7338757      33.636475      25.891733      105.12364    
-807645.87      2.9484874      33.864466      25.868746      104.70331    
-807647.25      3.2035794      34.552224      25.842395      104.28369    
-807644.4       3.344071       34.710467      25.843565      103.86432    
-807643.14      3.5015487      33.743913      25.872327      103.44475    
-807630.28      3.6546542      34.658594      25.918444      103.02474    
-807610.05      3.065665       35.988572      25.907414      102.60518    
-807602.89      3.81586        36.930561      25.926215      102.1856     
-807618.07      3.0614264      35.577454      25.923859      101.76633    
-807633.79      3.6143087      33.944884      25.915878      101.34746    
-807641.22      3.3295673      34.141098      25.930202      100.92863    
-807645.73      3.8548342      35.154177      25.923174      100.51017    
-807649.79      4.0893353      34.649198      25.921146      100.09201    
-807642.29      3.2861815      33.996956      25.860943      99.67498     
-807622.51      3.4477185      35.072828      25.939832      99.257046    
-807610.31      2.9204386      36.238254      25.917641      98.839687    
-807610.71      3.7227451      36.858868      25.914137      98.422625    
-807618.02      3.4271769      35.596461      25.877821      98.006324    
-807629.53      4.2915326      34.111289      25.867713      97.590397    
-807640.99      2.7387293      34.765663      25.914442      97.174044    
-807650.26      2.6505614      35.002535      25.856404      96.758732    
-807647.47      3.1075807      34.514502      25.836659      96.343913    
-807635.97      3.4575906      34.677775      25.900862      95.928429    
-807622.59      3.1587576      35.533209      25.924784      95.512844    
-807615.05      3.4671098      37.172787      25.926272      95.097467    
-807608.5       3.2984726      37.431253      25.919241      94.682408    
-807614.92      3.7259256      35.277369      25.922315      94.26753     
-807630.34      3.484961       34.783088      25.918903      93.852914    
-807645.77      3.5029659      34.539539      25.866737      93.439194    
-807647.3       3.1329232      35.772664      25.884853      93.025442    
-807642.59      5.0445217      35.279351      25.906143      92.611621    
-807634.76      3.2437322      35.409531      25.926108      92.197753    
-807624.71      4.5579555      36.155958      25.917308      91.784204    
-807610.11      3.436563       37.669395      25.929803      91.370701    
-807603.34      4.6273008      38.768339      25.924549      90.957469    
-807616.78      4.0158055      36.014026      25.917599      90.544522    
-807636.68      4.4617621      35.17549       25.91206       90.13184     
-807641.58      3.3099232      35.689494      25.86063       89.719974    
-807644.43      3.2740489      35.285252      25.853575      89.308376    
-807643.56      3.4633797      35.390318      25.845207      88.897056    
-807637.91      4.108519       35.128181      25.890287      88.485377    
-807619.51      2.9097453      35.966239      25.910461      88.073644    
-807605.46      4.1098019      38.398398      25.844391      87.662863    
-807607.23      3.3319554      37.647548      25.869499      87.25196     
-807623.69      3.2386113      35.118472      25.798649      86.842044    
-807633.48      4.3357093      35.21633       25.791394      86.432368    
-807640.08      3.7351423      36.300103      25.85887       86.022083    
-807647.02      4.0928264      35.300165      25.865695      85.611886    
-807645.99      3.1342682      34.667982      25.889453      85.20159     
-807631.37      4.4108011      35.655288      25.928422      84.791034    
-807615.89      3.8251788      36.688383      25.922911      84.38071     
-807609.81      4.5314956      37.72004       25.933997      83.970436    
-807612.75      3.1632766      36.608542      25.924155      83.560437    
-807620.55      3.3001385      35.194561      25.913017      83.150721    
-807633.43      3.2917262      34.906273      25.88804       82.741432    
-807646.52      3.5818293      34.574668      25.971978      82.331424    
-807648.33      3.5200421      34.363334      25.92262       81.922095    
-807641.79      3.3699284      34.638166      25.925263      81.512898    
-807630.34      3.8442327      34.640067      25.929601      81.103816    
-807621.54      4.1185675      35.523847      25.927037      80.694916    
-807611.73      3.4571284      36.439641      25.914419      80.286297    
-807611.99      2.8743529      36.442815      25.92553       79.87772     
-807622.5       4.122624       35.0332        25.923005      79.46932     
-807640.29      3.27158        33.645839      25.885091      79.06144     
-807645.98      3.9225871      34.044466      25.9227        78.653338    
-807646.73      2.5649307      34.183499      25.859215      78.245993    
-807640.38      3.6559335      33.913758      25.868227      77.838698    
-807634.45      3.0147532      33.649548      25.886505      77.431365    
-807618.09      3.9760739      35.788781      25.89326       77.024106    
-807610.13      3.1179013      36.156106      25.913115      76.616799    
-807612.27      2.9693313      36.468847      25.860201      76.210119    
-807628.57      2.8078746      34.498183      25.899199      75.80321     
-807638.56      3.7518229      34.999463      25.893878      75.396484    
-807644.91      2.7875133      34.720484      25.913575      74.989712    
-807645         3.3474052      35.346116      25.905454      74.583146    
-807640.74      3.5263136      34.952379      25.921245      74.176572    
-807631.08      3.1386515      33.653526      25.919837      73.770142    
-807614.22      3.1034721      36.175195      25.881563      73.364174    
-807609.45      3.5082912      36.156767      25.862326      72.958496    
-807615.47      3.2703577      36.154518      25.862097      72.55294     
-807628.27      3.1029108      34.819293      25.902066      72.147164    
-807637.36      3.329987       34.922488      25.924859      71.74132     
-807645.11      3.3083402      34.727176      25.873706      71.336026    
-807646.57      3.0251466      34.517406      25.803981      70.931426    
-807638.4       3.4956067      35.303742      25.894833      70.526188    
-807625.39      3.0320514      35.254969      25.887127      70.121129    
-807614.03      3.4129212      36.146647      25.930695      69.715836    
-807613.71      2.9406787      36.19015       25.920288      69.310746    
-807615.79      3.1839613      36.564507      25.913181      68.905831    
-807625.75      3.0116937      34.493389      25.910316      68.501053    
-807639.81      3.9631502      34.695867      25.918312      68.096328    
-807647.12      2.8023724      34.353504      25.860743      67.692161    
-807642.44      4.3943349      35.627187      25.854728      67.288144    
-807633.08      3.4985489      35.30868       25.862602      66.884173    
-807626.03      3.2952123      34.735964      25.890469      66.480096    
-807615         3.480683       36.425923      25.91228       66.075964    
-807610.03      3.5625767      37.571522      25.911591      65.671947    
-807615.52      3.4366381      36.251963      25.909776      65.26805     
-807631.47      3.4870201      35.332507      25.895217      64.864364    
-807640.16      3.5523875      34.873911      25.920597      64.460602    
-807644.8       3.7578737      35.586122      25.918007      64.056963    
-807641.65      2.9112434      35.208543      25.908342      63.653497    
-807637.89      4.1053149      34.20779       25.929629      63.249985    
-807624.05      3.4840535      34.66715       25.931014      62.846569    
-807612.53      4.5614961      36.864003      25.925084      62.443297    
-807610.62      3.1851067      36.485003      25.908975      62.040235    
-807620.32      4.1014277      34.930515      25.883669      61.637442    
-807631.43      2.8863894      34.229621      25.904226      61.234607    
-807640.39      3.1721889      34.140974      25.884665      60.831999    
-807644.98      3.0487741      34.890537      25.9169        60.429273    
-807643         2.8826723      35.095654      25.900988      60.026747    
-807636.27      2.9488854      34.314636      25.884534      59.62442     
-807620.18      3.8295971      35.453767      25.909781      59.222025    
-807612.14      3.7645379      37.075153      25.880244      58.819908    
-807612.27      3.6660287      36.587585      25.917552      58.417649    
-807619.61      3.6473051      36.807113      25.905604      58.015555    
-807631.71      3.3098786      35.434595      25.93155       57.613395    
-807641.19      3.1641324      35.431042      25.872869      57.211681    
-807644.72      3.6180369      35.63389       25.863947      56.810106    
-807642.47      2.9754223      33.962107      25.920766      56.408278    
-807630.05      3.1672845      35.308652      25.904161      56.006636    
-807621.65      3.8612512      35.807388      25.928995      55.604938    
-807612.9       3.7236934      36.305424      25.922132      55.203367    
-807614.21      3.208514       36.013518      25.921212      54.801889    
-807621.12      3.0994185      35.25151       25.923657      54.400484    
-807635.27      2.9906243      34.763968      25.923681      53.999165    
-807641.45      3.6153395      35.469929      25.875964      53.598194    
-807646.01      3.0257394      34.6062        25.903851      53.19715     
-807638.09      3.1751938      35.294788      25.882826      52.796302    
-807631.67      3.0567242      34.494164      25.898196      52.39545     
-807620.28      2.9633629      35.491459      25.892623      51.994707    
-807612.8       3.7412581      36.212455      25.899007      51.594009    
-807612.78      3.1309746      36.070083      25.929333      51.193233    
-807623.49      3.5398667      35.862623      25.927492      50.792548    
-807636.8       3.4841744      35.360214      25.924497      50.391958    
-807641.44      3.5104961      35.579375      25.915863      49.991491    
-807642.35      4.003144       35.838027      25.924892      49.591057    
-807638.11      4.0573881      35.895555      25.922428      49.190714    
-807632.97      3.2074691      34.486682      25.932879      48.790397    
-807617.34      3.7310402      35.813561      25.926084      48.39019     
-807611.36      3.3246645      35.521046      25.888044      47.990241    
-807614.97      4.209199       36.242421      25.91186       47.590252    
-807628.53      3.5495656      34.456183      25.899008      47.190396    
-807634.89      3.6103369      34.164468      25.891435      46.790647    
-807642         2.9803415      34.188761      25.911892      46.390876    
-807643.82      3.2526836      34.956487      25.863192      45.991396    
-807640.21      3.4850693      33.904561      25.856274      45.592014    
-807627.77      3.0595737      33.509389      25.906262      45.192477    
-807618.42      3.4736339      34.641405      25.930964      44.792902    
-807615.62      3.4424208      36.245671      25.925348      44.393423    
-807618.69      3.380701       36.393653      25.925081      43.994017    
-807625.91      3.4206357      34.674027      25.917952      43.59471     
-807636.32      4.2691973      34.870531      25.928513      43.195428    
-807643.92      2.9360233      34.66919       25.92142       42.796245    
-807643.69      4.240885       35.167972      25.799612      42.397626    
-807635.87      2.7257677      33.959566      25.843893      41.998884    
-807626.18      3.735882       34.954843      25.808401      41.600344    
-807620.18      3.4081572      35.168916      25.863411      41.201643    
-807613.85      3.8552129      36.298249      25.900109      40.80286     
-807616.85      3.6823027      35.476538      25.88754       40.40419     
-807629.05      4.5955365      34.112252      25.911437      40.005491    
-807640.09      3.5141624      34.047521      25.910954      39.606858    
-807642.49      5.2910863      34.807199      25.885453      39.208382    
-807641.8       3.6494055      33.256408      25.897359      38.809923    
-807634.69      5.1545067      33.841988      25.889796      38.411552    
-807627.11      3.6665958      34.341397      25.929611      38.013101    
-807617.03      3.7997743      34.83456       25.883918      37.614872    
-807613.14      2.9356213      35.193911      25.89697       37.216657    
-807620.01      3.7878068      36.151427      25.92463       36.818407    
-807631.78      3.0150564      35.539682      25.895752      36.420316    
-807638.05      3.2508677      35.574862      25.873254      36.022357    
-807641.06      4.0118285      35.924284      25.861141      35.624494    
-807640.68      3.8832618      35.512991      25.909731      35.226529    
-807636.32      4.1133098      34.395377      25.91989       34.828589    
-807622.97      3.2958092      35.71253       25.885294      34.430817    
-807615.42      3.3334516      35.383629      25.897265      34.033063    
-807614.86      3.4350682      35.832035      25.886763      33.635397    
-807621.15      3.3202369      35.12085       25.918276      33.237691    
-807630.47      3.1511642      35.360848      25.902156      32.84009     
-807637.05      4.5370519      35.559502      25.879614      32.44261     
-807641.19      4.0399762      35.394731      25.869705      32.045211    
-807639.23      4.9695693      35.438091      25.824055      31.647994    
-807631.31      3.2014274      34.984745      25.869743      31.250696    
-807622.42      3.3027986      34.541211      25.920279      30.85331     
-807614.39      2.9396964      35.593572      25.915311      30.455993    
-807615.49      3.2193043      35.904618      25.860403      30.058875    
-807622.06      3.4558998      35.528843      25.872286      29.661776    
-807631.09      2.7821731      33.989934      25.870668      29.264731    
-807639.79      3.1521147      34.159301      25.898759      28.867663    
-807641.76      2.6291575      35.38894       25.875905      28.470703    
-807639.92      3.036836       35.212335      25.859534      28.073834    
-807627.95      4.6391325      35.542028      25.858348      27.677014    
-807622.05      3.3327595      35.193107      25.910064      27.280117    
-807615.74      3.7745005      36.535693      25.928578      26.883228    
-807614.29      3.7448538      36.872251      25.915813      26.48642     
-807621.94      3.9408843      35.533994      25.93265       26.089625    
-807633.53      3.6741684      34.440154      25.931316      25.692883    
-807639.41      4.1780833      35.398529      25.913707      25.296231    
-807642.56      3.0477799      34.451646      25.926902      24.8996      
-807636.92      3.9143212      34.391168      25.889403      24.503098    
-807630.88      3.0590441      34.814279      25.922382      24.106575    
-807621.33      3.7288064      35.588503      25.924029      23.710097    
-807616.1       3.0208215      35.789289      25.911742      23.313692    
-807617.96      3.3599994      35.507841      25.909084      22.91734     
-807626.46      2.9999556      34.878848      25.892638      22.521066    
-807636.02      3.3409856      33.601142      25.915954      22.124794    
-807640.33      3.6181295      34.822746      25.900348      21.728597    
-807641.64      4.0235209      34.79189       25.850425      21.332536    
-807637.33      2.7286821      34.82426       25.862738      20.936494    
-807628.99      3.9219415      35.545136      25.856466      20.540505    
-807620.11      3.3255194      36.286332      25.85704       20.144556    
-807615.4       3.8371269      36.020319      25.886375      19.7486      
-807621.5       2.9984624      35.602073      25.936022      19.352605    
-807624.92      3.7438603      36.019974      25.914387      18.956692    
-807635.55      3.3635286      34.833862      25.900184      18.560844    
-807639.15      3.6482772      34.553425      25.886866      18.16506     
-807641.74      2.6491421      34.892362      25.857264      17.769361    
-807636.07      3.0936762      34.8085        25.84973       17.373712    
-807627.85      2.7995018      34.84446       25.86993       16.978073    
-807620.58      3.2423413      35.446637      25.849837      16.582501    
-807618.05      3.0443693      35.520842      25.900038      16.186901    
-807620.5       3.4123673      35.614696      25.867028      15.791384    
-807626.56      4.2800387      35.53704       25.886964      15.395882    
-807635.83      2.7326473      34.142441      25.856578      15.000456    
-807641.23      3.4272417      34.668344      25.910176      14.605004    
-807639.88      3.4898179      35.220036      25.875227      14.209633    
-807632.49      3.7121083      35.876922      25.884971      13.81429     
-807626.86      3.5943807      35.826572      25.883965      13.418986    
-807617.25      3.9243822      36.657695      25.895303      13.023709    
-807616.29      3.6623589      36.985461      25.924442      12.628441    
-807617.78      3.4748166      36.48768       25.900933      12.233237    
-807627.93      3.2748048      34.720722      25.915625      11.838058    
-807636.15      3.5544644      34.425091      25.89608       11.442936    
-807642.6       3.520316       34.399741      25.863519      11.047881    
-807636.54      3.4701977      35.931514      25.887825      10.652841    
-807633.22      3.100166       35.188021      25.880741      10.257844    
-807626.44      3.3098618      35.486694      25.864878      9.8628951    
-807617.57      3.0436573      36.178775      25.889637      9.4679628    
-807616.11      3.2499722      36.043163      25.926602      9.0730403    
-807619.12      3.0451715      36.27712       25.929005      8.6781547    
-807629.76      3.3794515      34.676614      25.886468      8.2833354    
-807636.9       3.036143       35.12518       25.824866      7.88859      
-807637.92      3.7761477      35.503258      25.844024      7.4938645    
-807637.56      3.7274713      35.124198      25.858278      7.0991634    
-807632.43      3.600315       35.633289      25.85612       6.7044965    
-807624.25      3.4390612      35.110479      25.858567      6.309861     
-807618.68      3.089081       35.237555      25.863205      5.915256     
-807618.43      3.639324       35.416549      25.908859      5.5206642    
-807624.1       2.6887835      34.738089      25.911695      5.1261066    
-807628.77      3.0183227      35.194965      25.86293       4.7316023    
-807636.42      3.0151653      34.548751      25.854879      4.3371328    
-807639.01      3.332783       34.707675      25.855149      3.9426946    
-807635.18      3.1076961      35.633438      25.824623      3.5482961    
-807630.55      3.1545515      35.397835      25.899298      3.1539086    
-807624.35      3.245436       35.199693      25.893237      2.7595558    
-807618.36      2.9968322      35.438724      25.919031      2.3652315    
-807618.31      3.139428       36.001635      25.912145      1.9709426    
-807623.03      3.3168499      34.966486      25.91148       1.5766874    
-807631.51      3.060319       34.483311      25.928841      1.1824643    
-807634.8       3.7702092      35.157684      25.918093      0.78827608   
-807639.74      3.2958097      34.17317       25.856111      0.39412325   
-807634.66      2.9436185      35.401132      25.922729      0            
Loop time of 197.053 on 32 procs for 5000 steps with 1080 atoms

Performance: 4.385 ns/day, 5.474 hours/ns, 25.374 timesteps/s, 27.404 katom-step/s
67.7% CPU use with 32 MPI tasks x 1 OpenMP threads

MPI task timing breakdown:
Section |  min time  |  avg time  |  max time  |%varavg| %total
---------------------------------------------------------------
Pair    | 101.75     | 144.72     | 192.95     | 309.2 | 73.44
Neigh   | 0          | 0          | 0          |   0.0 |  0.00
Comm    | 1.8239     | 50.054     | 93.026     | 525.7 | 25.40
Output  | 0.025707   | 0.027125   | 0.028152   |   0.2 |  0.01
Modify  | 1.932      | 1.9424     | 1.9574     |   0.4 |  0.99
Other   |            | 0.3142     |            |       |  0.16

Nlocal:          33.75 ave          48 max          21 min
Histogram: 8 8 0 0 0 0 0 8 0 8
Nghost:        1106.25 ave        1119 max        1092 min
Histogram: 8 0 8 0 0 0 0 0 8 8
Neighs:              0 ave           0 max           0 min
Histogram: 32 0 0 0 0 0 0 0 0 0
FullNghs:       5494.5 ave        7896 max        3378 min
Histogram: 8 8 0 0 0 0 0 8 0 8

Total # of neighbors = 175824
Ave neighs/atom = 162.8
Neighbor list builds = 0
Dangerous builds = 0

reset_timestep 0


variable interval equal 1000
thermo 10

variable nintervals equal $(v_PERIOD/v_interval)
variable nintervals equal 100
variable efield equal 1e-2*36.36*cos((step/${PERIOD})*2*3.14)
variable efield equal 1e-2*36.36*cos((step/100000)*2*3.14)
fix born all addbornforce 0.0 0.0 v_efield

variable Px equal f_born[1]+c_polarization[1]
variable Py equal f_born[2]+c_polarization[2]
variable Pz equal (f_born[3]+c_polarization[3])/vol
variable pe equal pe

fix aveP all ave/time 1 $(v_interval/2) ${interval} v_efield v_Pz v_pe f_born file Pz.${MODEL}.${STRUCTURE}.${TEMP}.$L.${ITER}
fix aveP all ave/time 1 500 ${interval} v_efield v_Pz v_pe f_born file Pz.${MODEL}.${STRUCTURE}.${TEMP}.$L.${ITER}
fix aveP all ave/time 1 500 1000 v_efield v_Pz v_pe f_born file Pz.${MODEL}.${STRUCTURE}.${TEMP}.$L.${ITER}
fix aveP all ave/time 1 500 1000 v_efield v_Pz v_pe f_born file Pz.BaTiO3-E0.${STRUCTURE}.${TEMP}.$L.${ITER}
fix aveP all ave/time 1 500 1000 v_efield v_Pz v_pe f_born file Pz.BaTiO3-E0.BaTiO3-sc333.${TEMP}.$L.${ITER}
fix aveP all ave/time 1 500 1000 v_efield v_Pz v_pe f_born file Pz.BaTiO3-E0.BaTiO3-sc333.320.$L.${ITER}
fix aveP all ave/time 1 500 1000 v_efield v_Pz v_pe f_born file Pz.BaTiO3-E0.BaTiO3-sc333.320.2.${ITER}
fix aveP all ave/time 1 500 1000 v_efield v_Pz v_pe f_born file Pz.BaTiO3-E0.BaTiO3-sc333.320.2.9

thermo_style custom step time temp press pe f_born v_efield v_Pz spcpu cpuremain

# dump 4a all custom 1000 dump.hyst.${MODEL}.${STRUCTURE}.${TEMP}.$L.${ITER}.bin id type xu yu zu fx fy fz
# dump_modify 4a sort id

fix nvt all nvt temp ${TEMP} ${TEMP} $(100*dt)
fix nvt all nvt temp 320 ${TEMP} $(100*dt)
fix nvt all nvt temp 320 320 $(100*dt)
fix nvt all nvt temp 320 320 0.2000000000000000111

run $(v_PERIOD)
run 100000
WARNING: non-constant efield is experimental, strongly distrust scalar/vector output (src/fix_addbornforce.cpp:193)
Per MPI rank memory allocation (min/avg/max) = 3.516 | 3.516 | 3.516 Mbytes
   Step          Time           Temp          Press          PotEng         f_born        v_efield         v_Pz          S/CPU         CPULeft    
         0   0              309.4333       128867.32     -807634.66     -295.71146      0.3636         0.055614982    0              0            
        10   0.02           326.1811       132880.49     -807631.38     -301.38324      0.36359993     0.056681694    28.003741      3570.6125    
        20   0.04           327.52879      138974.55     -807623.1      -309.93269      0.36359971     0.058289639    28.170623      3559.6717    
        30   0.06           307.60319      142529.37     -807616.25     -314.02667      0.36359935     0.05905966     28.218064      3553.8007    
        40   0.08           321.6731       142521.92     -807619.41     -312.81076      0.36359885     0.058831064    28.228334      3550.3635    
        50   0.1            324.44357      138021.89     -807624.47     -308.15702      0.36359821     0.057955925    28.20659       3548.7063    
        60   0.12           322.37103      132982.54     -807630.78     -301.57619      0.36359742     0.056718374    28.147956      3548.7134    
        70   0.14           323.26884      127308.35     -807637.84     -294.59973      0.36359649     0.055406432    28.15007       3548.5795    
        80   0.16           314.88518      126261.95     -807639.54     -291.72377      0.36359541     0.054865703    28.129486      3548.7139    
        90   0.18           316.65322      128197.39     -807636.14     -295.44024      0.36359419     0.05556486     28.112106      3548.9839    
       100   0.2            325.90482      133764.97     -807630.06     -302.9406       0.36359283     0.056975703    28.100437      3549.2763    
       110   0.22           322.61633      139595.16     -807622.47     -310.12284      0.36359132     0.058326748    28.133582      3549.0701    
       120   0.24           313.02198      142881.36     -807617.96     -313.32259      0.36358968     0.058928812    28.157754      3548.585     
       130   0.26           319.22021      142491.09     -807619.1      -313.09236      0.36358788     0.058885801    28.178723      3547.9169    
       140   0.28           330.29338      137258.73     -807625.15     -308.68553      0.36358595     0.058057281    28.21604       3546.9588    
       150   0.3            323.29337      131982.24     -807631.33     -301.51864      0.36358387     0.056709664    28.255975      3545.7478    
       160   0.32           309.75519      127288.01     -807637.33     -293.73301      0.36358165     0.055245679    28.210108      3545.0029    
       170   0.34           315.2749       127083.04     -807639.08     -292.83206      0.36357928     0.055076586    28.214689      3544.2703    
       180   0.36           316.92579      128498.26     -807635.7      -296.6567       0.36357677     0.055796319    28.238031      3543.4173    
       190   0.38           320.38635      135145.83     -807628.8      -304.1643       0.36357412     0.057208795    28.221657      3542.7244    
       200   0.4            323.50798      138990.5      -807624.23     -309.34086      0.36357132     0.058182876    28.238299      3541.9616    
       210   0.42           314.31651      142969.86     -807618.94     -313.52643      0.36356838     0.058970603    28.210319      3541.4041    
       220   0.44           314.93016      141432.93     -807620.53     -312.25902      0.3635653      0.058732716    28.244471      3540.6709    
       230   0.46           317.40595      137666.3      -807625.25     -308.04017      0.36356207     0.057939709    28.263996      3539.8649    
       240   0.48           313.93589      131090.14     -807633.54     -299.43903      0.3635587      0.05632243     28.23429       3539.2508    
       250   0.5            304.37498      127856.91     -807636.78     -294.99785      0.36355519     0.055487611    28.190696      3538.8762    
       260   0.52           314.10909      125070.01     -807640.33     -292.9789       0.36355153     0.055108411    28.196731      3538.4741    
       270   0.54           308.21998      130607.96     -807634.51     -298.14751      0.36354773     0.056081196    28.211431      3538.0072    
       280   0.56           321.54606      133799.01     -807630.76     -303.97054      0.36354379     0.057177121    28.217146      3537.5227    
       290   0.58           315.17679      140287.46     -807623.29     -310.64863      0.3635397      0.058433932    28.239808      3536.9495    
       300   0.6            305.65964      140900.4      -807620.34     -312.43445      0.36353547     0.058770533    28.24378       3536.3744    
       310   0.62           321.03763      141583.1      -807622.83     -312.11028      0.3635311      0.058710262    28.240855      3535.825     
       320   0.64           312.25441      134952.55     -807628.05     -305.7871       0.36352658     0.057521541    28.248617      3535.2579    
       330   0.66           317.76909      131264.91     -807634.93     -299.55385      0.36352192     0.056349727    28.227293      3534.7844    
       340   0.68           309.66147      125950.48     -807639.86     -293.58489      0.36351712     0.055227622    28.198913      3534.4223    
       350   0.7            308.55167      127461.56     -807638.48     -294.74246      0.36351217     0.055446133    28.233415      3533.9373    
       360   0.72           315.3586       128208.75     -807636.68     -297.54667      0.36350708     0.055974437    28.222669      3533.4969    
       370   0.74           318.04477      136423.75     -807628.76     -305.71861      0.36350185     0.05751257     28.205196      3533.1203    
       380   0.76           307.47661      138864.25     -807622.84     -310.21278      0.36349647     0.058358887    28.159942      3532.8942    
       390   0.78           308.14589      143086.41     -807618.7      -314.22665      0.36349095     0.059114895    28.201285      3532.5285    
       400   0.8            321.63284      139014.71     -807624.72     -309.97657      0.36348529     0.058316245    28.160368      3532.2917    
       410   0.82           319.00616      135565.23     -807627.97     -306.04592      0.36347948     0.057577687    28.150613      3532.0789    
       420   0.84           318.96473      128995.93     -807635.91     -297.85285      0.36347353     0.056037208    28.131338      3531.9173    
       430   0.86           309.10055      126951.03     -807638.2      -293.86738      0.36346744     0.055288319    28.132067      3531.7442    
       440   0.88           308.30238      127548.43     -807637.39     -294.31191      0.3634612      0.055372905    28.156968      3531.4919    
       450   0.9            308.97563      130940.16     -807632.59     -298.93788      0.36345482     0.056244238    28.21996       3531.0595    
       460   0.92           331.29755      136402.46     -807628.01     -306.2456       0.3634483      0.057620196    28.266133      3530.5053    
       470   0.94           318.34486      139066.11     -807622.27     -309.92857      0.36344163     0.058314218    28.280626      3529.9214    
       480   0.96           318.7571       143902.6      -807618.2      -313.6439       0.36343482     0.059014378    28.29476       3529.3102    
       490   0.98           329.61639      138057.42     -807624.4      -308.85735      0.36342786     0.058114865    28.264811      3528.7858    
       500   1              329.94604      136786.74     -807627.16     -305.73635      0.36342077     0.057528738    28.264492      3528.2689    
       510   1.02           319.34678      128573.77     -807634.83     -9487.5654      0.36341353     0.055789341    28.140509      3528.0625    
       520   1.04           315.42537      129364.25     -807634.83     -9460.2339      0.36340614     0.055629755    28.07127       3528.018     
       530   1.06           312.06256      125392.31     -807636.54     -9391.948       0.36339862     0.055229352    28.017686      3528.0897    
       540   1.08           334.44087      134226.92     -807631.23     -9653.0877      0.36339095     0.056766183    28.065162      3528.0343    
       550   1.1            323.60105      134828.71     -807626.42     -9762.0242      0.36338313     0.057408032    28.114174      3527.8556    
       560   1.12           328.61326      143435.86     -807619.7      -9991.8073      0.36337518     0.058760615    28.121783      3527.6535    
       570   1.14           333.10354      139212.89     -807622.06     -9940.3617      0.36336707     0.058459373    28.140454      3527.4049    
       580   1.16           330.45186      141168.32     -807621.89     -9929.525       0.36335883     0.058396967    28.111746      3527.2148    
       590   1.18           325.5773       132188.98     -807630.19     -9644.3561      0.36335044     0.056721157    28.139386      3526.9601    
       600   1.2            325.11543      131691.74     -807633.24     -9539.228       0.36334191     0.056104186    28.137401      3526.7063    
       610   1.22           314.46674      126373.21     -807637.43     -9363.343       0.36333324     0.055071048    28.155062      3526.4129    
       620   1.24           323.54976      129603.44     -807633.91     -9512.5582      0.36332442     0.055950023    28.173105      3526.081     
       630   1.26           323.17064      130569.07     -807630.72     -9618.6634      0.36331546     0.056575498    28.180602      3525.7334    
       640   1.28           326.35098      138756.96     -807623.97     -9846.2421      0.36330636     0.057915532    28.240459      3525.2688    
       650   1.3            325.36681      139585.31     -807621.33     -9930.4192      0.36329711     0.058412147    28.219603      3524.8478    
       660   1.32           327.59349      142082.39     -807619.05     -10012.193      0.36328772     0.058894675    28.171387      3524.52      
       670   1.34           328.23621      137781.97     -807624.31     -9850.5457      0.36327819     0.057945338    28.162272      3524.2084    
       680   1.36           331.26907      133575.71     -807630.86     -9655.9532      0.36326851     0.056802171    28.178489      3523.8656    
       690   1.38           312.61462      129473.21     -807633.69     -9484.5155      0.36325869     0.055795178    28.10588       3523.6545    
       700   1.4            316.22411      127461.59     -807636.37     -9417.5021      0.36324873     0.055402474    28.120314      3523.4133    
       710   1.42           322.79331      128509.47     -807634.89     -9497.8159      0.36323863     0.055876509    28.109582      3523.1879    
       720   1.44           330.06785      132720.42     -807631.52     -9643.3212      0.36322838     0.056734131    28.091763      3522.99      
       730   1.46           322.95524      138669.26     -807623.81     -9862.1609      0.36321798     0.058023281    28.096135      3522.7803    
       740   1.48           326.99903      141037.72     -807621.19     -9969.1675      0.36320745     0.058654548    28.100976      3522.5583    
       750   1.5            319.98713      141871.91     -807619.7      -9990.5105      0.36319677     0.058781849    28.082909      3522.3631    
       760   1.52           330.49002      136674.67     -807627.3      -9799.7986      0.36318595     0.057661463    28.123175      3522.0971    
       770   1.54           323.56747      133208.14     -807631.47     -9640.7544      0.36317498     0.056727369    28.126683      3521.823     
       780   1.56           304.45338      129078.91     -807634.46     -9467.2372      0.36316387     0.055708077    28.095247      3521.5974    
       790   1.58           311.90304      129089.2      -807637.04     -9421.1487      0.36315262     0.055438596    28.167751      3521.2535    
       800   1.6            311.96058      128949.71     -807635.47     -9479.2763      0.36314122     0.055782397    28.237769      3520.8002    
       810   1.62           321.96092      134037.36     -807630.6      -9685.3443      0.36312968     0.056996849    28.184851      3520.4307    
       820   1.64           319.37037      138169.56     -807624.46     -9878.3841      0.363118       0.058134731    28.195608      3520.0452    
       830   1.66           316.69778      141222.5      -807621.55     -9964.59        0.36310618     0.058643967    28.191522      3519.6666    
       840   1.68           306.98142      140059.01     -807621.64     -9926.3346      0.36309421     0.05842075     28.164876      3519.3282    
       850   1.7            319.41087      136427.9      -807627.23     -9806.1661      0.3630821      0.057715432    28.131226      3519.0389    
       860   1.72           318.90415      131003.23     -807633.32     -9616.4361      0.36306984     0.056600662    28.13953       3518.736     
       870   1.74           294.24199      129606.12     -807634.42     -9476.4416      0.36305745     0.055778584    28.159708      3518.4029    
       880   1.76           298.10952      127582.85     -807636.93     -9418.7658      0.3630449      0.055441018    28.122015      3518.1229    
       890   1.78           306.86125      129694.14     -807634.71     -9535.1578      0.36303222     0.056128088    28.135167      3517.8227    
       900   1.8            326.46599      133489.9      -807631.94     -9716.6966      0.36301939     0.057198726    28.13399       3517.5229    
       910   1.82           309.21339      138439.06     -807623.78     -9905.5174      0.36300642     0.05831233     28.161181      3517.1845    
       920   1.84           310.21617      140078.27     -807623.25     -9931.6966      0.36299331     0.058468556    28.2067        3516.784     
       930   1.86           316.96431      139211.43     -807625.04     -9908.1359      0.36298005     0.058331983    28.20435       3516.3877    
       940   1.88           309.78512      134716.63     -807628.69     -9765.0147      0.36296665     0.05749151     28.125634      3516.0968    
       950   1.9            311.21273      131250.21     -807633.99     -9603.6345      0.36295311     0.056543494    28.160904      3515.7581    
       960   1.92           304.68486      127565.68     -807638.64     -9428.8145      0.36293942     0.055516297    28.123247      3515.4681    
       970   1.94           294.77892      128239.69     -807637.66     -9417.9994      0.36292559     0.055454731    28.106454      3515.1985    
       980   1.96           307.55042      129085.35     -807636.02     -9533.7496      0.36291162     0.056138448    28.106387      3514.9272    
       990   1.98           304.40116      135088.78     -807628.67     -9756.563       0.3628975      0.057452696    28.193004      3514.5449    
      1000   2              301.88168      137794.12     -807625.13     -9861.4587      0.36288325     0.058072669    28.070764      3514.316     
      1010   2.02           303.15255      140816.23     -807622.59     -310.81808      0.36286884     0.058573897    28.237741      3513.8782    
      1020   2.04           299.83121      137716.83     -807624.09     -308.86651      0.3628543      0.058208454    28.212464      3513.4728    
      1030   2.06           313.85216      135880.09     -807629.12     -305.64125      0.36283961     0.057602958    28.237885      3513.0377    
      1040   2.08           303.63086      130043.05     -807634.66     -298.52069      0.36282478     0.056263276    28.247272      3512.593     
      1050   2.1            301.56238      129362.73     -807637.97     -294.62572      0.3628098      0.055531469    28.245723      3512.1518    
      1060   2.12           308.7945       127558.17     -807639.06     -294.38983      0.36279469     0.055489321    28.254357      3511.7022    
      1070   2.14           304.52759      131836.72     -807632.67     -299.90918      0.36277943     0.056532037    28.251112      3511.2581    
      1080   2.16           319.05907      134019.07     -807630.88     -303.41986      0.36276402     0.057196217    28.225511      3510.8451    
      1090   2.18           312.19267      139122.03     -807624.25     -308.69474      0.36274848     0.058193055    28.251397      3510.4037    
      1100   2.2            310.70378      140467.65     -807621.41     -310.94235      0.36273279     0.058619293    28.290588      3509.9198    
      1110   2.22           315.94192      138864.52     -807623.35     -309.41347      0.36271695     0.058333614    28.305554      3509.4217    
      1120   2.24           312.83441      134114.53     -807628.75     -303.18854      0.36270098     0.057162547    28.242135      3508.9961    
      1130   2.26           312.25807      129959.47     -807634.48     -297.0442       0.36268486     0.056006595    28.186377      3508.6331    
      1140   2.28           311.68195      128638.96     -807635.95     -295.11836      0.3626686      0.055645979    28.21034       3508.2441    
      1150   2.3            307.77706      128451.9      -807635.13     -295.12651      0.36265219     0.055650033    27.992363      3508.093     
      1160   2.32           330.00312      131664.7      -807634.01     -299.05272      0.36263564     0.056392946    28.239367      3507.6721    
      1170   2.34           326.0964       134933.84     -807628.55     -303.87226      0.36261895     0.057304414    28.234322      3507.2576    
      1180   2.36           326.11353      140189.98     -807621.23     -310.92974      0.36260212     0.058638039    28.26857       3506.8083    
      1190   2.38           313.67684      140670.48     -807620.15     -310.15597      0.36258514     0.058494853    28.23087       3506.3998    
      1200   2.4            323.6535       139141.88     -807623.76     -307.67232      0.36256802     0.058029181    28.198701      3506.0255    
      1210   2.42           315.51536      133490.37     -807627.92     -302.27715      0.36255076     0.057014328    27.35757       3506.5416    
      1220   2.44           326.06306      130611.22     -807634.02     -297.42884      0.36253335     0.056102553    28.16256       3506.1974    
      1230   2.46           311.0786       126777        -807636.36     -292.94225      0.3625158      0.055258944    28.150213      3505.8655    
      1240   2.48           327.1166       128547.13     -807636.62     -294.65267      0.36249811     0.055584301    28.203489      3505.4797    
      1250   2.5            326.34786      131599.4      -807631.94     -299.17379      0.36248028     0.056439957    28.24691       3505.0514    
      1260   2.52           333.8711       137932.76     -807625.62     -306.45471      0.3624623      0.057816391    28.301342      3504.571     
      1270   2.54           326.27123      139528.23     -807621.49     -309.39946      0.36244418     0.058374872    28.298109      3504.0956    
      1280   2.56           312.98798      142281.87     -807619        -309.92483      0.36242592     0.058476941    28.258171      3503.6608    
      1290   2.58           326.21522      137348.87     -807625.14     -305.72301      0.36240751     0.057687067    28.214148      3503.2693    
      1300   2.6            325.72755      135390.42     -807627.23     -303.33416      0.36238896     0.057239243    28.234606      3502.859     
      1310   2.62           317.12787      128954.97     -807633.32     -296.01868      0.36237027     0.055861691    28.232596      3502.4515    
      1320   2.64           321.50703      129469.15     -807635.78     -294.00679      0.36235143     0.055484912    28.234127      3502.0433    
      1330   2.66           321.72772      128120.92     -807635.79     -294.10317      0.36233245     0.055506008    28.30382       3501.5712    
      1340   2.68           341.9724       133713.87     -807631.68     -300.98694      0.36231333     0.056808178    28.283474      3501.1196    
      1350   2.7            323.10653      136105.48     -807625.13     -305.00453      0.36229407     0.057569517    28.292819      3500.6609    
      1360   2.72           327.02772      140819.56     -807621.54     -308.99374      0.36227466     0.058325602    28.238821      3500.2528    
      1370   2.74           333.10597      138000.36     -807623.88     -307.66749      0.36225511     0.058078395    28.228711      3499.8547    
      1380   2.76           311.74736      139762.97     -807620.13     -308.38918      0.36223542     0.058217793    28.237974      3499.4488    
      1390   2.78           331.57563      131664.27     -807631.68     -299.71347      0.36221558     0.056583088    28.166488      3499.1074    
      1400   2.8            323.92987      131041.13     -807633.97     -296.2275       0.3621956      0.055928056    28.228226      3498.7112    
      1410   2.82           322.96017      127621.78     -807636.78     -293.53519      0.36217548     0.055422822    28.230186      3498.3138    
      1420   2.84           317.94298      130816.2      -807633.03     -296.63017      0.36215522     0.056010326    28.185856      3497.9557    
      1430   2.86           326.18245      132177.24     -807631.04     -299.91472      0.36213481     0.056633711    28.233336      3497.5566    
      1440   2.88           335.73949      136438.45     -807627.35     -305.10349      0.36211426     0.057616791    28.250928      3497.143     
      1450   2.9            317.06915      139500.17     -807621.19     -308.83509      0.36209357     0.058324812    28.23347       3496.745     
      1460   2.92           322.65294      139940.13     -807622.16     -308.8479       0.36207273     0.058330587    28.233604      3496.3476    
      1470   2.94           322.02327      138030.64     -807625.23     -305.85857      0.36205176     0.057769354    28.223224      3495.9595    
      1480   2.96           309.92371      132148.43     -807630.04     -299.63406      0.36203064     0.056596995    28.223269      3495.5718    
      1490   2.98           318.25757      130764.81     -807633.8      -297.11718      0.36200937     0.056124886    28.243578      3495.1677    
      1500   3              309.94502      126683.52     -807636.3      -293.76684      0.36198796     0.055495294    28.303003      3494.7154    
      1510   3.02           308.98094      132559.91     -807633.02     -9505.568       0.36196642     0.056118665    28.210307      3494.3402    
      1520   3.04           313.95995      130337.82     -807632.48     -9556.6966      0.36194472     0.056423898    28.182843      3493.9876    
      1530   3.06           320.61665      139132.16     -807625.25     -9817.2786      0.36192289     0.057965903    28.178162      3493.6389    
      1540   3.08           312.64382      136729.11     -807624.67     -9813.184       0.36190091     0.057945245    28.162837      3493.3023    
      1550   3.1            318.51258      141345.16     -807622.92     -9893.2809      0.36187879     0.058421775    28.187665      3492.9457    
      1560   3.12           315.45899      133906.18     -807629.33     -9682.2678      0.36185653     0.057179219    28.130049      3492.6349    
      1570   3.14           313.60505      134808.37     -807629.38     -9671.3973      0.36183412     0.057118559    28.088815      3492.3563    
      1580   3.16           315.02162      127277.8      -807636.39     -9461.2072      0.36181157     0.055880674    28.188614      3491.9982    
      1590   3.18           298.18739      131473.28     -807633.25     -9484.6089      0.36178888     0.056022405    28.186372      3491.6419    
      1600   3.2            304.24512      127656.45     -807635.73     -9437.9469      0.36176605     0.055750307    28.17987       3491.2906    
      1610   3.22           314.37827      134004.73     -807629.92     -9666.6789      0.36174307     0.057105062    28.172939      3490.9447    
      1620   3.24           312.76033      135127.35     -807626.96     -9757.2797      0.36171995     0.057643963    28.183914      3490.5902    
      1630   3.26           314.23436      139723.01     -807623.93     -9857.4732      0.36169669     0.05823963     28.140713      3490.2686    
      1640   3.28           312.09158      137069.93     -807626.08     -9779.6213      0.36167329     0.057783407    28.128805      3489.9556    
      1650   3.3            314.23705      135993.14     -807627.6      -9735.6896      0.36164974     0.05752758     28.181517      3489.6024    
      1660   3.32           310.95658      131532        -807631.56     -9592.1817      0.36162605     0.056683313    28.215316      3489.2241    
      1670   3.34           312.43682      129778.14     -807634.8      -9490.7538      0.36160222     0.056087639    28.206661      3488.8524    
      1680   3.36           300.42176      129763.6      -807635.15     -9421.0665      0.36157824     0.055679499    28.17723       3488.5027    
      1690   3.38           307.0701       130892.18     -807631.99     -9544.5183      0.36155413     0.056412875    28.156047      3488.1683    
      1700   3.4            320.09115      135241.17     -807628.51     -9707.4864      0.36152987     0.057379948    28.207978      3487.796     
      1710   3.42           321.16025      136332.31     -807626.92     -9754.0584      0.36150546     0.057659122    28.1438        3487.4703    
      1720   3.44           306.35308      139846.89     -807621.9      -9835.6079      0.36148092     0.058145133    28.121817      3487.1601    
      1730   3.46           322.34963      136049.83     -807626.27     -9756.6884      0.36145623     0.057682524    28.211741      3486.7851    
      1740   3.48           321.2725       137074.04     -807625.86     -9746.4209      0.3614314      0.05762578     28.280139      3486.3618    
      1750   3.5            317.99474      129645.53     -807632.49     -9508.4815      0.36140643     0.056222847    28.244782      3485.9642    
      1760   3.52           320.82359      130990.36     -807633.57     -9466.6088      0.36138131     0.055979147    28.195252      3485.6018    
      1770   3.54           320.67894      128978.55     -807634.91     -9415.0969      0.36135605     0.055678432    28.223352      3485.2199    
      1780   3.56           317.66651      134046.55     -807628.02     -9609.9192      0.36133065     0.056834556    28.230558      3484.8334    
      1790   3.58           335.77082      133385.23     -807629.72     -9630.5851      0.36130511     0.056960804    28.190401      3484.4748    
      1800   3.6            326.00233      139611.12     -807624.11     -9758.4857      0.36127942     0.057721385    28.227269      3484.091     
      1810   3.62           318.45151      138680.93     -807622.26     -9783.4197      0.3612536      0.057873007    28.215722      3483.7155    
      1820   3.64           329.79628      138871.81     -807622.54     -9819.5744      0.36122763     0.058091053    28.205528      3483.347     
      1830   3.66           334.13317      133496.68     -807629.94     -9601.7246      0.36120151     0.056806394    28.144314      3483.0201    
      1840   3.68           322.34001      132216.82     -807630.95     -9513.1586      0.36117526     0.056286505    28.125214      3482.7058    
      1850   3.7            319.07735      129381.64     -807632.48     -9451.3948      0.36114886     0.055925155    28.111078      3482.4004    
      1860   3.72           326.4343       131351.2      -807631.92     -9498.8534      0.36112232     0.056210105    28.102228      3482.1005    
      1870   3.74           324.81871      132261.83     -807630.61     -9536.1086      0.36109564     0.056434735    28.103364      3481.7992    
      1880   3.76           334.27895      135666.15     -807628.01     -9661.8639      0.36106881     0.057183203    28.093229      3481.504     
      1890   3.78           332.75717      137507.89     -807624.24     -9778.0517      0.36104184     0.057875177    28.132083      3481.1827    
      1900   3.8            325.69618      138537.36     -807622.03     -9818.2652      0.36101474     0.05811756     28.166715      3480.8384    
      1910   3.82           329.97912      136810.24     -807626.3      -9703.7444      0.36098748     0.057444009    28.168433      3480.4929    
      1920   3.84           336.15149      133649.59     -807630.59     -9596.6198      0.36096009     0.056814167    28.170611      3480.1459    
      1930   3.86           320.41254      132387.64     -807629.8      -9554.7483      0.36093255     0.056570594    28.163491      3479.8034    
      1940   3.88           315.83505      130719.91     -807633.21     -9432.1255      0.36090487     0.055848866    28.198889      3479.4383    
      1950   3.9            319.30556      131002.58     -807632.88     -9459.1169      0.36087705     0.056013004    28.219931      3479.0599    
      1960   3.92           319.36182      131011.32     -807631.3      -9518.1694      0.36084909     0.056367057    28.226112      3478.6779    
      1970   3.94           331.09716      135802.02     -807627.58     -9694.2144      0.36082098     0.057414076    28.242063      3478.2863    
      1980   3.96           309.65194      137610.5      -807623.27     -9743.3923      0.36079273     0.05770985     28.255807      3477.8864    
      1990   3.98           326.47004      138743.8      -807625.74     -9741.6087      0.36076434     0.057703827    28.242386      3477.4953    
      2000   4              322.79695      135893.94     -807626.97     -9691.0514      0.36073581     0.057408894    28.260056      3477.0938    
      2010   4.02           325.99625      134838.14     -807628.99     -301.40895      0.36070713     0.057141144    28.281066      3476.6799    
      2020   4.04           324.41883      130533.8      -807633.59     -296.7249       0.36067831     0.056257635    28.219097      3476.3043    
      2030   4.06           309.88034      131124.9      -807633.93     -294.46436      0.36064935     0.05583353     28.263509      3475.902     
      2040   4.08           309.8121       130757.23     -807634.22     -294.35075      0.36062025     0.055816493    28.245511      3475.511     
      2050   4.1            324.50296      132565.12     -807630.52     -300.20202      0.36059101     0.056930663    28.250733      3475.1172    
      2060   4.12           324.44462      134968.18     -807628.27     -302.60142      0.36056162     0.057390365    28.261875      3474.7172    
      2070   4.14           316.54209      137802.25     -807626.01     -303.82495      0.36053209     0.057627134    28.244743      3474.3278    
      2080   4.16           313.37931      137451.31     -807625.35     -304.17155      0.36050242     0.057697622    28.291259      3473.9113    
      2090   4.18           317.78018      136629.8      -807626.78     -303.43068      0.36047261     0.05756185     28.221661      3473.5363    
      2100   4.2            318.89015      133524.48     -807630.45     -299.95033      0.36044265     0.056906343    28.20245       3473.1727    
      2110   4.22           309.93429      131034.19     -807634.52     -294.66176      0.36041256     0.05590767     28.208373      3472.8058    
      2120   4.24           311.2836       129772.36     -807635.07     -294.34482      0.36038232     0.055852221    28.254742      3472.412     
      2130   4.26           309.01306      130027.39     -807633.06     -296.11285      0.36035193     0.056192444    28.252266      3472.0201    
      2140   4.28           329.39432      131820.37     -807633.05     -299.00534      0.36032141     0.056746149    28.288755      3471.6077    
      2150   4.3            314.26046      135076.6      -807628.33     -301.57766      0.36029075     0.057239202    28.249524      3471.2182    
      2160   4.32           316.24637      137459.58     -807625.41     -304.73585      0.36025994     0.057843571    28.286005      3470.8083    
      2170   4.34           314.3125       137772.85     -807624.63     -305.24337      0.36022899     0.057944884    28.297991      3470.3922    
      2180   4.36           315.38843      136384.78     -807626.83     -303.1352       0.36019789     0.057549655    28.271384      3469.9916    
      2190   4.38           309.39753      132497.82     -807630.77     -298.31905      0.36016666     0.056640229    28.199167      3469.6318    
      2200   4.4            301.65704      131850.24     -807632.21     -295.60519      0.36013528     0.056129853    28.193437      3469.2754    
      2210   4.42           318.81754      128310        -807636.12     -294.01343      0.36010377     0.055832494    28.231727      3468.8976    
      2220   4.44           316.70992      130492.92     -807633.32     -296.32404      0.36007211     0.056276221    28.199212      3468.5381    
      2230   4.46           316.81373      132228.6      -807632.15     -297.39518      0.3600403      0.056484634    28.194053      3468.1814    
      2240   4.48           323.40524      136161.08     -807628.87     -301.32495      0.36000836     0.057236099    28.200972      3467.821     
      2250   4.5            304.15182      137408.91     -807623.1      -304.18752      0.35997627     0.05778499     28.219542      3467.4504    
      2260   4.52           322.05533      138212.48     -807625.02     -304.40022      0.35994404     0.057830572    28.230147      3467.0743    
      2270   4.54           309.95243      135423.36     -807626.51     -300.86339      0.35991167     0.057163779    28.214532      3466.7068    
      2280   4.56           332.74802      133290.59     -807631.18     -298.87968      0.35987916     0.056792006    28.228933      3466.3316    
      2290   4.58           309.46385      130881.65     -807630.46     -295.99145      0.35984651     0.056248299    28.240264      3465.9506    
      2300   4.6            325.11449      130276.85     -807633.88     -294.2471       0.35981371     0.05592191     28.240236      3465.5699    
      2310   4.62           329.67071      130224.67     -807634.21     -294.1647       0.35978077     0.055911369    28.277425      3465.1696    
      2320   4.64           333.76908      133415.1      -807630.09     -298.51293      0.35974769     0.056743046    28.269173      3464.7741    
      2330   4.66           330.83237      135808.21     -807625.57     -302.35771      0.35971447     0.057479192    28.269981      3464.3786    
      2340   4.68           324.87377      137714.21     -807623.92     -302.95405      0.35968111     0.0575979      28.224332      3464.0072    
      2350   4.7            331.32908      137282.17     -807625.02     -302.5992       0.3596476      0.057535796    28.206501      3463.6454    
      2360   4.72           331.92858      135477.52     -807626.04     -301.55432      0.35961396     0.057342488    28.242509      3463.2649    
      2370   4.74           327.40911      133792.6      -807628.28     -298.56066      0.35958017     0.05677856     28.261708      3462.8747    
      2380   4.76           325.69999      130918.43     -807631.98     -294.51765      0.35954624     0.056014968    28.27043       3462.4803    
      2390   4.78           322.7846       131053.01     -807632.77     -293.30897      0.35951216     0.055790374    28.231054      3462.1064    
      2400   4.8            322.37435      132044.5      -807629.79     -296.18692      0.35947795     0.056343152    28.230453      3461.733     
      2410   4.82           332.60375      133618.4      -807628.67     -298.74384      0.35944359     0.056834982    28.259471      3461.345     
      2420   4.84           320.79496      136092.14     -807625.08     -300.81123      0.35940909     0.057233789    28.239852      3460.9673    
      2430   4.86           329.86157      137281.1      -807624.48     -302.66383      0.35937446     0.057591824    28.238521      3460.5903    
      2440   4.88           323.26543      137608.53     -807623.47     -302.87542      0.35933967     0.057637665    28.253549      3460.2061    
      2450   4.9            330.11337      136045.83     -807626.11     -301.32413      0.35930475     0.057348025    28.303876      3459.797     
      2460   4.92           319.37501      132468.71     -807628.95     -297.06559      0.35926969     0.056543059    28.228294      3459.4259    
      2470   4.94           324.86286      131178.17     -807632.49     -294.33808      0.35923448     0.056029399    28.263002      3459.0378    
      2480   4.96           317.50107      130346.84     -807632.17     -293.85919      0.35919913     0.055943743    28.25762       3458.6525    
      2490   4.98           323.75487      132377        -807630.38     -296.67457      0.35916364     0.056485304    28.277386      3458.2579    
      2500   5              327.47571      133723.97     -807630.34     -297.4114       0.35912801     0.056631212    28.240537      3457.8816    
[...]
     98740   197.48         321.49785      136537.68     -807627.93     -9692.9742      0.36236891     0.057161506    28.041722      44.470803    
     98750   197.5          319.35314      135842.72     -807627.58     -9701.4327      0.36238762     0.057208435    28.046765      44.117906    
     98760   197.52         318.05055      134899.48     -807626.37     -9741.3968      0.36240618     0.057441158    28.064362      43.765005    
     98770   197.54         324.2931       132823.8      -807630.29     -9649.5385      0.36242459     0.056896614    28.097797      43.412098    
     98780   197.56         310.31618      132250.67     -807631.05     -9568.9182      0.36244287     0.056418408    28.076667      43.059194    
     98790   197.58         319.91994      131427.54     -807632.24     -9579.8851      0.362461       0.056480243    28.035018      42.706296    
     98800   197.6          311.33896      133878.97     -807628.49     -9668.1935      0.36247899     0.056998055    28.058439      42.353393    
     98810   197.62         314.21386      134252.47     -807628.4      -9688.0472      0.36249683     0.05711229     28.047045      42.000492    
     98820   197.64         325.84259      135332        -807629.62     -9704.9596      0.36251453     0.057209196    28.035886      41.647591    
     98830   197.66         319.20771      136237.46     -807627.7      -9743.1467      0.36253209     0.057431522    28.008032      41.294694    
     98840   197.68         314.32582      136772.29     -807625.22     -9803.6182      0.36254951     0.057785198    28.013177      40.941795    
     98850   197.7          314.62104      134359.26     -807628.92     -9691.9488      0.36256678     0.057124267    28.082355      40.588885    
     98860   197.72         316.84         133032.72     -807631.97     -9604.9354      0.36258391     0.056608736    28.055393      40.235979    
     98870   197.74         321.62842      131542.9      -807632.64     -9607.6339      0.3626009      0.056621987    27.957707      39.883086    
     98880   197.76         304.81851      133164.94     -807628.92     -9653.2922      0.36261774     0.056888429    28.002379      39.530185    
     98890   197.78         314.89176      133196.28     -807631.1      -9630.5329      0.36263445     0.056751691    28.027028      39.17728     
     98900   197.8          318.53406      133222.32     -807631.1      -9648.3721      0.362651       0.056854219    28.005501      38.824378    
     98910   197.82         319.20851      135444.84     -807627.88     -9755.9144      0.36266742     0.057485324    28.019821      38.471472    
     98920   197.84         307.01334      137101.97     -807624.81     -9800.9106      0.36268369     0.057747866    28.00887       38.118567    
     98930   197.86         312.27519      136333.38     -807626.8      -9758.3309      0.36269982     0.057494426    27.959404      37.765669    
     98940   197.88         323.46953      134364.74     -807631.75     -9649.9555      0.36271581     0.056853391    27.947837      37.412771    
     98950   197.9          309.93005      133819.12     -807629.62     -9655.6468      0.36273165     0.056884437    27.960412      37.05987     
     98960   197.92         319.93939      131785.36     -807631.33     -9644.4353      0.36274735     0.056815927    27.929297      36.706972    
     98970   197.94         315.00549      132675.46     -807631.5      -9612.4054      0.36276291     0.056624808    27.969834      36.354068    
     98980   197.96         317.50196      132178.54     -807632.3      -9595.7352      0.36277832     0.056524206    27.989134      36.001161    
     98990   197.98         319.07519      135624.38     -807627.76     -9741.636       0.36279359     0.057381227    28.01484       35.648249    
     99000   198            316.5016       135197.05     -807625.74     -9790.0718      0.36280872     0.057664124    27.998849      35.295338    
     99010   198.02         321.02622      136835.71     -807626.44     -305.49898      0.3628237      0.05757867     28.049723      34.942421    
     99020   198.04         320.13898      135072.11     -807628.62     -302.82458      0.36283855     0.057072279    28.111927      34.589494    
     99030   198.06         331.11407      135054.46     -807628.39     -304.11668      0.36285324     0.057313477    28.098985      34.236569    
     99040   198.08         317.55387      132386.75     -807627.44     -302.72116      0.3628678      0.05704819     28.119783      33.883641    
     99050   198.1          328.07345      132525.64     -807631.72     -299.33368      0.36288221     0.056407575    28.112054      33.530712    
     99060   198.12         330.31327      131409.27     -807633.06     -297.90941      0.36289648     0.056136971    28.137306      33.177781    
     99070   198.14         324.09141      134617.34     -807626.34     -303.38034      0.36291061     0.057165668    28.14505       32.824848    
     99080   198.16         338.85123      134360.07     -807626.9      -304.67445      0.36292459     0.057407305    28.123247      32.471917    
     99090   198.18         330.20332      137154.09     -807625.23     -304.8658       0.36293843     0.057441168    28.137505      32.118984    
     99100   198.2          332.11361      135718.94     -807626.33     -303.96491      0.36295213     0.057269266    28.13969       31.76605     
     99110   198.22         318.53874      137622.95     -807621.83     -306.46925      0.36296568     0.057738947    28.116945      31.413118    
     99120   198.24         338.35906      133619.05     -807627.22     -303.86649      0.36297909     0.057246471    28.117768      31.060185    
     99130   198.26         326.90313      133482.61     -807628.96     -300.43845      0.36299236     0.056598582    28.08828       30.707255    
     99140   198.28         335.05414      131148.33     -807633.01     -297.57779      0.36300548     0.056057645    28.011289      30.354334    
     99150   198.3          327.76496      134051.47     -807627.57     -302.02035      0.36301846     0.056892499    28.047432      30.001407    
     99160   198.32         331.3067       132884.79     -807627.42     -302.87882      0.3630313      0.057052195    28.062769      29.648478    
     99170   198.34         336.751        136637.72     -807628.35     -302.75226      0.36304399     0.057026361    28.037376      29.295551    
     99180   198.36         331.6972       136207.35     -807626.59     -303.97908      0.36305655     0.057255466    28.050564      28.942622    
     99190   198.38         326.65767      137104.1      -807622.53     -307.54808      0.36306895     0.057925717    28.024787      28.589694    
     99200   198.4          327.31688      137255.88     -807624.59     -305.76054      0.36308122     0.057587095    28.064496      28.236762    
     99210   198.42         334.18628      134354.96     -807630.12     -301.36919      0.36309334     0.056758131    28.07417       27.883829    
     99220   198.44         323.32476      132933.66     -807630.23     -299.95625      0.36310532     0.056490163    28.020421      27.5309      
     99230   198.46         331.8527       132630.87     -807630.43     -301.24548      0.36311715     0.056731112    28.061993      27.177966    
     99240   198.48         315.27551      132946.06     -807627.99     -301.58842      0.36312885     0.056793865    28.085988      26.825029    
     99250   198.5          325.6521       133120.51     -807631.23     -300.04483      0.3631404      0.056501386    28.062125      26.472093    
     99260   198.52         336.06236      135480.03     -807628.4      -304.53165      0.3631518      0.057344498    28.026405      26.119161    
     99270   198.54         325.75288      136461.48     -807624.4      -307.46347      0.36316306     0.057894776    28.083503      25.766222    
     99280   198.56         326.00058      137768.5      -807625.73     -306.30412      0.36317418     0.057674706    28.063209      25.413285    
     99290   198.58         322.15368      135032.84     -807629.22     -302.54781      0.36318516     0.056965699    28.020701      25.06035     
     99300   198.6          318.82271      134853.78     -807628.75     -302.76906      0.36319599     0.057005658    28.039759      24.707414    
     99310   198.62         308.85164      133010.46     -807628.44     -301.95429      0.36320668     0.056850579    28.020619      24.354478    
     99320   198.64         319.14346      133156.58     -807630.6      -301.27198      0.36321723     0.05672047     28.025643      24.001541    
     99330   198.66         314.95881      131722.78     -807632.63     -298.88093      0.36322763     0.056268696    28.060569      23.6486      
     99340   198.68         325.78192      134541.97     -807629.73     -303.40302      0.36323789     0.057118432    28.082782      23.295657    
     99350   198.7          323.89489      134732.84     -807627.13     -305.9704       0.36324801     0.05760016     28.130098      22.942709    
     99360   198.72         322.98019      137536.84     -807626.49     -306.50716      0.36325798     0.057699624    28.151668      22.589758    
     99370   198.74         305.82379      135467.65     -807627.5      -303.23003      0.36326781     0.057081163    28.101869      22.236812    
     99380   198.76         324.40785      136083.92     -807629.16     -304.20842      0.3632775      0.057263812    28.070823      21.883867    
     99390   198.78         312.47206      133268.42     -807628.14     -303.71214      0.36328704     0.05716889     28.138412      21.530916    
     99400   198.8          315.64088      133123.7      -807630.77     -301.52342      0.36329644     0.056755431    28.107002      21.177967    
     99410   198.82         307.06977      131841.22     -807633.26     -297.93035      0.3633057      0.056077682    28.102689      20.825018    
     99420   198.84         315.94669      133582.21     -807629.6      -302.8249       0.36331481     0.056997525    28.138643      20.472066    
     99430   198.86         323.72784      132813.46     -807629.21     -304.37261      0.36332378     0.05728742     28.204753      20.119108    
     99440   198.88         313.48215      136736.87     -807626.72     -305.39239      0.36333261     0.057477961    28.174035      19.766153    
     99450   198.9          317.38326      135411.35     -807628.81     -303.91568      0.36334129     0.057198663    28.117728      19.4132      
     99460   198.92         311.99498      136473.79     -807625.65     -306.22904      0.36334983     0.057632695    28.063955      19.060251    
     99470   198.94         324.10709      134108.8      -807628.02     -305.54992      0.36335823     0.057503555    28.087937      18.7073      
     99480   198.96         312.97997      134459.19     -807629.47     -302.52718      0.36336648     0.05693339     28.028637      18.354352    
     99490   198.98         313.87175      132433.72     -807631.61     -300.46383      0.3633746      0.056543822    27.970187      18.001407    
     99500   199            324.14699      131989.45     -807632.31     -301.1478       0.36338256     0.056671295    27.985363      17.64846     
     99510   199.02         318.36372      133748.79     -807629.2      -9709.5009      0.36339039     0.057098015    27.993582      17.295512    
     99520   199.04         313.35231      133805.45     -807628.99     -9692.5288      0.36339807     0.056997004    28.033866      16.94256     
     99530   199.06         322.36318      135459.97     -807628.88     -9731.4997      0.3634056      0.057224985    28.009747      16.589609    
     99540   199.08         311.83016      135508.24     -807625.37     -9795.9316      0.363413       0.057602698    27.947345      16.236661    
     99550   199.1          327.58537      136669.47     -807626.66     -9818.0234      0.36342025     0.057731452    27.944591      15.883713    
     99560   199.12         314.7381       133933.2      -807628.36     -9702.3742      0.36342736     0.057050301    27.918425      15.530764    
     99570   199.14         327.07555      133933.97     -807631.22     -9655.0395      0.36343432     0.056770884    27.930091      15.177814    
     99580   199.16         321.17319      131842.46     -807631.18     -9625.2567      0.36344114     0.056594701    27.970685      14.824861    
     99590   199.18         318.91605      134706.74     -807627.84     -9712.367       0.36344782     0.057105844    27.97192       14.471907    
     99600   199.2          326.85904      131794.26     -807631.99     -9607.8539      0.36345435     0.056490323    28.045266      14.118948    
     99610   199.22         308.52288      136344.59     -807625.8      -9708.2715      0.36346074     0.057079734    28.06164       13.765987    
     99620   199.24         333.70795      133852.51     -807628.56     -9727.192       0.36346699     0.057189994    28.038593      13.413027    
     99630   199.26         317.32046      138906.76     -807622.25     -9841.9646      0.3634731      0.057863816    28.044854      13.060066    
     99640   199.28         333.10159      133649.5      -807628.36     -9707.773       0.36347906     0.057073927    27.989368      12.707107    
     99650   199.3          331.73093      135670.58     -807627.51     -9715.2284      0.36348487     0.057116846    28.0316        12.354145    
     99660   199.32         341.53328      132663.41     -807630.21     -9668.8547      0.36349055     0.056843322    28.00129       12.001184    
     99670   199.34         328.61312      135300.64     -807627.02     -9704.5023      0.36349608     0.057052027    28.061986      11.648219    
     99680   199.36         338.97935      132178.22     -807631.21     -9613.9054      0.36350147     0.056518577    28.085656      11.295252    
     99690   199.38         325.57345      135272.89     -807627.23     -9675.0187      0.36350671     0.056877031    28.087033      10.942285    
     99700   199.4          325.42006      134771.53     -807625.85     -9720.5914      0.36351181     0.05714414     28.089347      10.589318    
     99710   199.42         329.30017      137055.24     -807623.78     -9800.4504      0.36351677     0.057612819    28.069842      10.23635     
     99720   199.44         335.31044      135477.35     -807626.74     -9733.7359      0.36352158     0.057219874    28.045931      9.8833823    
     99730   199.46         334.48309      135692.03     -807626.95     -9723.7061      0.36352625     0.05716018     27.990949      9.5304159    
     99740   199.48         324.77979      135860.15     -807625.27     -9738.9268      0.36353078     0.05724894     27.996745      9.1774485    
     99750   199.5          330.21196      133783.34     -807627.58     -9692.3368      0.36353516     0.056974381    28.034234      8.8244791    
     99760   199.52         331.4914       132826.1      -807629.64     -9635.4293      0.3635394      0.056639201    28.034695      8.4715089    
     99770   199.54         327.54781      133149.87     -807630.02     -9610.6948      0.3635435      0.05649317     27.981005      8.1185395    
     99780   199.56         331.02923      135231.44     -807627.87     -9699.0255      0.36354745     0.057011771    27.967816      7.7655696    
     99790   199.58         329.9147       134618.02     -807626.89     -9732.4877      0.36355126     0.057207866    27.983329      7.4125984    
     99800   199.6          331.85586      136320.05     -807626.49     -9757.6706      0.36355493     0.057355313    27.942469      7.0596273    
     99810   199.62         339.28031      135570.63     -807628.55     -9732.0505      0.36355845     0.057204164    27.94656       6.7066552    
     99820   199.64         314.77044      136565.32     -807623.99     -9775.5416      0.36356183     0.057459267    27.96886       6.3536815    
     99830   199.66         324.28416      134903.43     -807626.94     -9729.1757      0.36356507     0.057186226    27.979528      6.0007068    
     99840   199.68         329.39125      133459.37     -807629.77     -9666.0172      0.36356816     0.056814509    27.96609       5.6477314    
     99850   199.7          326.40575      132915.21     -807630.6      -9631.351       0.36357111     0.05661029     28.034327      5.2947537    
     99860   199.72         327.32353      133272.07     -807629.75     -9668.5518      0.36357392     0.056828507    28.083177      4.9417745    
     99870   199.74         320.50805      134812.97     -807627.49     -9715.584       0.36357658     0.057104528    28.070778      4.5887949    
     99880   199.76         333.56784      134889        -807629.29     -9721.6417      0.3635791      0.057139737    28.045595      4.2358149    
     99890   199.78         324.45475      136029.49     -807626.67     -9768.4228      0.36358148     0.057414321    28.020952      3.8828346    
     99900   199.8          321.41182      135725.77     -807626.05     -9780.1696      0.36358371     0.057483011    28.03284       3.5298534    
     99910   199.82         319.21198      135581.59     -807626.1      -9770.8509      0.3635858      0.05742791     28.054641      3.1768712    
     99920   199.84         323.38372      133270.46     -807629.59     -9680.986       0.36358775     0.056899427    28.04876       2.8238883    
     99930   199.86         328.38306      133363.09     -807631.19     -9653.1739      0.36358955     0.056735681    28.042756      2.4709048    
     99940   199.88         323.67144      133108.57     -807630.12     -9670.9904      0.36359121     0.056840137    28.088218      2.1179202    
     99950   199.9          312.0909       134174.53     -807628.59     -9672.3957      0.36359273     0.056848159    28.043184      1.7649353    
     99960   199.92         325.96999      133097.48     -807630.53     -9674.1502      0.3635941      0.056858257    27.992728      1.41195      
     99970   199.94         320.41623      134830.94     -807627.57     -9747.6237      0.36359533     0.057289891    27.963113      1.0589639    
     99980   199.96         317.72495      136521.32     -807625.14     -9815.558       0.36359641     0.057688991    27.996039      0.70597675   
     99990   199.98         315.51754      135867.5      -807626.15     -9775.4287      0.36359736     0.05745299     28.007676      0.35298878   
    100000   200            328.46159      135172.2      -807629.99     -9711.2396      0.36359816     0.057075607    28.037495      0            
Loop time of 3529.89 on 32 procs for 100000 steps with 1080 atoms

Performance: 4.895 ns/day, 4.903 hours/ns, 28.329 timesteps/s, 30.596 katom-step/s
62.5% CPU use with 32 MPI tasks x 1 OpenMP threads

MPI task timing breakdown:
Section |  min time  |  avg time  |  max time  |%varavg| %total
---------------------------------------------------------------
Pair    | 2566.5     | 2805.3     | 3073.5     | 243.8 | 79.47
Neigh   | 0.0016524  | 0.0034871  | 0.0074423  |   3.8 |  0.00
Comm    | 383.75     | 651.61     | 890.12     | 505.8 | 18.46
Output  | 2.3546     | 2.3674     | 2.3743     |   0.2 |  0.07
Modify  | 63.878     | 64.477     | 65.214     |   4.9 |  1.83
Other   |            | 6.099      |            |       |  0.17

Nlocal:          33.75 ave          42 max          26 min
Histogram: 2 2 3 6 3 6 1 5 2 2
Nghost:        1030.41 ave        1047 max        1015 min
Histogram: 2 1 3 5 7 5 4 2 0 3
Neighs:              0 ave           0 max           0 min
Histogram: 32 0 0 0 0 0 0 0 0 0
FullNghs:      5360.56 ave        6687 max        4133 min
Histogram: 3 1 4 4 6 4 1 6 1 2

Total # of neighbors = 171538
Ave neighs/atom = 158.83148
Neighbor list builds = 4
Dangerous builds = 0

Total wall time: 1:02:18
