72
Lattice="9.97060653781279 0.0 0.0 0.0 8.634798552885082 0.0 0.0 0.0 10.957060208830441" Properties=species:S:1:pos:R:3:born_charge:R:9:forces:R:3 polarization="-1.0326983660664197 -1.5050798118032844 -0.11406606832471766" polarizability="7.2115103127325995 -0.037430708199192426 0.014945790815350263 -0.037358432181834524 7.134456966787635 0.020499337512674253 0.014944987148179118 0.020528612333779145 7.375299722833643" original_dataset_index=0 total_energy=-24452.129397523713 stress="-0.02823817937514001 -0.012231981694629478 -0.005702077365548219 -0.012231981694629478 -0.0380444601705254 0.007109014563804663 -0.005702077365548219 0.007109014563804663 -0.036015619681097934" pbc="T T T" 
Si      8.7871306326   2.1664701560   4.6459103345   3.4406681702   0.2575187081   0.3188573504   0.2172988127   3.1364251192   0.0605653595  -0.3560423745  -0.1419668520   3.4365436129  -2.4103042335   0.5669502348  -2.6132482531  
Si      1.3392900964   2.3264601675   2.9064202092   3.4305370208  -0.3937478351  -0.1693814830  -0.0834769331   3.1632948575   0.1148928933   0.1743813789  -0.0535976215   3.4531745662  -0.5476938983  -3.7952553238  -1.3118256214  
Si      2.3769201711   8.5388906147   1.0074600725   3.0090997606   0.0127240005  -0.0185740156  -0.0387106632   3.6911919902  -0.1376479081  -0.0726883572   0.0663933958   3.4221157823  -3.4161078430   3.5886425214   0.7562305982  
O       9.1872906614   3.1976002302   0.0645962047  -1.3772694336  -0.5602223875  -0.4155208822  -0.6223463459  -2.1001256883  -0.7340650276  -0.4495044207  -0.8779217519  -1.7349943029  -1.4147816247  -1.4400885085  -0.2560147210  
O       1.0767600775   3.6168302604   2.0547301479  -1.3159750558   0.4600847004  -0.4497040874   0.4381557753  -1.8663104414   0.7315414627  -0.3921881742   0.5733535337  -1.7988339019  -0.7540991992   1.1920087188  -1.6642373056  
O       0.2265030163   1.9854601429   4.0322502903  -2.4244806986  -0.0037421722   0.8053519384   0.0145820368  -1.0168244343   0.0053006963   0.8696826105   0.0732414239  -1.7595076922   3.2645314431  -0.0902351857  -0.7467461043  
O       1.2259400883   0.9863670710   1.8172701308  -1.2942020508   0.4750659689   0.2891804325   0.3378648699  -1.9507527856  -0.6519405691   0.2147459248  -0.6986952459  -1.6537113352   2.0987697735  -0.4723976287  -0.2207669377  
O       2.8106102023   2.4091401734   3.5133002529  -2.4256433230   0.1587172885  -0.8295082583   0.0381844984  -1.1040539088   0.0804021259  -0.8776835811   0.1487348551  -1.6879889799  -1.1153235831   1.3477191857  -1.5513762293  
O       3.3274302396   0.5620320405   5.1302503693  -1.4461428224  -0.4706591193   0.4490770515  -0.5833927908  -1.8438698214   0.6025478479   0.4842501984   0.5837240618  -1.6521085176  -0.2312650617  -0.4693488058   1.3983308396  
Si      8.8965306405   1.9079701374  10.1232007288   3.5875117045   0.3271340397   0.3031537231   0.2469621770   3.2036745166  -0.0458704966  -0.0267049922  -0.0909259206   3.4783156542   0.4231392463  -0.0223102145  -4.2313019432  
Si      1.3325000959   2.1254101530   8.2275905923   3.4664669282  -0.2685263894  -0.3304530947  -0.3051202024   3.0697649313   0.2168965843   0.3002346257  -0.2584113271   3.4180095682   0.1364661253   2.6897597517   0.9825218769  
Si      2.3487401691   0.0056258904   6.3588604578   3.0455923259  -0.0608006948  -0.0778211184   0.0655685213   3.5807025226  -0.2703850763   0.0228571821   0.2186561464   3.4087264605   1.3726914175   2.7349134964   0.1209963189  
O       8.7241006281   3.3777602432   5.6452304064  -1.2788304461  -0.4439201103  -0.3803721717  -0.3545561354  -1.8868240705  -0.7347582900  -0.1811516748  -0.7306778512  -1.7745102324  -0.1230853147   1.1020481170   1.8316266710  
O       0.7547550543   3.4949502516   7.6627305517  -1.4704403154   0.5879151574  -0.3860841333   0.6417175982  -1.9639025416   0.5894358674  -0.5080017817   0.6308997220  -1.6222022826  -1.9883325707   2.3846073684  -1.5749263157  
O       0.3954830285   1.5292001101   9.3002706696  -2.1649475698  -0.1337896773   0.8043635721   0.0238062216  -1.1185167098   0.0559246553   0.7023313014   0.2132003541  -1.7454018863  -4.0312296233  -0.8353893148   3.7748819488  
O       1.3976901006   1.2115900872   7.0238105057  -1.3177983944   0.5174864252   0.4203461388   0.3944403356  -1.8664950310  -0.7426286474   0.2365802108  -0.6701685550  -1.7826855856   1.5875824109  -4.4343194182  -4.5215954298  
O       2.7591701986   2.4050601731   8.8540306374  -2.3122261252   0.0120696711  -0.7866254463  -0.0143754057  -1.0234743268   0.0156586646  -0.7675893000   0.0607524656  -1.7174624322   0.7106083543   0.2788765447   0.4358755372  
O       3.3204902391   0.7749790558   0.0605512044  -1.4524694508  -0.5974283367   0.5361849712  -0.5654898667  -1.9531820113   0.7690358841   0.5710154455   0.7350203035  -1.8229674196   0.7712859630   0.9322233384  -1.7017321353  
Si      8.7596906306   6.4768304663   2.7933802011   3.6191924868  -0.3126143538  -0.1455651064  -0.5098222257   3.1947540807   0.1657219700   0.0147641141  -0.0963914710   3.5137974298   2.5340502252   0.2722960942  -3.2822281867  
Si      0.1423280102   4.1968303021   0.8121790585   3.0144416053  -0.0542761664  -0.0519237908   0.0619139130   3.7758666874  -0.0712965795  -0.0128177261   0.2479606254   3.5949022452  -1.8093954397   1.6238477172   6.6919870619  
O       8.2646205950   7.8753905670   2.0973001510  -1.3819015799   0.5213217519  -0.4276057176   0.5823289400  -1.9852507978   0.7297903242  -0.4612399327   0.7013449447  -1.7061829958   0.5597234631  -0.3527827294   0.2033638305  
O       9.2213406639   5.3545403855   1.7115001232  -1.4106838372   0.5994994267   0.4784159608   0.6199993169  -2.0580867972  -0.8088894158   0.4614009290  -0.7916671233  -1.8112210118  -0.3669511756  -0.9292991049  -1.3517871984  
O       0.0190243014   6.7347504849   3.7121902673  -2.3299904392   0.0137466594  -0.8858759944   0.0561861333  -1.0789069933   0.0164296315  -0.8867251281   0.0558948117  -1.8052297514   2.8714799433   0.8380587802   1.3615647956  
O       0.9061030652   5.1049803675   5.4951503956  -1.4771456316  -0.5875070963   0.4261125273  -0.5276401438  -1.9434316622   0.6586368262   0.4358617622   0.7156229007  -1.6960658120  -2.8407522568  -4.8381967129   3.8521566666  
Si      8.8089106342   6.5499404715   8.2915005969   3.5417738962  -0.4800422100  -0.0985248511  -0.2507509166   3.3337416098   0.0250130226   0.1701960356  -0.0676391822   3.4659570640   0.0715827262   0.9273448379   0.3547000416  
Si      9.6607006955   4.2191103037   6.5813604738   3.0845435162   0.0462731606  -0.0455876805   0.0110466256   3.5687900693  -0.0803650098  -0.0766439565   0.0018722739   3.4057353112   5.7971036525   0.3883771403  -1.2730501280  
O       8.3820606034   7.8261005634   7.3866805318  -1.4568537856   0.6077760718  -0.4729148912   0.6133950726  -1.9951359774   0.7544678233  -0.5882168731   0.7652072056  -1.7304465944  -0.5527151631   0.9017169875  -0.2034729074  
O       8.8026606337   5.2667103792   7.3274105275  -1.2806100062   0.4983935524   0.3610718404   0.3697415546  -2.1334387111  -0.7338449642   0.2841257584  -0.7331296156  -1.6288708096  -1.0713972521   1.2350694295   0.8775185337  
O       0.2833230204   6.7590504866   9.0556506519  -2.3674872070   0.1337346324  -0.8537334095   0.0266658398  -1.0778620302   0.0269247053  -0.8500631420   0.1287352509  -1.6950717837  -3.3895325679   0.6735497976  -3.0376093323  
O       1.0055000724   4.9921803594  10.8221007791  -1.3873159561  -0.5018696697   0.4233858011  -0.5441221009  -2.0538974540   0.7017169913   0.4881948842   0.6919928446  -1.7441135135   2.9571580323   1.8583274247  -3.2754422981  
Si      3.8924702802   1.9540801407   4.5309003262   3.5945750179   0.2786914599   0.2260971046   0.3308549746   3.1827966042   0.2292565252  -0.1691572544  -0.1687956907   3.4418083084   2.2603238737  -1.5502422683   0.2785419300  
Si      6.3322204559   2.3676701705   2.6335401896   3.3136335064  -0.1974793374  -0.1213865409  -0.1030154531   3.1462758249   0.1016898003   0.1810894011  -0.1061373540   3.4305523904   3.7879326352  -1.4032193851   3.3973529050  
Si      7.4049905331   8.5553406159   0.9615560692   3.0202207121  -0.0102773513  -0.0207623935   0.0605540248   3.6207900623  -0.3507401831   0.0185495002   0.2550424549   3.4375045445  -2.0392459507   2.7190463663   0.8603768240  
O       3.9530102846   3.2675602352   0.0477318034  -1.3712837809  -0.5119701241  -0.3549699922  -0.4900218344  -2.0779495890  -0.7623473192  -0.3205225287  -0.8009013731  -1.7285815838  -0.3377759228   1.1719963249   1.2016601622  
O       5.9754704302   3.6292702613   1.8262501315  -1.4326920198   0.5789357015  -0.5119765869   0.5520412068  -1.9143939227   0.6684191544  -0.5036191523   0.6027144646  -1.7245440453  -1.3596800010   2.8607543599  -1.3672878023  
O       5.3223003832   1.7420501254   3.7143602674  -2.2188390350  -0.2337591894   0.8605870341  -0.0794754708  -1.0476121187   0.0527523755   0.7903300487   0.2116648981  -1.7328038693  -1.7802414825   0.6230084503   1.6740952549  
O       6.4116604616   1.1885400856   1.6030301154  -1.2778473305   0.5404158056   0.3323904389   0.3930672710  -2.0712675598  -0.6935036538   0.2306285175  -0.7784017027  -1.6741106671   2.3208389804  -3.4323382014  -2.5397812938  
O       7.8644205662   2.7323201967   3.4207702463  -2.1053021024   0.0971467319  -0.8360627831  -0.0352450507  -1.0943187231   0.0401896597  -0.6936238968   0.1580820502  -1.7729794068  -2.8042858530  -0.7492987581  -1.6255674464  
O       8.2537105942   0.8578660618   5.2626303789  -1.4278634931  -0.5931249037   0.4502906858  -0.5762963170  -1.9740973556   0.6303637157   0.4910543253   0.7009500196  -1.6859173223  -0.8594006922  -2.9143667653   2.2554802693  
Si      3.7549302703   2.0329501464  10.0437007231   3.5449456474   0.3788790722   0.0995480951   0.3796303063   3.1365208519  -0.0201171615  -0.2350046291  -0.0123348465   3.5591817013   2.0054348438  -1.4468450048  -0.4427792356  
Si      6.3016804537   2.4867501790   8.2005405904   3.5849789124  -0.4047618091  -0.2985331637  -0.3407539802   3.1786409924   0.2046786236   0.2530936004  -0.3038222617   3.3323071936  -0.5315548059  -1.8664154208   0.9625536290  
Si      7.3307605278   0.0556207040   6.4332904632   3.0322414087  -0.0705718177   0.0236241923   0.1189474945   3.7635772112  -0.0833201698   0.2085621475   0.0843701384   3.3198591819   1.0477107821   2.1332831016  -1.0277137346  
O       4.0239602897   3.0164902172   5.7200104118  -1.2106898564  -0.5094060633  -0.3331189263  -0.3552534592  -2.1395494275  -0.7517924209  -0.2424720243  -0.8008488682  -1.7249984829   0.7237973699   2.6025318024   1.3975393445  
O       5.7054404108   3.9231802824   7.6351405497  -1.4146372780   0.5073135168  -0.4852477193   0.6119037624  -1.8963674996   0.5988791318  -0.5287569981   0.6014067972  -1.7127571794  -0.4229334221   0.1343447163  -1.6784664857  
O       5.2249403762   1.8035701298   9.2932406690  -2.2713352124  -0.2236480043   0.8231821820  -0.0743063319  -1.0973106583   0.0683241502   0.8173546666   0.2154225378  -1.7131231596  -0.1809717585   0.4677586874   0.1356983686  
O       6.4426704638   1.3156500947   7.0734905092  -1.3140864145   0.5245554848   0.3131168465   0.4408375350  -2.1529444207  -0.7340319629   0.3117449112  -0.9125100822  -1.7005558612   0.3839424107  -0.9437787762  -0.5412291211  
O       7.8082005621   2.3881801719   8.8645206382  -2.3618491029   0.2691863270  -0.8008605685   0.0830149493  -1.0557864083   0.1402020149  -0.8648284800   0.2416837639  -1.7576974710   0.9839801830   0.5753658840   1.7396416631  
O       8.3513806012   0.5534140398  10.7625007748  -1.4544489432  -0.5127536502   0.4774546400  -0.5729035528  -1.8320459214   0.6496459976   0.5421334109   0.6764523965  -1.7440234162   0.4008640425   0.2525976012   0.1648668504  
Si      1.2900500929   6.3465504569   4.7034703386   3.5741402884   0.3788295652   0.0713681598   0.1975633368   3.2358791355   0.0163182686   0.0199559924  -0.0807667329   3.4525285062  -2.1591872059   1.9777378468  -2.2502875902  
Si      3.7122202673   6.4347404633   2.7030701946   3.5805045928  -0.2413498745  -0.2085227953  -0.2803816891   3.2991938110   0.0322734235   0.0884848584  -0.0053694430   3.4190007415  -2.3317462367  -0.1290906431   1.0630669300  
Si      4.8587803498   4.3220103112   0.8454190609   3.0616980440   0.0454106054  -0.0302998602  -0.0854086839   3.6327098173  -0.0430841906   0.0452050714   0.0922639072   3.5867966297   2.1701599695  -1.6770705801  -1.2948532590  
O       1.4863101070   7.5157105411   0.1623460117  -1.2586107937  -0.4703400165  -0.4016819917  -0.4230967385  -2.0306150149  -0.8008014324  -0.3208020635  -0.7711391657  -1.8020444032   0.1095714021  -0.2299965247  -0.0995225327  
O       3.2768702359   7.8023805617   2.0400601469  -1.4023284120   0.5639493285  -0.4075682993   0.5918807784  -2.0022478759   0.6669442934  -0.4761287994   0.7296686217  -1.6786451813   0.2924690771  -0.1089793986   0.1100995748  
O       2.5796501857   6.0752504374   3.8272502755  -2.2836125985   0.0144958448   0.8987967322  -0.0343906925  -1.0778295651   0.0748416092   0.8584990420   0.0574284788  -1.8523702000   2.0152533358  -0.3442962814  -1.0746081441  
O       3.9465802841   5.1789303728   1.7572801265  -1.3825971960   0.4889943918   0.4318109268   0.5376894661  -1.9676914038  -0.7625125920   0.3869820893  -0.7723242349  -1.7967442955  -1.8533593780   1.2391493240   0.8483880572  
O       5.0751903654   6.9222504984   3.3023502377  -2.2278549298  -0.0683621259  -0.6762881942  -0.0350269788  -1.0776704306   0.0191922330  -0.7725837682   0.0361292799  -1.6116998613   1.6646663699   0.6591106100   0.2742060647  
O       5.5807104018   5.0645803646   4.9800503585  -1.3613133200  -0.5111808795   0.4513862499  -0.5480043733  -1.9524289880   0.6818291049   0.4832184386   0.6527398870  -1.7653259118  -0.5561443592  -1.6591885493   1.6387496409  
Si      1.4058801012   6.3452104568  10.0197007213   3.5275721050   0.2438832144   0.1103691519   0.2509842056   3.2769015774   0.0783194977  -0.1309934835  -0.1069037985   3.5739053777   0.7679382198  -0.6981015514   2.1166753353  
Si      3.7761702719   6.6572104793   8.1603705875   3.4840067176  -0.2689857745  -0.2174858971  -0.2790241590   3.1731906789   0.2510000604   0.2069721317  -0.2372057355   3.5247844015   0.9142199546  -1.1679949181  -2.6665120387  
Si      4.7315503406   4.4392003196   6.2521704501   2.8201487128  -0.0353212354   0.0879090482  -0.1194085783   3.7135499193  -0.5122010094   0.0185025917   0.3009921329   3.4426729618   0.8682200839  -1.8904479187   1.2233879473  
O       1.4176301021   7.6042905475   5.6864904094  -1.3223441431  -0.5480649674  -0.3312578426  -0.4874279834  -2.0988306745  -0.6777683446  -0.2916799417  -0.7043589467  -1.6133543709  -1.0496413630  -0.7623914173  -0.0899865051  
O       3.2772402359   8.0075405765   7.5430605430  -1.4034806639   0.5371393979  -0.4111046121   0.5819984773  -1.9590229100   0.6117832031  -0.4807446925   0.5917311177  -1.7123322663  -0.6117236139   2.0640726685  -0.4910886859  
O       2.7410301973   6.1019004393   9.1758906606  -2.2392107964  -0.1099134807   0.8800520912  -0.0310715045  -1.0791694925   0.0412765214   0.8241476069   0.1792527413  -1.8031683137  -0.7216881963  -1.1695842058   1.7616981564  
O       3.7928202731   5.6514404069   6.7989304895  -1.2544454724   0.5265083368   0.3078895367   0.4119235118  -1.8906256535  -0.6488602621   0.2148035620  -0.6351777820  -1.7014002729   0.6123235806  -0.3483975105   1.0280191937  
O       5.1920603738   6.8418804926   8.8799606393  -2.2825100475   0.0304663894  -0.8641997423   0.0143595553  -1.0664553069   0.0456719994  -0.8519191111   0.1065722194  -1.8110287061  -1.7888292998   1.3092993456  -2.6415675577  
O       5.7069004109   5.1520303709  10.7175007716  -1.3468054330  -0.5601742915   0.4144985232  -0.5777569433  -2.0328054052   0.7025025163   0.4707976491   0.6969918489  -1.7636780629  -0.0469490032  -0.1827677062  -0.1436061092  
Si      6.1287004412   6.3897904600   4.3286003116   3.5012507002   0.3014221061   0.1727608659   0.3490659612   3.2673242179   0.2328243000  -0.2582884077  -0.0387230231   3.2786173303   3.5327220475   3.2642769443   2.7214296615  
O       6.3510904572   7.5756305454   0.2830860204  -1.3899032309  -0.4943573713  -0.3581964569  -0.5422871909  -1.8654754156  -0.7124798848  -0.3780760929  -0.6782915491  -1.7630318534  -0.9507527585  -1.0278520820  -1.4653792931  
O       7.6579305513   6.1004804392   3.7828602723  -2.3324644997  -0.0800182108   0.7903080792   0.0550693437  -1.0850020797   0.0121343799   0.8614058006   0.0693293655  -1.6361315580  -5.1959474370  -1.2253125278   2.7599287504  
Si      6.1927404458   6.4998404679   9.9759007182   3.5361310105   0.3975184994   0.2722926357   0.3883491351   3.1729145792   0.1668200257  -0.1806388993  -0.0939103854   3.5381390070   2.8170350977  -0.5786864712   4.2486620914  
O       6.3042504539   7.8459705649   5.5818104019  -1.3558898968  -0.4156273288  -0.3760274524  -0.6279738980  -1.8862449321  -0.7691971580  -0.4169520258  -0.6726571339  -1.6986382759  -1.2844025412  -4.1997940114  -2.3716404404  
O       7.6820105531   6.2930604531   9.4056706771  -2.3392146595   0.0073910315   0.7600934230  -0.0112589450  -1.0723707209  -0.0045861916   0.8699159390   0.0182763863  -1.6836731315   0.0938510529  -0.2045916953   0.1253649978  
72
Lattice="9.97060653781279 0.0 0.0 0.0 8.634798552885082 0.0 0.0 0.0 10.957060208830441" Properties=species:S:1:pos:R:3:born_charge:R:9:forces:R:3 polarization="0.2314235536982281 0.7847138029052303 -0.8100901349764342" polarizability="6.994186495064669 0.008526939014088126 -0.009531828511616738 0.008634677627028534 6.962429752758035 -0.0024441762339161618 -0.00948579711743505 -0.0024399365331533537 7.241249672097085" original_dataset_index=1 total_energy=-24453.672129197552 stress="-0.05864614305359509 0.0065582008847521345 -0.006936392362104563 0.0065582008847521345 -0.03631117723239095 -7.561553666054792e-05 -0.006936392362104563 -7.561553666054792e-05 -0.04286974007403679" pbc="T T T" 
Si      8.7582406305   2.0475101474   4.4403303197   3.5483344142   0.4501683287   0.2526989673   0.3824123491   3.2365729873   0.0120053039  -0.1749331441  -0.0005209367   3.4145662662  -0.7855193937   1.0396623712   5.2005967596  
Si      1.3907801001   2.3215601671   2.8337602040   3.6125354762  -0.2631437143  -0.1835652521  -0.4091065203   3.2241708932   0.1517591995   0.1604338606   0.0163298397   3.3549493822  -1.3494259625  -0.2857855378   0.6040680994  
Si      2.4038901731   8.6664206239   0.8621350621   3.0094787881  -0.0637292576  -0.0282517796   0.0913457975   3.5878104129  -0.1071997251   0.0646657514   0.2536136933   3.4921409296   0.8579840782  -0.5837531531   2.1286445314  
O       9.0002106480   3.2807002362   0.3067280221  -1.3988798720  -0.5567303804  -0.3671688116  -0.5877696996  -2.0410801432  -0.7034707113  -0.3814853877  -0.8132575001  -1.7259338472  -0.1996029721  -1.2469208938  -0.5061628521  
O       0.6892330496   3.6663202639   2.2748201638  -1.3786640904   0.4988844439  -0.4644833833   0.5602684490  -1.9223853748   0.6293856397  -0.4764841430   0.6565472305  -1.7030295233   1.8470105056  -0.7522035488   0.6463694828  
O       0.2132650154   1.8555801336   3.9110302816  -2.3706122332  -0.0904541303   0.6766145176  -0.0502484092  -1.1193760046   0.0688143491   0.8465910331   0.0812463591  -1.6126092350   4.0340503591  -1.2966117112  -1.8054063568  
O       1.6730201204   1.1298700813   1.7866501286  -1.2954126048   0.5451488643   0.4405528093   0.5166644393  -2.1053843358  -0.8826307133   0.3483568568  -0.8744941245  -1.8587843618  -0.9127536870   0.9654562243  -0.1497407126  
O       2.7586401986   2.7468501978   3.5518902557  -2.1863267818   0.0707155198  -0.7779573875   0.0328848601  -1.1062738215   0.0556322098  -0.7612025184   0.1092851082  -1.6712070865  -0.6397506955   0.5814041360  -0.8113002210  
O       3.0955702229   0.7342510529   5.1845703733  -1.3839219641  -0.5338866403   0.4308539938  -0.5620600970  -1.9726355761   0.6489433667   0.4684966647   0.6757849857  -1.7064148128   1.0285639587   0.9302898059  -0.1041506119  
Si      8.7278906283   2.0214001455  10.1633007317   3.6648840991   0.3604117580   0.2043320170   0.3710817146   3.1319110191   0.1956418225  -0.2532869759  -0.1360140787   3.4778420297   1.2249172565   6.6372323783  -0.4232332347  
Si      1.1441700824   2.2372701611   8.0995305831   3.4757593019  -0.4177413316  -0.2228747466  -0.2492324391   3.1664153239   0.0081444549   0.1195852968  -0.0836233906   3.5308857795   2.5260767294  -0.8385793869   1.8012556273  
Si      2.3279701676  -0.0390800028   6.3915604601   2.9472167240  -0.0122164130  -0.0244011628  -0.1966126519   3.7168982488  -0.2689526926   0.0179670084   0.1508094006   3.4928265413   3.5589173700  -1.1095866100  -0.1264535054  
O       8.9189706421   3.4085002454   5.4637903934  -1.3791356517  -0.4896561095  -0.3539803448  -0.5609418780  -2.0334556197  -0.7102162872  -0.3589141013  -0.7187695667  -1.6517969721  -0.5288514253  -1.4730649248  -0.6261453694  
O       0.8533450614   3.6101502599   7.3030905258  -1.3274220593   0.5197135735  -0.4543435209   0.4996769926  -1.9455144521   0.7423321830  -0.4594846719   0.7351340665  -1.7614310408   1.5079632459  -2.0970316236   2.2064756115  
O       0.1568660113   1.9894301432   9.4031906770  -2.2602405129  -0.0896436119   0.9080242865   0.0290547413  -0.9852137140   0.0248431114   0.8752997805   0.0886144433  -1.8463017937   1.5467279654  -0.8959065974  -2.1075723742  
O       1.3326400959   0.9075350653   7.0909405105  -1.4086194915   0.5055732984   0.3449823207   0.5949982675  -2.0202610912  -0.6725626397   0.4238725817  -0.7441483608  -1.6599656800  -2.6810167642   3.6312083994   2.8077239105  
O       2.6899901937   2.4265101747   8.8841806396  -2.2567937498   0.1555515097  -0.8646777433  -0.0008673295  -1.0495427086   0.0536888132  -0.7859811409   0.1595346201  -1.7524837593  -4.1401318635   0.4110827043  -2.7860340474  
O       3.4275702468   0.6181350445  -0.1806250130  -1.3540213024  -0.4786974616   0.4239739662  -0.5418673830  -1.8367916222   0.6812988402   0.4717486389   0.6118160604  -1.7267197142   0.2316655337   1.4275504730  -1.3836699388  
Si      8.8099106343   6.7053904827   2.9089802094   3.5529310988  -0.3724705137  -0.2850901853  -0.3909304691   3.1756461543   0.1118717871   0.1514376611  -0.1001166932   3.3617843714  -5.5997334045  -5.0173533943  -1.5753650301  
Si     -0.0118176009   4.3866403158   1.0748900774   2.9185823037   0.0286643203   0.1114295419   0.1551919000   3.7218088553  -0.2919966159  -0.1010566656   0.2480276866   3.4177472034  -1.5646193030   0.6744263025  -2.7353914430  
O       8.2521705941   7.9503805724   2.1818801571  -1.3845226353   0.5430655728  -0.4780731128   0.5716314283  -1.9525094598   0.6852182727  -0.4963576382   0.6797363112  -1.8248334851  -1.7362614596   3.7049851168  -2.8569103531  
O       9.0151106490   5.5174503972   1.6848101213  -1.3521599977   0.5322559608   0.3419281449   0.5335772080  -2.0118856370  -0.6822393229   0.3836780702  -0.7684817764  -1.7176374278  -1.0113413326   1.5088966567   1.4486613750  
O       0.2337680168   6.9080204973   3.4271602467  -2.3578365293   0.0800436725  -0.6910053299   0.0307382964  -1.0898097610   0.0464301388  -0.8480056657   0.0530952319  -1.5970410785   4.7309804540   1.0543234024   2.7278831143  
O       0.9012940649   5.0506103636   5.2291303765  -1.4108794194  -0.4829315162   0.4207022428  -0.5784860319  -1.9559765871   0.6703617395   0.4566362959   0.5750041874  -1.6819287349   2.7069290255   2.7288311987  -3.1587226821  
Si      8.8321106358   6.5285404700   8.1183905845   3.5919213762  -0.3416718737  -0.2569541603  -0.3353579384   3.1315260894   0.1548150961   0.2864359172  -0.1568602916   3.4451235161  -0.8358178864  -0.5766747732   1.5260174443  
Si      9.9706907178   4.3842403156   6.2533904502   3.0150652179  -0.0087341124   0.0446551660   0.0002798609   3.6333901765  -0.1391129887   0.0586984709   0.1686233648   3.4576681606  -5.0779172335  -0.9805404859  -0.1909522096  
O       8.1528105869   7.8671305664   7.5892105464  -1.4362560948   0.5441163970  -0.4063514244   0.6338688651  -1.9728330899   0.6249453640  -0.4891406378   0.6733040204  -1.6869255803   0.8659861632   0.3989391644   0.1498640509  
O       8.9565106448   5.4007903888   7.0480805074  -1.3270687694   0.5114466733   0.4070552421   0.5059429614  -1.9379015696  -0.7341425246   0.3355373697  -0.7526134794  -1.7431861107   0.7098617471  -0.8897268886  -1.6091928637  
O       0.2759750199   6.6929904818   8.8674706384  -2.2651914120   0.0081194899  -0.8964505252  -0.0396184460  -1.0273934479   0.0225237638  -0.8621939067   0.0673104719  -1.8683636840  -1.1224024317   1.2020173186  -1.4722752855  
O       0.9903780713   5.0999603672  10.9121007856  -1.3504363993  -0.5465935929   0.5032199663  -0.4689781475  -1.9255973543   0.7343826673   0.4692583224   0.6739853444  -1.7734631786  -0.6003891649  -0.3149130048   0.3226869779  
Si      3.7828602723   2.1784101568   4.6201303326   3.4887460067   0.1553675060   0.1614701032   0.3055029359   3.1313404817   0.2088809790  -0.3109582266  -0.1421092816   3.3802106173   1.0708350942  -3.8927211722  -1.4054509874  
Si      6.3240204553   2.1974601582   2.6619301916   3.5277477969  -0.3533003739  -0.3223849875  -0.2725455805   3.0856721003   0.1163721344   0.1809751255  -0.2301811266   3.4461204665  -3.5890233847  -2.2354151526   0.7216848616  
Si      7.3907005321   8.6654706239   0.8732170629   2.9127277867   0.0265286833   0.0626921024  -0.0885915697   3.7487672835  -0.2348062402   0.0196745107   0.2049914434   3.5665342651  -2.8200026452  -3.8229441373   5.4988285967  
O       4.0078402885   3.2654902351  -0.0469459034  -1.3795916550  -0.5309229970  -0.4178352304  -0.5947977329  -2.0099943974  -0.7526168722  -0.4160009270  -0.7832952124  -1.7244972087   0.0223939127  -0.3837321466   0.3354575886  
O       5.8041404179   3.5213202535   2.0238301457  -1.3561812146   0.4923809881  -0.4045363120   0.5757260249  -1.8949930079   0.7013895745  -0.4396683621   0.6707520543  -1.7618265366   0.1066082958   0.9420736720  -0.7997488441  
O       5.2049803747   1.7692801274   3.8484202771  -2.2488660890   0.0457907268   0.8595403191   0.0130216429  -1.0339359955   0.0277175190   0.8415291941   0.0857885252  -1.7554247197  -0.3599557034   0.6941722920   0.5339318733  
O       6.2676904512   1.0115600728   1.5434201111  -1.3136063512   0.4916185652   0.3270731208   0.4252080647  -1.8844489815  -0.6196741827   0.2490428775  -0.6373747858  -1.6341010986   0.6814336073  -0.1937882203  -0.1658230325  
O       7.7323605567   2.2966001653   3.2906502369  -2.3388743280   0.0366553501  -0.8456927723   0.0007665527  -1.0269610178   0.0326092172  -0.8444288552   0.0602571884  -1.7744405612   0.9837123210   0.6863755830  -0.3231431727  
O       8.3060405980   0.7627010549   5.3939803883  -1.4253772501  -0.5594422900   0.4926717976  -0.5690910776  -1.9574252368   0.7494054609   0.5164103554   0.6679677085  -1.8187733651   0.6750264136   0.4124839481  -0.8202229583  
Si      3.7328302687   1.9857601430   9.9470207161   3.4254276001   0.2447818242   0.1841372867   0.2809636657   3.1788208825   0.0307901374  -0.0097652176  -0.0343683712   3.4365440432   1.2509268812  -0.4771303455   1.3378156286  
Si      6.2506004500   2.1963401581   8.2368405930   3.5862494974  -0.2601119256  -0.0535348283  -0.3869821082   3.1925495471   0.1508066155   0.1323620149  -0.1446944687   3.4076891074  -0.2741554948   1.5517204436   2.5283383237  
Si      7.3397205284   0.0056274804   6.4706504658   2.9938613528   0.0037411446   0.0817194238   0.1242313110   3.7565125883  -0.1760231570  -0.0953383981   0.1770519350   3.5830323027   0.6833260936  -1.9087169776  -4.3120447293  
O       3.8361002762   3.1868002294   5.8084804182  -1.2837630721  -0.5211889718  -0.3659095550  -0.4180162648  -1.9752911968  -0.7591107891  -0.2467445047  -0.7280189351  -1.8001630375  -0.5376999391   0.2723623877   1.0723167505  
O       5.7008504104   3.5609202564   7.5824805459  -1.4479065985   0.5538196907  -0.4413465805   0.6206911126  -1.9683287981   0.6441237450  -0.5336199435   0.6999094004  -1.6836143972  -0.0627726865   0.9363833387  -0.5372320803  
O       5.0638703646   1.5939901148   9.1677306600  -2.2866340322  -0.0459145305   0.7440920129  -0.0601654657  -1.1255585127   0.0525683176   0.7547569043   0.0921209987  -1.6381170417   1.6523855653  -0.2715755167  -0.5337857911  
O       6.5776604735   1.1512400829   7.1356805137  -1.3288756076   0.5816681822   0.3986459913   0.4980070258  -2.0367791703  -0.7362427566   0.4010017855  -0.8236917807  -1.7817574344  -1.7544808913   0.7922310560   0.0670775314  
O       7.5887005463   2.5176301813   9.1471006585  -2.2935740597   0.0836790447  -0.8618333390   0.0264678073  -1.0498372378   0.0045194064  -0.8352739485   0.0967006894  -1.7552089082  -1.1868991692   0.1573311318  -1.1860239861  
O       8.1934505899   0.7520040541  10.7904007768  -1.4149037080  -0.5236384539   0.4583667979  -0.6160701962  -1.9892356815   0.6820166657   0.4918676882   0.6706947552  -1.7226196267   2.7024307855  -0.8689874420  -1.2009092406  
Si      1.3680100985   6.4890904672   4.5123103249   3.5535627792   0.2647849124   0.1918405890   0.3008199027   3.1786388326   0.1390671222  -0.1912463723  -0.1027889866   3.4964622289  -1.6309123630  -3.0879962518  -0.5045565040  
Si      3.8510102772   6.5421404710   2.7249601962   3.5092353518  -0.3977821178  -0.1882941947  -0.3671639406   3.2701230812   0.1184400286   0.1548555262  -0.0242770673   3.4566580076  -1.8114746251  -0.3974925140  -5.8722972851  