
     Program PWSCF v.7.1 starts on 31Mar2024 at 13:49:51 

     This program is part of the open-source Quantum ESPRESSO suite
     for quantum simulation of materials; please cite
         "P. Giannozzi et al., J. Phys.:Condens. Matter 21 395502 (2009);
         "P. Giannozzi et al., J. Phys.:Condens. Matter 29 465901 (2017);
         "P. Giannozzi et al., J. Chem. Phys. 152 154105 (2020);
          URL http://www.quantum-espresso.org", 
     in publications or presentations arising from this work. More details at
     http://www.quantum-espresso.org/quote

     Parallel version (MPI), running on    64 processors

     MPI processes distributed on     1 nodes
     488362 MiB available memory on the printing compute node when the environment starts

     Reading input from /n/holyscratch01/kozinsky_lab/sfalletta/QE/BaTiO3/BaTiO3-wall-Ex-0/BaTiO3-scf.inp

     Current dimensions of program PWSCF are:
     Max number of different atomic species (ntypx) = 10
     Max number of k-points (npk) =  40000
     Max angular momentum in pseudopotentials (lmaxx) =  4

     IMPORTANT: XC functional enforced from input :
     Exchange-correlation= PBE
                           (   1   4   3   4   0   0   0)
     Any further DFT definition will be discarded
     Please, verify this is what you really want


     R & G space division:  proc/nbgrp/npool/nimage =      64
     Subspace diagonalization in iterative solution of the eigenvalue problem:
     one sub-group per band group will be used
     scalapack distributed-memory algorithm (size of sub-group:  8*  8 procs)


     Parallelization info
     --------------------
     sticks:   dense  smooth     PW     G-vecs:    dense   smooth      PW
     Min         503     251     62                73645    26036    3252
     Max         504     253     63                73651    26042    3261
     Sum       32201   16101   4017              4713475  1666415  208381

     Using Slab Decomposition



     bravais-lattice index     =           14
     lattice parameter (alat)  =      22.4844  a.u.
     unit-cell volume          =   12335.5658 (a.u.)^3
     number of atoms/cell      =          135
     number of atomic types    =            3
     number of electrons       =      1080.00
     number of Kohn-Sham states=          540
     kinetic-energy cutoff     =     100.0000  Ry
     charge density cutoff     =     800.0000  Ry
     scf convergence threshold =      1.0E-08
     mixing beta               =       0.7000
     number of iterations used =            8  plain     mixing
     Exchange-correlation= PBE
                           (   1   4   3   4   0   0   0)

     Using Berry phase electric field
     In a.u.(Ry)  cartesian system of reference
        0.0001000000
        0.0000000000
        0.0000000000
     In a.u.(Ry)  crystal system of reference
        0.0001000000
        0.0000000000
        0.0000000000
     Number of iterative cycles:   1


     celldm(1)=  22.484440  celldm(2)=   1.000000  celldm(3)=   1.085208
     celldm(4)=   0.000000  celldm(5)=   0.000000  celldm(6)=   0.000000

     crystal axes: (cart. coord. in units of alat)
               a(1) = (   1.000000   0.000000   0.000000 )  
               a(2) = (   0.000000   1.000000   0.000000 )  
               a(3) = (   0.000000   0.000000   1.085208 )  

     reciprocal axes: (cart. coord. in units 2 pi/alat)
               b(1) = (  1.000000  0.000000  0.000000 )  
               b(2) = (  0.000000  1.000000  0.000000 )  
               b(3) = (  0.000000  0.000000  0.921483 )  


     PseudoPot. # 1 for Ba read from file:
     /n/holyscratch01/kozinsky_lab/sfalletta/QE/Inputs/Ba.upf
     MD5 check sum: d1993ebf099ea5c29fdb9ecc5bd2bc91
     Pseudo is Norm-conserving + core correction, Zval = 10.0
     Generated using ONCVPSP code by D. R. Hamann
     Using radial grid of 1958 points,  6 beta functions with: 
                l(1) =   0
                l(2) =   0
                l(3) =   1
                l(4) =   1
                l(5) =   2
                l(6) =   2

     PseudoPot. # 2 for Ti read from file:
     /n/holyscratch01/kozinsky_lab/sfalletta/QE/Inputs/Ti.upf
     MD5 check sum: 0b3868d933a8ea9356727c02a1b807de
     Pseudo is Norm-conserving + core correction, Zval = 12.0
     Generated using ONCVPSP code by D. R. Hamann
     Using radial grid of 1586 points,  6 beta functions with: 
                l(1) =   0
                l(2) =   0
                l(3) =   1
                l(4) =   1
                l(5) =   2
                l(6) =   2

     PseudoPot. # 3 for O  read from file:
     /n/holyscratch01/kozinsky_lab/sfalletta/QE/Inputs/O.upf
     MD5 check sum: e161f86cb4953fdc9aae83e76c3f29b8
     Pseudo is Norm-conserving + core correction, Zval =  6.0
     Generated using ONCVPSP code by D. R. Hamann
     Using radial grid of  936 points,  5 beta functions with: 
                l(1) =   0
                l(2) =   0
                l(3) =   1
                l(4) =   1
                l(5) =   2

     atomic species   valence    mass     pseudopotential
        Ba            10.00   137.32700     Ba( 1.00)
        Ti            12.00    47.90000     Ti( 1.00)
        O              6.00    15.99900     O ( 1.00)

     No symmetry found



   Cartesian axes

     site n.     atom                  positions (alat units)
         1           Ba  tau(   1) = (   0.1667771   0.1659883   0.0215221  )
         2           Ba  tau(   2) = (   0.1662210   0.1662205   0.3829439  )
         3           Ba  tau(   3) = (   0.1673264   0.1668654   0.7457458  )
         4           Ba  tau(   4) = (   0.1668879   0.4994216   0.0211890  )
         5           Ba  tau(   5) = (   0.1671482   0.5000090   0.3838960  )
         6           Ba  tau(   6) = (   0.1671718   0.4996959   0.7449152  )
         7           Ba  tau(   7) = (   0.1663350   0.8328971   0.0216659  )
         8           Ba  tau(   8) = (   0.1662001   0.8327804   0.3830598  )
         9           Ba  tau(   9) = (   0.1659912   0.8337592   0.7458291  )
        10           Ba  tau(  10) = (   0.4997693   0.1664268  -0.0175034  )
        11           Ba  tau(  11) = (   0.4995109   0.1671833   0.3445562  )
        12           Ba  tau(  12) = (   0.5003099   0.1666304   0.7065571  )
        13           Ba  tau(  13) = (   0.4996958   0.4999061  -0.0180019  )
        14           Ba  tau(  14) = (   0.4997884   0.5001492   0.3445009  )
        15           Ba  tau(  15) = (   0.4999856   0.4994153   0.7057651  )
        16           Ba  tau(  16) = (   0.4994730   0.8330999  -0.0179725  )
        17           Ba  tau(  17) = (   0.4994610   0.8326307   0.3434316  )
        18           Ba  tau(  18) = (   0.5002710   0.8340032   0.7064850  )
        19           Ba  tau(  19) = (   0.8332642   0.1660902   0.0211511  )
        20           Ba  tau(  20) = (   0.8327306   0.1661209   0.3830512  )
        21           Ba  tau(  21) = (   0.8328216   0.1663328   0.7454292  )
        22           Ba  tau(  22) = (   0.8334456   0.4995459   0.0220590  )
        23           Ba  tau(  23) = (   0.8334426   0.4999097   0.3833755  )
        24           Ba  tau(  24) = (   0.8328252   0.4993485   0.7450081  )
        25           Ba  tau(  25) = (   0.8328548   0.8338886   0.0215019  )
        26           Ba  tau(  26) = (   0.8326417   0.8330840   0.3833411  )
        27           Ba  tau(  27) = (   0.8339197   0.8332851   0.7459656  )
        28           Ti  tau(  28) = (   0.0006207   0.0003627   0.1953627  )
        29           Ti  tau(  29) = (  -0.0000786  -0.0007635   0.5570082  )
        30           Ti  tau(  30) = (  -0.0001835   0.0005087   0.9187428  )
        31           Ti  tau(  31) = (   0.0008388   0.3337791   0.1960052  )
        32           Ti  tau(  32) = (  -0.0005935   0.3327777   0.5573725  )
        33           Ti  tau(  33) = (   0.0002184   0.3331879   0.9193709  )
        34           Ti  tau(  34) = (   0.0004805   0.6660875   0.1957277  )
        35           Ti  tau(  35) = (  -0.0004348   0.6662256   0.5572503  )
        36           Ti  tau(  36) = (   0.0001329   0.6664100   0.9192446  )
        37           Ti  tau(  37) = (   0.3326961   0.0001963   0.1588395  )
        38           Ti  tau(  38) = (   0.3341313  -0.0007382   0.5201273  )
        39           Ti  tau(  39) = (   0.3330898  -0.0004038   0.8809157  )
        40           Ti  tau(  40) = (   0.3325220   0.3338094   0.1583261  )
        41           Ti  tau(  41) = (   0.3331597   0.3329070   0.5204208  )
        42           Ti  tau(  42) = (   0.3327366   0.3328482   0.8823817  )
        43           Ti  tau(  43) = (   0.3332997   0.6667788   0.1583127  )
        44           Ti  tau(  44) = (   0.3334132   0.6664160   0.5201131  )
        45           Ti  tau(  45) = (   0.3329682   0.6664871   0.8812592  )
        46           Ti  tau(  46) = (   0.6662683  -0.0003617   0.1588374  )
        47           Ti  tau(  47) = (   0.6670779  -0.0008086   0.5204856  )
        48           Ti  tau(  48) = (   0.6671615  -0.0002615   0.8814636  )
        49           Ti  tau(  49) = (   0.6662397   0.3338041   0.1575030  )
        50           Ti  tau(  50) = (   0.6662024   0.3339211   0.5198706  )
        51           Ti  tau(  51) = (   0.6673272   0.3341104   0.8815604  )
        52           Ti  tau(  52) = (   0.6663398   0.6664523   0.1584256  )
        53           Ti  tau(  53) = (   0.6667308   0.6673641   0.5191157  )
        54           Ti  tau(  54) = (   0.6670482   0.6673357   0.8816988  )
        55           O   tau(  55) = (  -0.0002680   0.1672968   0.1636516  )
        56           O   tau(  56) = (   0.1664293  -0.0004089   0.1645251  )
        57           O   tau(  57) = (  -0.0001102  -0.0007025   0.3393559  )
        58           O   tau(  58) = (  -0.0006273   0.1661836   0.5259712  )
        59           O   tau(  59) = (   0.1671952  -0.0007585   0.5259899  )
        60           O   tau(  60) = (   0.0006787   0.0006639   0.7001382  )
        61           O   tau(  61) = (  -0.0008332   0.1667067   0.8876057  )
        62           O   tau(  62) = (   0.1659935   0.0004865   0.8875679  )
        63           O   tau(  63) = (  -0.0008347  -0.0001631  -0.0227306  )
        64           O   tau(  64) = (  -0.0007405   0.5007245   0.1642322  )
        65           O   tau(  65) = (   0.1671386   0.3331285   0.1646419  )
        66           O   tau(  66) = (   0.0001441   0.3328074   0.3390411  )
        67           O   tau(  67) = (  -0.0004299   0.5007300   0.5261770  )
        68           O   tau(  68) = (   0.1673715   0.3334819   0.5253813  )
        69           O   tau(  69) = (  -0.0001849   0.3327254   0.7008817  )
        70           O   tau(  70) = (  -0.0007707   0.4995915   0.8879093  )
        71           O   tau(  71) = (   0.1663601   0.3333977   0.8880777  )
        72           O   tau(  72) = (  -0.0000474   0.3327033  -0.0223897  )
        73           O   tau(  73) = (  -0.0004304   0.8334973   0.1646239  )
        74           O   tau(  74) = (   0.1671797   0.6668781   0.1642200  )
        75           O   tau(  75) = (  -0.0006969   0.6667876   0.3386277  )
        76           O   tau(  76) = (   0.0006573   0.8334190   0.5255615  )
        77           O   tau(  77) = (   0.1667297   0.6667951   0.5264799  )
        78           O   tau(  78) = (   0.0003075   0.6664903   0.7013989  )
        79           O   tau(  79) = (  -0.0001330   0.8339266   0.8880905  )
        80           O   tau(  80) = (   0.1664753   0.6666612   0.8873096  )
        81           O   tau(  81) = (   0.0003565   0.6667855  -0.0225736  )
        82           O   tau(  82) = (   0.3337310   0.1674332   0.2021902  )
        83           O   tau(  83) = (   0.5006865  -0.0000344   0.2012080  )
        84           O   tau(  84) = (   0.3333964   0.0003635   0.3767054  )
        85           O   tau(  85) = (   0.3340236   0.1669619   0.5636574  )
        86           O   tau(  86) = (   0.4997702  -0.0004984   0.5626447  )
        87           O   tau(  87) = (   0.3336726  -0.0007376   0.7377365  )
        88           O   tau(  88) = (   0.3331579   0.1663462   0.9255361  )
        89           O   tau(  89) = (   0.4996697   0.0005156   0.9244971  )
        90           O   tau(  90) = (   0.3325340   0.0001667   0.0150825  )
        91           O   tau(  91) = (   0.3327267   0.4998899   0.2019900  )
        92           O   tau(  92) = (   0.4993843   0.3326641   0.2021322  )
        93           O   tau(  93) = (   0.3330671   0.3333967   0.3758023  )
        94           O   tau(  94) = (   0.3330916   0.5000718   0.5641013  )
        95           O   tau(  95) = (   0.4996950   0.3332940   0.5625642  )
        96           O   tau(  96) = (   0.3328636   0.3335112   0.7387368  )
        97           O   tau(  97) = (   0.3333151   0.5000000   0.9256460  )
        98           O   tau(  98) = (   0.5002430   0.3336683   0.9244223  )
        99           O   tau(  99) = (   0.3334800   0.3331998   0.0146186  )
       100           O   tau( 100) = (   0.3330838   0.8340988   0.2010872  )
       101           O   tau( 101) = (   0.4994191   0.6668213   0.2016660  )
       102           O   tau( 102) = (   0.3332073   0.6669298   0.3768681  )
       103           O   tau( 103) = (   0.3331904   0.8338903   0.5626623  )
       104           O   tau( 104) = (   0.4999944   0.6673368   0.5641198  )
       105           O   tau( 105) = (   0.3336798   0.6669590   0.7384629  )
       106           O   tau( 106) = (   0.3334421   0.8331723   0.9250489  )
       107           O   tau( 107) = (   0.4999618   0.6662966   0.9252399  )
       108           O   tau( 108) = (   0.3331473   0.6662648   0.0146839  )
       109           O   tau( 109) = (   0.6663724   0.1667430   0.2007745  )
       110           O   tau( 110) = (   0.8338228  -0.0003887   0.1638473  )
       111           O   tau( 111) = (   0.6664827   0.0001375   0.3768669  )
       112           O   tau( 112) = (   0.6659280   0.1671757   0.5633193  )
       113           O   tau( 113) = (   0.8337887   0.0001303   0.5265428  )
       114           O   tau( 114) = (   0.6667462   0.0005636   0.7382235  )
       115           O   tau( 115) = (   0.6664863   0.1664615   0.9246692  )
       116           O   tau( 116) = (   0.8334312   0.0003264   0.8870606  )
       117           O   tau( 117) = (   0.6672203   0.0002080   0.0150124  )
       118           O   tau( 118) = (   0.6662046   0.4995471   0.2024377  )
       119           O   tau( 119) = (   0.8337688   0.3333106   0.1651661  )
       120           O   tau( 120) = (   0.6667206   0.3325171   0.3763782  )
       121           O   tau( 121) = (   0.6659828   0.5004740   0.5637726  )
       122           O   tau( 122) = (   0.8329828   0.3339097   0.5266808  )
       123           O   tau( 123) = (   0.6668197   0.3330158   0.7380843  )
       124           O   tau( 124) = (   0.6664042   0.5006385   0.9250779  )
       125           O   tau( 125) = (   0.8327004   0.3331897   0.8876106  )
       126           O   tau( 126) = (   0.6663240   0.3339225   0.0144973  )
       127           O   tau( 127) = (   0.6670707   0.8341533   0.2020525  )
       128           O   tau( 128) = (   0.8340576   0.6672188   0.1645584  )
       129           O   tau( 129) = (   0.6673257   0.6666135   0.3759688  )
       130           O   tau( 130) = (   0.6666628   0.8341676   0.5641187  )
       131           O   tau( 131) = (   0.8326477   0.6670023   0.5265568  )
       132           O   tau( 132) = (   0.6664112   0.6660490   0.7375738  )
       133           O   tau( 133) = (   0.6667896   0.8334660   0.9254427  )
       134           O   tau( 134) = (   0.8340403   0.6665347   0.8886101  )
       135           O   tau( 135) = (   0.6662195   0.6667714   0.0142597  )

     number of k points=     1
                       cart. coord. in units 2pi/alat
        k(    1) = (   0.0000000   0.0000000   0.0000000), wk =   2.0000000

     Dense  grid:  4713475 G-vectors     FFT dimensions: ( 216, 216, 225)

     Smooth grid:  1666415 G-vectors     FFT dimensions: ( 144, 144, 160)

     Estimated max dynamical RAM per process >     306.50 MB

     Estimated total dynamical RAM >      19.16 GB

     Initial potential from superposition of free atoms

     starting charge    1079.5099, renormalised to    1080.0000
     Starting wfcs are  729 randomized atomic wfcs

     total cpu time spent up to now is       12.8 secs

     Self-consistent Calculation

     iteration #  1     ecut=   100.00 Ry     beta= 0.70
     Davidson diagonalization with overlap
     ethr =  1.00E-02,  avg # of iterations =  2.0

     Expectation value of exp(iGx):   (7.21873480267703921E-006,1.93998730116586308E-006)   1.0000000000000000     
     Electronic Dipole per cell (Ry a.u.)   2.6573152063530947     
     Ionic Dipole per cell (Ry a.u.)   13734.085957190531     

     Expectation value of exp(iGx):  (7.23113685387270129E-006,-2.12571173813639325E-008)   1.0000000000000000     
     Electronic Dipole per cell (Ry a.u.)  -2.9753888441267029E-002
     Ionic Dipole per cell (Ry a.u.)   13735.445067148443     

     Expectation value of exp(iGx):  (-3.21295026289063814E-005,1.10478167242912476E-005)   1.0852077191500298     
     Electronic Dipole per cell (Ry a.u.)   30.869452848904331     
     Ionic Dipole per cell (Ry a.u.)   16152.258749944860     
Electronic Dipole on Cartesian axes
           1   2.6573152063530947     
           2  -2.9753888441267029E-002
           3   30.869452848904334     
Ionic Dipole on Cartesian axes
           1   13734.085957190531     
           2   13735.445067148443     
           3   16152.258749944860     

     total cpu time spent up to now is      949.2 secs

     total energy              =   -7390.65233457 Ry
     estimated scf accuracy    <      52.26858306 Ry

     iteration #  2     ecut=   100.00 Ry     beta= 0.70
     Davidson diagonalization with overlap
     ethr =  4.84E-03,  avg # of iterations =  9.0

     Expectation value of exp(iGx):  (2.24840505812438609E-021,-1.20935652742979798E-020)   1.0000000000000000     
     Electronic Dipole per cell (Ry a.u.)  -14.038368492599892     
     Ionic Dipole per cell (Ry a.u.)   13734.085957190531     

     Expectation value of exp(iGx):   (3.14898237687094737E-022,8.48466846260327714E-022)   1.0000000000000000     
     Electronic Dipole per cell (Ry a.u.)   12.301897155642862     
     Ionic Dipole per cell (Ry a.u.)   13735.445067148443     

     Expectation value of exp(iGx):   (5.67158457672897930E-015,2.68559901038349001E-014)   1.0852077191500298     
     Electronic Dipole per cell (Ry a.u.)   14.967544588570389     
     Ionic Dipole per cell (Ry a.u.)   16152.258749944860     
Electronic Dipole on Cartesian axes
           1  -14.038368492599892     
           2   12.301897155642862     
           3   14.967544588570389     
Ionic Dipole on Cartesian axes
           1   13734.085957190531     
           2   13735.445067148443     
           3   16152.258749944860     

     total cpu time spent up to now is     1883.5 secs

     total energy              =   -7344.78924100 Ry
     estimated scf accuracy    <     479.13260745 Ry

     iteration #  3     ecut=   100.00 Ry     beta= 0.70
     Davidson diagonalization with overlap
     ethr =  4.84E-03,  avg # of iterations =  6.0

     Expectation value of exp(iGx):   (7.96169433840413063E-008,2.33925500662357880E-008)   1.0000000000000000     
     Electronic Dipole per cell (Ry a.u.)   2.8924535271133962     
     Ionic Dipole per cell (Ry a.u.)   13734.085957190531     

     Expectation value of exp(iGx):  (1.13975509472795547E-007,-2.25643462031775620E-009)   1.0000000000000000     
     Electronic Dipole per cell (Ry a.u.) -0.20035568689126035     
     Ionic Dipole per cell (Ry a.u.)   13735.445067148443     

     Expectation value of exp(iGx):  (-9.46573343119020876E-007,6.23234287167062865E-008)   1.0852077191500298     
     Electronic Dipole per cell (Ry a.u.)   33.785061743294321     
     Ionic Dipole per cell (Ry a.u.)   16152.258749944860     
Electronic Dipole on Cartesian axes
           1   2.8924535271133962     
           2 -0.20035568689126035     
           3   33.785061743294321     
Ionic Dipole on Cartesian axes
           1   13734.085957190531     
           2   13735.445067148443     
           3   16152.258749944860     

     total cpu time spent up to now is     2836.0 secs

     total energy              =   -7418.82512702 Ry
     estimated scf accuracy    <      12.91960437 Ry

     iteration #  4     ecut=   100.00 Ry     beta= 0.70
     Davidson diagonalization with overlap
     ethr =  1.20E-03,  avg # of iterations =  4.0

     Expectation value of exp(iGx):   (3.24327257256041485E-007,9.24940182956004895E-008)   1.0000000000000000     
     Electronic Dipole per cell (Ry a.u.)   2.8118930543787517     
     Ionic Dipole per cell (Ry a.u.)   13734.085957190531     

     Expectation value of exp(iGx):  (3.41243567367047936E-007,-9.76180477443349234E-009)   1.0000000000000000     
     Electronic Dipole per cell (Ry a.u.) -0.28946390184918891     
     Ionic Dipole per cell (Ry a.u.)   13735.445067148443     

     Expectation value of exp(iGx):  (-2.30323853251736925E-006,8.72669071068095053E-007)   1.0852077191500298     
     Electronic Dipole per cell (Ry a.u.)   30.529093230038281     
     Ionic Dipole per cell (Ry a.u.)   16152.258749944860     
Electronic Dipole on Cartesian axes
           1   2.8118930543787517     
           2 -0.28946390184918891     
           3   30.529093230038281     
Ionic Dipole on Cartesian axes
           1   13734.085957190531     
           2   13735.445067148443     
           3   16152.258749944860     

     total cpu time spent up to now is     3740.6 secs

     total energy              =   -7420.02478824 Ry
     estimated scf accuracy    <       4.66002508 Ry

     iteration #  5     ecut=   100.00 Ry     beta= 0.70
     Davidson diagonalization with overlap
     ethr =  4.31E-04,  avg # of iterations =  2.0

     Expectation value of exp(iGx):   (3.94121187002578847E-007,1.12354491010271633E-007)   1.0000000000000000     
     Electronic Dipole per cell (Ry a.u.)   2.8108511138537984     
     Ionic Dipole per cell (Ry a.u.)   13734.085957190531     

     Expectation value of exp(iGx):  (4.06706746881698481E-007,-1.22685071139319770E-008)   1.0000000000000000     
     Electronic Dipole per cell (Ry a.u.) -0.30522904356015412     
     Ionic Dipole per cell (Ry a.u.)   13735.445067148443     

     Expectation value of exp(iGx):  (-2.64424320107347284E-006,1.04754324766862282E-006)   1.0852077191500298     
     Electronic Dipole per cell (Ry a.u.)   30.364149013017919     
     Ionic Dipole per cell (Ry a.u.)   16152.258749944860     
Electronic Dipole on Cartesian axes
           1   2.8108511138537984     
           2 -0.30522904356015412     
           3   30.364149013017919     
Ionic Dipole on Cartesian axes
           1   13734.085957190531     
           2   13735.445067148443     
           3   16152.258749944860     

     total cpu time spent up to now is     4637.0 secs

     total energy              =   -7418.87710162 Ry
     estimated scf accuracy    <       3.38639303 Ry

     iteration #  6     ecut=   100.00 Ry     beta= 0.70
     Davidson diagonalization with overlap
     ethr =  3.14E-04,  avg # of iterations =  5.0

     Expectation value of exp(iGx):   (2.54287436539882441E-007,7.19155209394309666E-008)   1.0000000000000000     
     Electronic Dipole per cell (Ry a.u.)   2.7896449641865630     
     Ionic Dipole per cell (Ry a.u.)   13734.085957190531     

     Expectation value of exp(iGx):  (2.57498637426309725E-007,-1.04052889682077208E-008)   1.0000000000000000     
     Electronic Dipole per cell (Ry a.u.) -0.40878051186329711     
     Ionic Dipole per cell (Ry a.u.)   13735.445067148443     

     Expectation value of exp(iGx):  (-1.49733562390767541E-006,1.14643156479517450E-006)   1.0852077191500298     
     Electronic Dipole per cell (Ry a.u.)   27.329832790268473     
     Ionic Dipole per cell (Ry a.u.)   16152.258749944860     
Electronic Dipole on Cartesian axes
           1   2.7896449641865630     
           2 -0.40878051186329711     
           3   27.329832790268473     
Ionic Dipole on Cartesian axes
           1   13734.085957190531     
           2   13735.445067148443     
           3   16152.258749944860     

     total cpu time spent up to now is     5546.2 secs

     total energy              =   -7419.39220412 Ry
     estimated scf accuracy    <       0.21840482 Ry

     iteration #  7     ecut=   100.00 Ry     beta= 0.70
     Davidson diagonalization with overlap
     ethr =  2.02E-05,  avg # of iterations =  9.0

     Expectation value of exp(iGx):   (1.98685078648678001E-007,5.56475455782431089E-008)   1.0000000000000000     
     Electronic Dipole per cell (Ry a.u.)   2.7640150515084265     
     Ionic Dipole per cell (Ry a.u.)   13734.085957190531     

     Expectation value of exp(iGx):  (1.85374302924331308E-007,-9.40542070964178492E-009)   1.0000000000000000     
     Electronic Dipole per cell (Ry a.u.) -0.51310191513098424     
     Ionic Dipole per cell (Ry a.u.)   13735.445067148443     

     Expectation value of exp(iGx):  (-1.15189555934414718E-006,9.65309483069865485E-007)   1.0852077191500298     
     Electronic Dipole per cell (Ry a.u.)   26.845920812392890     
     Ionic Dipole per cell (Ry a.u.)   16152.258749944860     
Electronic Dipole on Cartesian axes
           1   2.7640150515084265     
           2 -0.51310191513098424     
           3   26.845920812392890     
Ionic Dipole on Cartesian axes
           1   13734.085957190531     
           2   13735.445067148443     
           3   16152.258749944860     

     total cpu time spent up to now is     6488.8 secs

     total energy              =   -7419.53803863 Ry
     estimated scf accuracy    <       0.07127981 Ry

     iteration #  8     ecut=   100.00 Ry     beta= 0.70
     Davidson diagonalization with overlap
     ethr =  6.60E-06,  avg # of iterations =  6.0

     Expectation value of exp(iGx):   (1.96662647113043279E-007,5.57284308576554874E-008)   1.0000000000000000     
     Electronic Dipole per cell (Ry a.u.)   2.7948809057779695     
     Ionic Dipole per cell (Ry a.u.)   13734.085957190531     

     Expectation value of exp(iGx):  (1.80931411791985311E-007,-9.43490738867511329E-009)   1.0000000000000000     
     Electronic Dipole per cell (Ry a.u.) -0.52732416555605011     
     Ionic Dipole per cell (Ry a.u.)   13735.445067148443     

     Expectation value of exp(iGx):  (-1.13283068016857998E-006,9.80240946383372444E-007)   1.0852077191500298     
     Electronic Dipole per cell (Ry a.u.)   26.672217470319818     
     Ionic Dipole per cell (Ry a.u.)   16152.258749944860     
Electronic Dipole on Cartesian axes
           1   2.7948809057779695     
           2 -0.52732416555605011     
           3   26.672217470319818     
Ionic Dipole on Cartesian axes
           1   13734.085957190531     
           2   13735.445067148443     
           3   16152.258749944860     

     total cpu time spent up to now is     7383.4 secs

     total energy              =   -7419.53954072 Ry
     estimated scf accuracy    <       0.05855858 Ry

     iteration #  9     ecut=   100.00 Ry     beta= 0.70
     Davidson diagonalization with overlap
     ethr =  5.42E-06,  avg # of iterations =  2.0

     Expectation value of exp(iGx):   (2.02584338084838758E-007,5.74180066220958773E-008)   1.0000000000000000     
     Electronic Dipole per cell (Ry a.u.)   2.7954147014461466     
     Ionic Dipole per cell (Ry a.u.)   13734.085957190531     

     Expectation value of exp(iGx):  (1.86493208480610188E-007,-9.62374533937065112E-009)   1.0000000000000000     
     Electronic Dipole per cell (Ry a.u.) -0.52184705446205637     
     Ionic Dipole per cell (Ry a.u.)   13735.445067148443     

     Expectation value of exp(iGx):  (-1.13854928067747836E-006,1.02348941893099421E-006)   1.0852077191500298     
     Electronic Dipole per cell (Ry a.u.)   26.464410414354116     
     Ionic Dipole per cell (Ry a.u.)   16152.258749944860     
Electronic Dipole on Cartesian axes
           1   2.7954147014461466     
           2 -0.52184705446205637     
           3   26.464410414354116     
Ionic Dipole on Cartesian axes
           1   13734.085957190531     
           2   13735.445067148443     
           3   16152.258749944860     

     total cpu time spent up to now is     8282.5 secs

     total energy              =   -7419.53537731 Ry
     estimated scf accuracy    <       0.03007343 Ry

     iteration # 10     ecut=   100.00 Ry     beta= 0.70
     Davidson diagonalization with overlap
     ethr =  2.78E-06,  avg # of iterations =  5.0

     Expectation value of exp(iGx):   (2.16103527350462600E-007,6.10417773669987792E-008)   1.0000000000000000     
     Electronic Dipole per cell (Ry a.u.)   2.7863973456005207     
     Ionic Dipole per cell (Ry a.u.)   13734.085957190531     

     Expectation value of exp(iGx):  (1.98250393928550566E-007,-9.93560379468889153E-009)   1.0000000000000000     
     Electronic Dipole per cell (Ry a.u.) -0.50683219312446404     
     Ionic Dipole per cell (Ry a.u.)   13735.445067148443     

     Expectation value of exp(iGx):  (-1.18196387059487197E-006,1.07575187403775274E-006)   1.0852077191500298     
     Electronic Dipole per cell (Ry a.u.)   26.396763101881874     
     Ionic Dipole per cell (Ry a.u.)   16152.258749944860     
Electronic Dipole on Cartesian axes
           1   2.7863973456005207     
           2 -0.50683219312446404     
           3   26.396763101881874     
Ionic Dipole on Cartesian axes
           1   13734.085957190531     
           2   13735.445067148443     
           3   16152.258749944860     

     total cpu time spent up to now is     9188.0 secs

     total energy              =   -7419.53859262 Ry
     estimated scf accuracy    <       0.00449714 Ry

     iteration # 11     ecut=   100.00 Ry     beta= 0.70
     Davidson diagonalization with overlap
     ethr =  4.16E-07,  avg # of iterations =  8.0

     Expectation value of exp(iGx):   (2.24979370283409691E-007,6.33966468959026801E-008)   1.0000000000000000     
     Electronic Dipole per cell (Ry a.u.)   2.7800528262688124     
     Ionic Dipole per cell (Ry a.u.)   13734.085957190531     

     Expectation value of exp(iGx):  (2.08250715845529015E-007,-1.02948661804400927E-008)   1.0000000000000000     
     Electronic Dipole per cell (Ry a.u.) -0.49995163144549964     
     Ionic Dipole per cell (Ry a.u.)   13735.445067148443     

     Expectation value of exp(iGx):  (-1.25050272644467691E-006,1.07676244804452487E-006)   1.0852077191500298     
     Electronic Dipole per cell (Ry a.u.)   26.698896290921326     
     Ionic Dipole per cell (Ry a.u.)   16152.258749944860     
Electronic Dipole on Cartesian axes
           1   2.7800528262688124     
           2 -0.49995163144549964     
           3   26.698896290921326     
Ionic Dipole on Cartesian axes
           1   13734.085957190531     
           2   13735.445067148443     
           3   16152.258749944860     

     total cpu time spent up to now is    10119.1 secs

     total energy              =   -7419.54056925 Ry
     estimated scf accuracy    <       0.00064943 Ry

     iteration # 12     ecut=   100.00 Ry     beta= 0.70
     Davidson diagonalization with overlap
     ethr =  6.01E-08,  avg # of iterations =  6.0

     Expectation value of exp(iGx):   (2.29771052258006477E-007,6.47442663007906236E-008)   1.0000000000000000     
     Electronic Dipole per cell (Ry a.u.)   2.7799458021019485     
     Ionic Dipole per cell (Ry a.u.)   13734.085957190531     

     Expectation value of exp(iGx):  (2.11784187960538462E-007,-1.03841269481571926E-008)   1.0000000000000000     
     Electronic Dipole per cell (Ry a.u.) -0.49587930163167143     
     Ionic Dipole per cell (Ry a.u.)   13735.445067148443     

     Expectation value of exp(iGx):  (-1.29230017039197220E-006,1.06589783961419516E-006)   1.0852077191500298     
     Electronic Dipole per cell (Ry a.u.)   26.931725047915986     
     Ionic Dipole per cell (Ry a.u.)   16152.258749944860     
Electronic Dipole on Cartesian axes
           1   2.7799458021019485     
           2 -0.49587930163167143     
           3   26.931725047915986     
Ionic Dipole on Cartesian axes
           1   13734.085957190531     
           2   13735.445067148443     
           3   16152.258749944860     

     total cpu time spent up to now is    11054.1 secs

     total energy              =   -7419.54051626 Ry
     estimated scf accuracy    <       0.00238306 Ry

     iteration # 13     ecut=   100.00 Ry     beta= 0.70
     Davidson diagonalization with overlap
     ethr =  6.01E-08,  avg # of iterations =  5.0

     Expectation value of exp(iGx):   (2.26360422702091017E-007,6.37883893828160608E-008)   1.0000000000000000     
     Electronic Dipole per cell (Ry a.u.)   2.7801595990538233     
     Ionic Dipole per cell (Ry a.u.)   13734.085957190531     

     Expectation value of exp(iGx):  (2.08921669522921282E-007,-1.03014786993498587E-008)   1.0000000000000000     
     Electronic Dipole per cell (Ry a.u.) -0.49866820829523556     
     Ionic Dipole per cell (Ry a.u.)   13735.445067148443     

     Expectation value of exp(iGx):  (-1.26555234949506900E-006,1.06556801923083950E-006)   1.0852077191500298     
     Electronic Dipole per cell (Ry a.u.)   26.820416061348109     
     Ionic Dipole per cell (Ry a.u.)   16152.258749944860     
Electronic Dipole on Cartesian axes
           1   2.7801595990538233     
           2 -0.49866820829523556     
           3   26.820416061348109     
Ionic Dipole on Cartesian axes
           1   13734.085957190531     
           2   13735.445067148443     
           3   16152.258749944860     

     total cpu time spent up to now is    11988.9 secs

     total energy              =   -7419.54058397 Ry
     estimated scf accuracy    <       0.00032616 Ry

     iteration # 14     ecut=   100.00 Ry     beta= 0.70
     Davidson diagonalization with overlap
     ethr =  3.02E-08,  avg # of iterations =  5.0

     Expectation value of exp(iGx):   (2.23813039039222155E-007,6.30827172598788293E-008)   1.0000000000000000     
     Electronic Dipole per cell (Ry a.u.)   2.7806699231239054     
     Ionic Dipole per cell (Ry a.u.)   13734.085957190531     

     Expectation value of exp(iGx):  (2.06696167753963360E-007,-1.02280077124897289E-008)   1.0000000000000000     
     Electronic Dipole per cell (Ry a.u.) -0.50043965795863898     
     Ionic Dipole per cell (Ry a.u.)   13735.445067148443     

     Expectation value of exp(iGx):  (-1.25011337575231881E-006,1.06611052515134425E-006)   1.0852077191500298     
     Electronic Dipole per cell (Ry a.u.)   26.751161948301473     
     Ionic Dipole per cell (Ry a.u.)   16152.258749944860     
Electronic Dipole on Cartesian axes
           1   2.7806699231239054     
           2 -0.50043965795863898     
           3   26.751161948301473     
Ionic Dipole on Cartesian axes
           1   13734.085957190531     
           2   13735.445067148443     
           3   16152.258749944860     

     total cpu time spent up to now is    12894.8 secs

     total energy              =   -7419.54065905 Ry
     estimated scf accuracy    <       0.00003034 Ry

     iteration # 15     ecut=   100.00 Ry     beta= 0.70
     Davidson diagonalization with overlap
     ethr =  2.81E-09,  avg # of iterations =  6.0

     Expectation value of exp(iGx):   (2.24187973630311127E-007,6.32008696009562301E-008)   1.0000000000000000     
     Electronic Dipole per cell (Ry a.u.)   2.7811916958127503     
     Ionic Dipole per cell (Ry a.u.)   13734.085957190531     

     Expectation value of exp(iGx):  (2.06794423638558913E-007,-1.02460459338022255E-008)   1.0000000000000000     
     Electronic Dipole per cell (Ry a.u.) -0.50108298964790876     
     Ionic Dipole per cell (Ry a.u.)   13735.445067148443     

     Expectation value of exp(iGx):  (-1.25290731951594479E-006,1.06517452855881380E-006)   1.0852077191500298     
     Electronic Dipole per cell (Ry a.u.)   26.768027984890189     
     Ionic Dipole per cell (Ry a.u.)   16152.258749944860     
Electronic Dipole on Cartesian axes
           1   2.7811916958127503     
           2 -0.50108298964790876     
           3   26.768027984890189     
Ionic Dipole on Cartesian axes
           1   13734.085957190531     
           2   13735.445067148443     
           3   16152.258749944860     

     total cpu time spent up to now is    13823.9 secs

     total energy              =   -7419.54066413 Ry
     estimated scf accuracy    <       0.00000755 Ry

     iteration # 16     ecut=   100.00 Ry     beta= 0.70
     Davidson diagonalization with overlap
     ethr =  6.99E-10,  avg # of iterations =  6.0

     Expectation value of exp(iGx):   (2.24312561168425541E-007,6.32379572618116799E-008)   1.0000000000000000     
     Electronic Dipole per cell (Ry a.u.)   2.7812738406210489     
     Ionic Dipole per cell (Ry a.u.)   13734.085957190531     

     Expectation value of exp(iGx):  (2.06817476323178325E-007,-1.02439648904772993E-008)   1.0000000000000000     
     Electronic Dipole per cell (Ry a.u.) -0.50092563216001507     
     Ionic Dipole per cell (Ry a.u.)   13735.445067148443     

     Expectation value of exp(iGx):  (-1.25206369539474611E-006,1.06603339083616661E-006)   1.0852077191500298     
     Electronic Dipole per cell (Ry a.u.)   26.760007266755313     
     Ionic Dipole per cell (Ry a.u.)   16152.258749944860     
Electronic Dipole on Cartesian axes
           1   2.7812738406210489     
           2 -0.50092563216001507     
           3   26.760007266755313     
Ionic Dipole on Cartesian axes
           1   13734.085957190531     
           2   13735.445067148443     
           3   16152.258749944860     

     total cpu time spent up to now is    14718.0 secs

     total energy              =   -7419.54066482 Ry
     estimated scf accuracy    <       0.00000298 Ry

     iteration # 17     ecut=   100.00 Ry     beta= 0.70
     Davidson diagonalization with overlap
     ethr =  2.76E-10,  avg # of iterations =  6.0

     Expectation value of exp(iGx):   (2.24297605726787658E-007,6.32355304052236990E-008)   1.0000000000000000     
     Electronic Dipole per cell (Ry a.u.)   2.7813486415176230     
     Ionic Dipole per cell (Ry a.u.)   13734.085957190531     

     Expectation value of exp(iGx):  (2.06779354033604936E-007,-1.02423151674402764E-008)   1.0000000000000000     
     Electronic Dipole per cell (Ry a.u.) -0.50093727920901154     
     Ionic Dipole per cell (Ry a.u.)   13735.445067148443     

     Expectation value of exp(iGx):  (-1.25135968266235929E-006,1.06615817542151584E-006)   1.0852077191500298     
     Electronic Dipole per cell (Ry a.u.)   26.756323081398723     
     Ionic Dipole per cell (Ry a.u.)   16152.258749944860     
Electronic Dipole on Cartesian axes
           1   2.7813486415176230     
           2 -0.50093727920901154     
           3   26.756323081398723     
Ionic Dipole on Cartesian axes
           1   13734.085957190531     
           2   13735.445067148443     
           3   16152.258749944860     

     total cpu time spent up to now is    15632.9 secs

     total energy              =   -7419.54066525 Ry
     estimated scf accuracy    <       0.00000087 Ry

     iteration # 18     ecut=   100.00 Ry     beta= 0.70
     Davidson diagonalization with overlap
     ethr =  8.07E-11,  avg # of iterations =  5.0

     Expectation value of exp(iGx):   (2.24228345663247254E-007,6.32139247347435646E-008)   1.0000000000000000     
     Electronic Dipole per cell (Ry a.u.)   2.7812616896343521     
     Ionic Dipole per cell (Ry a.u.)   13734.085957190531     

     Expectation value of exp(iGx):  (2.06686524033523470E-007,-1.02403049595162909E-008)   1.0000000000000000     
     Electronic Dipole per cell (Ry a.u.) -0.50106369993924571     
     Ionic Dipole per cell (Ry a.u.)   13735.445067148443     

     Expectation value of exp(iGx):  (-1.25154022661309666E-006,1.06537868716646069E-006)   1.0852077191500298     
     Electronic Dipole per cell (Ry a.u.)   26.761070803431554     
     Ionic Dipole per cell (Ry a.u.)   16152.258749944860     
Electronic Dipole on Cartesian axes
           1   2.7812616896343521     
           2 -0.50106369993924571     
           3   26.761070803431554     
Ionic Dipole on Cartesian axes
           1   13734.085957190531     
           2   13735.445067148443     
           3   16152.258749944860     

     total cpu time spent up to now is    16554.7 secs

     total energy              =   -7419.54066551 Ry
     estimated scf accuracy    <       0.00000052 Ry

     iteration # 19     ecut=   100.00 Ry     beta= 0.70
     Davidson diagonalization with overlap
     ethr =  4.84E-11,  avg # of iterations =  5.0

     Expectation value of exp(iGx):   (2.24187243327881639E-007,6.32030336348423803E-008)   1.0000000000000000     
     Electronic Dipole per cell (Ry a.u.)   2.7812908145317672     
     Ionic Dipole per cell (Ry a.u.)   13734.085957190531     

     Expectation value of exp(iGx):  (2.06652625842192479E-007,-1.02396283844465776E-008)   1.0000000000000000     
     Electronic Dipole per cell (Ry a.u.) -0.50111270096965455     
     Ionic Dipole per cell (Ry a.u.)   13735.445067148443     

     Expectation value of exp(iGx):  (-1.25145313553753615E-006,1.06501852967813304E-006)   1.0852077191500298     
     Electronic Dipole per cell (Ry a.u.)   26.762526582145178     
     Ionic Dipole per cell (Ry a.u.)   16152.258749944860     
Electronic Dipole on Cartesian axes
           1   2.7812908145317672     
           2 -0.50111270096965455     
           3   26.762526582145178     
Ionic Dipole on Cartesian axes
           1   13734.085957190531     
           2   13735.445067148443     
           3   16152.258749944860     

     total cpu time spent up to now is    17490.4 secs

     total energy              =   -7419.54066542 Ry
     estimated scf accuracy    <       0.00000087 Ry

     iteration # 20     ecut=   100.00 Ry     beta= 0.70
     Davidson diagonalization with overlap
     ethr =  4.84E-11,  avg # of iterations =  5.0

     Expectation value of exp(iGx):   (2.24202765711192931E-007,6.32071742642315050E-008)   1.0000000000000000     
     Electronic Dipole per cell (Ry a.u.)   2.7812809677307970     
     Ionic Dipole per cell (Ry a.u.)   13734.085957190531     

     Expectation value of exp(iGx):  (2.06670101706398882E-007,-1.02403334849416830E-008)   1.0000000000000000     
     Electronic Dipole per cell (Ry a.u.) -0.50110484380790810     
     Ionic Dipole per cell (Ry a.u.)   13735.445067148443     

     Expectation value of exp(iGx):  (-1.25153701570337226E-006,1.06509416886664133E-006)   1.0852077191500298     
     Electronic Dipole per cell (Ry a.u.)   26.762504924098483     
     Ionic Dipole per cell (Ry a.u.)   16152.258749944860     
Electronic Dipole on Cartesian axes
           1   2.7812809677307970     
           2 -0.50110484380790810     
           3   26.762504924098483     
Ionic Dipole on Cartesian axes
           1   13734.085957190531     
           2   13735.445067148443     
           3   16152.258749944860     

     total cpu time spent up to now is    18379.6 secs

     total energy              =   -7419.54066544 Ry
     estimated scf accuracy    <       0.00000019 Ry

     iteration # 21     ecut=   100.00 Ry     beta= 0.70
     Davidson diagonalization with overlap
     ethr =  1.76E-11,  avg # of iterations =  5.0

     Expectation value of exp(iGx):   (2.24237590422970873E-007,6.32173840879074280E-008)   1.0000000000000000     
     Electronic Dipole per cell (Ry a.u.)   2.7812973610862111     
     Ionic Dipole per cell (Ry a.u.)   13734.085957190531     

     Expectation value of exp(iGx):  (2.06718195055568119E-007,-1.02414975362385248E-008)   1.0000000000000000     
     Electronic Dipole per cell (Ry a.u.) -0.50104530720187967     
     Ionic Dipole per cell (Ry a.u.)   13735.445067148443     

     Expectation value of exp(iGx):  (-1.25170386884195442E-006,1.06537144863955495E-006)   1.0852077191500298     
     Electronic Dipole per cell (Ry a.u.)   26.761816465190982     
     Ionic Dipole per cell (Ry a.u.)   16152.258749944860     
Electronic Dipole on Cartesian axes
           1   2.7812973610862111     
           2 -0.50104530720187967     
           3   26.761816465190982     
Ionic Dipole on Cartesian axes
           1   13734.085957190531     
           2   13735.445067148443     
           3   16152.258749944860     

     total cpu time spent up to now is    19325.8 secs

     total energy              =   -7419.54066550 Ry
     estimated scf accuracy    <       0.00000002 Ry

     iteration # 22     ecut=   100.00 Ry     beta= 0.70
     Davidson diagonalization with overlap
     ethr =  1.40E-12,  avg # of iterations =  5.0

     Expectation value of exp(iGx):   (2.24245778841904451E-007,6.32189745433490339E-008)   1.0000000000000000     
     Electronic Dipole per cell (Ry a.u.)   2.7812673380466926     
     Ionic Dipole per cell (Ry a.u.)   13734.085957190531     

     Expectation value of exp(iGx):  (2.06727874696361049E-007,-1.02418118738332444E-008)   1.0000000000000000     
     Electronic Dipole per cell (Ry a.u.) -0.50103723753751905     
     Ionic Dipole per cell (Ry a.u.)   13735.445067148443     

     Expectation value of exp(iGx):  (-1.25176906064116204E-006,1.06536939500794733E-006)   1.0852077191500298     
     Electronic Dipole per cell (Ry a.u.)   26.762109267740644     
     Ionic Dipole per cell (Ry a.u.)   16152.258749944860     
Electronic Dipole on Cartesian axes
           1   2.7812673380466926     
           2 -0.50103723753751905     
           3   26.762109267740644     
Ionic Dipole on Cartesian axes
           1   13734.085957190531     
           2   13735.445067148443     
           3   16152.258749944860     

     total cpu time spent up to now is    20232.2 secs

     End of self-consistent calculation

          k = 0.0000 0.0000 0.0000 (208381 PWs)   bands (ev):

   -46.6934 -46.6797 -46.6784 -46.6592 -46.6570 -46.6542 -46.6326 -46.6243
   -46.6080 -46.5962 -46.5544 -46.5460 -46.5447 -46.5441 -46.5420 -46.5372
   -46.5319 -46.5248 -46.5153 -46.5149 -46.5064 -46.5060 -46.5046 -46.5023
   -46.5007 -46.4723 -46.4636 -23.2289 -23.2171 -23.2019 -23.2008 -23.1944
   -23.1865 -23.1745 -23.1612 -23.1489 -23.1109 -23.0950 -23.0875 -23.0777
   -23.0771 -23.0744 -23.0719 -23.0626 -23.0584 -23.0552 -23.0546 -23.0461
   -23.0443 -23.0324 -23.0294 -23.0110 -23.0019 -23.0010 -22.9412 -22.9308
   -22.9295 -22.9231 -22.9205 -22.9185 -22.9142 -22.9066 -22.9037 -22.9016
   -22.8969 -22.8842 -22.8801 -22.8776 -22.8719 -22.8508 -22.8495 -22.8483
   -22.8460 -22.8220 -22.8133 -22.8070 -22.8050 -22.8007 -22.7975 -22.7957
   -22.7844 -22.7830 -22.7798 -22.7793 -22.7788 -22.7765 -22.7731 -22.7723
   -22.7720 -22.7695 -22.7649 -22.7620 -22.7620 -22.7588 -22.7554 -22.7500
   -22.7463 -22.7459 -22.7359 -22.7325 -22.7322 -22.7243 -22.7227 -22.7223
   -22.7158 -22.7146 -22.6962 -22.6857 -15.3344 -15.2989 -15.2922 -15.2674
   -15.2546 -15.2453 -15.2361 -15.2349 -15.2269 -15.2226 -15.2135 -15.2052
   -15.1942 -15.1827 -15.1706 -15.1693 -15.1566 -15.1489 -14.9969 -14.9690
   -14.9608 -14.9283 -14.9125 -14.8983 -14.8947 -14.8816 -14.8565  -7.3582
    -7.3423  -7.3324  -7.2523  -7.2105  -7.1941  -7.1473  -7.1356  -7.1321
    -7.1238  -7.1154  -7.0938  -7.0875  -7.0848  -7.0709  -7.0038  -6.9996
    -6.9793  -6.9760  -6.9111  -6.9041  -6.9038  -6.8957  -6.8925  -6.8889
    -6.8750  -6.8692  -6.7284  -6.7275  -6.7221  -6.7119  -6.7056  -6.6989
    -6.6923  -6.6175  -6.6060  -6.5989  -6.5905  -6.5842  -6.5836  -6.5449
    -6.5302  -6.5113  -6.5102  -6.4985  -6.4908  -6.4847  -6.4814  -6.4806
    -6.4617  -6.4576  -6.4524  -6.4255  -6.4163  -6.3455  -6.3260  -6.2693
    -6.2565  -6.2521  -6.2464  -6.2434  -6.2327  -6.2171  -6.2066  -6.1862
    -6.1733  -6.1653  -6.1535  -6.1409  -6.1348  -6.1072  -6.0967  -6.0493
    -6.0445  -6.0381  -6.0342  -6.0244  -6.0090  -5.9761  -5.9700  -5.9536
    -0.9309  -0.9279  -0.9232  -0.9176  -0.9015  -0.8986  -0.8868  -0.8759
    -0.6982  -0.6942  -0.6913  -0.6872  -0.6796  -0.6776  -0.6554  -0.6526
    -0.6490  -0.6394  -0.6285  -0.6253  -0.5606  -0.5522  -0.5249  -0.5179
    -0.5081  -0.4930  -0.4757  -0.4735  -0.4539  -0.4395  -0.4355  -0.4320
    -0.4254  -0.4192  -0.4154  -0.4135  -0.4127  -0.4092  -0.4024  -0.4021
    -0.3968  -0.3873  -0.3466  -0.3379  -0.3266  -0.3198  -0.3182  -0.3157
    -0.3105  -0.2526  -0.2496  -0.2459  -0.2435  -0.2410  -0.2231  -0.2181
    -0.1431  -0.1392  -0.1338  -0.1280  -0.1260  -0.1214  -0.1056  -0.0992
    -0.0975  -0.0903  -0.0854  -0.0844  -0.0794  -0.0698  -0.0653  -0.0631
    -0.0589  -0.0490  -0.0321  -0.0273  -0.0199   0.0292   0.0338   0.0752
     0.0830   5.6501   5.6567   5.6623   5.6806   5.7498   5.7651   5.7695
     5.7736   5.7811   5.7898   5.8354   5.8413   5.9424   5.9491   5.9502
     5.9544   5.9556   5.9642   5.9806   5.9899   6.0357   6.0473   6.0714
     6.0806   6.0892   6.0919   6.0946   6.1068   6.1145   6.1356   6.1419
     6.2892   6.2973   6.3099   6.3166   6.3245   6.3299   6.3322   6.3483
     6.3538   6.3603   6.3621   6.3688   6.3702   6.3713   6.3747   6.3807
     6.3870   6.4359   6.4388   6.4443   6.4547   6.4789   6.4807   6.4927
     6.5000   6.5038   6.5108   6.5182   6.5298   6.5312   6.5388   6.5891
     6.5977   6.6370   6.6426   6.6761   6.6842   6.6860   6.6961   6.7112
     6.7339   6.7428   6.7449   6.7578   6.7787   6.7915   6.8963   6.9043
     6.9323   6.9332   6.9431   6.9492   6.9685   6.9710   6.9993   7.0042
     7.0064   7.0119   7.0142   7.0223   7.0277   7.0306   7.0432   7.0463
     7.0508   7.0618   7.0639   7.1160   7.1270   7.1364   7.1516   7.1602
     7.1680   7.1836   7.1993   7.2075   7.2145   7.2160   7.2262   7.2284
     7.2373   7.2438   7.2573   7.3520   7.3567   7.3634   7.3771   7.3822
     7.3847   7.3887   7.3891   7.3960   7.4071   7.4278   7.4316   7.4342
     7.4413   7.4460   7.4496   7.4574   7.4641   7.4706   7.5015   7.5120
     7.5259   7.5323   7.5385   7.5442   7.5488   7.5584   7.5639   7.5652
     7.5734   7.6098   7.7266   7.7324   7.8336   7.8489   7.9348   7.9734
     7.9828   7.9875   7.9960   8.0836   8.0982   8.1071   8.1893   8.1941
     8.2037   8.2288   8.2367   8.2415   8.2498   8.2543   8.2561   8.2601
     8.3084   8.3154   8.3203   8.3612   8.3651   8.3669   8.3700   8.3709
     8.3744   8.3794   8.3834   8.3846   8.3878   8.3987   8.4362   8.4492
     8.4759   8.4983   8.5480   8.5684   8.5707   8.5775   8.5866   8.5958
     8.6019   8.6078   8.6810   8.6872   8.6923   8.6962   8.7572   8.7670
     8.7700   8.7834   8.7880   8.7937   8.8006   8.8041   8.8139   8.8234
     8.8273   8.8679   8.8759   8.8840   8.8884   8.9200   8.9231   8.9401
     8.9609   8.9938   9.0090   9.0436   9.0880   9.0950   9.1010   9.1067
     9.1297   9.1411   9.1792   9.1868   9.1945   9.3116   9.3207   9.3283
     9.3354   9.3362   9.3603   9.3736   9.3909   9.4247   9.5828   9.6027
     9.6174   9.6336   9.6673   9.6978

     highest occupied level (ev):     9.6978

!    total energy              =   -7419.54066550 Ry
     estimated scf accuracy    <          7.4E-09 Ry

     The total energy is the sum of the following terms:
     one-electron contribution =   -2202.29181951 Ry
     hartree contribution      =    1722.05513181 Ry
     xc contribution           =   -1515.64223698 Ry
     ewald contribution        =   -5422.28805409 Ry

     convergence has been achieved in  22 iterations

     Forces acting on atoms (cartesian axes, Ry/au):

     atom    1 type  1   force =     0.00091112    0.00173863   -0.05605240
     atom    2 type  1   force =     0.00395008   -0.00080566   -0.05256759
     atom    3 type  1   force =    -0.00211443   -0.00110741   -0.06081925
     atom    4 type  1   force =     0.00061587    0.00295616   -0.05559915
     atom    5 type  1   force =     0.00076071   -0.00037676   -0.05621319
     atom    6 type  1   force =    -0.00189943    0.00104864   -0.05668976
     atom    7 type  1   force =     0.00059703    0.00161936   -0.05641671
     atom    8 type  1   force =     0.00295993    0.00289088   -0.05488542
     atom    9 type  1   force =     0.00181453   -0.00190183   -0.06090564
     atom   10 type  1   force =     0.00236707    0.00027966    0.01041578
     atom   11 type  1   force =     0.00291240   -0.00201442    0.01032152
     atom   12 type  1   force =     0.00051404    0.00098522    0.00789925
     atom   13 type  1   force =     0.00086250    0.00010397    0.01016767
     atom   14 type  1   force =    -0.00081179   -0.00394484    0.00939922
     atom   15 type  1   force =     0.00071990    0.00220531    0.01209470
     atom   16 type  1   force =     0.00109191    0.00263826    0.01111247
     atom   17 type  1   force =     0.00072397    0.00590765    0.01253111
     atom   18 type  1   force =    -0.00128440   -0.00305336    0.00817321
     atom   19 type  1   force =    -0.00212098    0.00192494   -0.05235827
     atom   20 type  1   force =    -0.00049715    0.00203812   -0.05568710
     atom   21 type  1   force =     0.00031659    0.00197262   -0.06029475
     atom   22 type  1   force =    -0.00065912    0.00268155   -0.05711434
     atom   23 type  1   force =    -0.00121104   -0.00100818   -0.05723536
     atom   24 type  1   force =     0.00126574    0.00378635   -0.05695988
     atom   25 type  1   force =     0.00211377   -0.00217771   -0.05396237
     atom   26 type  1   force =     0.00460059    0.00310550   -0.05926433
     atom   27 type  1   force =    -0.00066779   -0.00144153   -0.05962564
     atom   28 type  2   force =    -0.00811567   -0.00517821   -0.05723849
     atom   29 type  2   force =     0.00541724    0.00237874   -0.06880479
     atom   30 type  2   force =     0.00138034   -0.00252613   -0.05880497
     atom   31 type  2   force =    -0.00759285   -0.00502412   -0.07208253
     atom   32 type  2   force =     0.00102251   -0.00370820   -0.06402589
     atom   33 type  2   force =    -0.00187546    0.00083061   -0.06567816
     atom   34 type  2   force =    -0.00398400    0.00671279   -0.07338208
     atom   35 type  2   force =     0.00480460    0.00183918   -0.05348437
     atom   36 type  2   force =    -0.00099757    0.00014440   -0.06561949
     atom   37 type  2   force =     0.03292934    0.00041536    0.12401531
     atom   38 type  2   force =     0.02319416    0.00049257    0.12786186
     atom   39 type  2   force =     0.03182697   -0.00010601    0.13827718
     atom   40 type  2   force =     0.03624816   -0.00353827    0.13150666
     atom   41 type  2   force =     0.02880975   -0.00374802    0.11187769
     atom   42 type  2   force =     0.03589433    0.00237466    0.12766829
     atom   43 type  2   force =     0.02540787   -0.00187378    0.12479766
     atom   44 type  2   force =     0.02737995    0.00303404    0.13566260
     atom   45 type  2   force =     0.03172142   -0.00041618    0.13957425
     atom   46 type  2   force =    -0.02455001    0.00532651    0.12211183
     atom   47 type  2   force =    -0.02961259    0.00610913    0.12532040
     atom   48 type  2   force =    -0.02995988    0.00622669    0.13542203
     atom   49 type  2   force =    -0.02526873   -0.00767269    0.14171462
     atom   50 type  2   force =    -0.02705082   -0.00592226    0.12932809
     atom   51 type  2   force =    -0.03169364   -0.00387603    0.13080675
     atom   52 type  2   force =    -0.02018923    0.00159775    0.11920566
     atom   53 type  2   force =    -0.02928497   -0.00485286    0.14386166
     atom   54 type  2   force =    -0.02957224   -0.00586343    0.12163592
     atom   55 type  3   force =     0.00317593   -0.00204964    0.03102111
     atom   56 type  3   force =    -0.01667138    0.00277165    0.03250090
     atom   57 type  3   force =     0.00008376    0.00246721    0.04545790
     atom   58 type  3   force =     0.00178250    0.00692480    0.02782387
     atom   59 type  3   force =    -0.01997681    0.00313853    0.03235795
     atom   60 type  3   force =    -0.00143128   -0.00199922    0.05961817
     atom   61 type  3   force =     0.00230887    0.00163703    0.02945329
     atom   62 type  3   force =    -0.01387183   -0.00011810    0.03257059
     atom   63 type  3   force =     0.00191785    0.00131062    0.04883898
     atom   64 type  3   force =     0.00518500   -0.00444853    0.02931587
     atom   65 type  3   force =    -0.02232545    0.00153166    0.03164043
     atom   66 type  3   force =     0.00059316    0.00203264    0.05840348
     atom   67 type  3   force =     0.00077061   -0.00259484    0.02838212
     atom   68 type  3   force =    -0.02508427   -0.00038119    0.03601068
     atom   69 type  3   force =     0.00112431    0.00114934    0.04946582
     atom   70 type  3   force =     0.00275693   -0.00068433    0.02939197
     atom   71 type  3   force =    -0.01875590   -0.00025791    0.03388711
     atom   72 type  3   force =     0.00049113    0.00159079    0.05082277
     atom   73 type  3   force =     0.00331285   -0.00024003    0.02722091
     atom   74 type  3   force =    -0.01854663   -0.00141244    0.03375380
     atom   75 type  3   force =     0.00159913   -0.00136454    0.06249589
     atom   76 type  3   force =    -0.00458993   -0.00372818    0.03014811
     atom   77 type  3   force =    -0.01856331   -0.00089766    0.03190628
     atom   78 type  3   force =    -0.00172210    0.00045533    0.04252341
     atom   79 type  3   force =     0.00007512   -0.00185728    0.02861357
     atom   80 type  3   force =    -0.01748300   -0.00096472    0.03361901
     atom   81 type  3   force =     0.00064281   -0.00096135    0.05205231
     atom   82 type  3   force =    -0.02092208   -0.00544920   -0.05743032
     atom   83 type  3   force =    -0.00478580   -0.00038981   -0.05450623
     atom   84 type  3   force =     0.00898438   -0.00113072   -0.04060133
     atom   85 type  3   force =    -0.01862375    0.00157294   -0.05398893
     atom   86 type  3   force =     0.00179387    0.00138443   -0.05243530
     atom   87 type  3   force =     0.00683746    0.00141152   -0.03734350
     atom   88 type  3   force =    -0.01863100    0.00157225   -0.05745010
     atom   89 type  3   force =    -0.00159225   -0.00311494   -0.05626299
     atom   90 type  3   force =     0.00932823   -0.00023179   -0.03188205
     atom   91 type  3   force =    -0.01575072    0.00265400   -0.05579131
     atom   92 type  3   force =     0.00279945    0.00500521   -0.05861558
     atom   93 type  3   force =     0.00856666    0.00094823   -0.02072454
     atom   94 type  3   force =    -0.01642885    0.00184125   -0.05624542
     atom   95 type  3   force =     0.00042272    0.00177826   -0.05371857
     atom   96 type  3   force =     0.00864710   -0.00097536   -0.03425032
     atom   97 type  3   force =    -0.01975659   -0.00068316   -0.05689145
     atom   98 type  3   force =    -0.00357402   -0.00147318   -0.05487286
     atom   99 type  3   force =     0.00682272    0.00037726   -0.03592708
     atom  100 type  3   force =    -0.01613894   -0.00256378   -0.05384734
     atom  101 type  3   force =     0.00318482   -0.00048298   -0.05663246
     atom  102 type  3   force =     0.00924594   -0.00135228   -0.04059638
     atom  103 type  3   force =    -0.01480733   -0.00407301   -0.05258186
     atom  104 type  3   force =    -0.00040166   -0.00031450   -0.05984699
     atom  105 type  3   force =     0.00762245   -0.00020872   -0.04408333
     atom  106 type  3   force =    -0.01893269    0.00207250   -0.05634408
     atom  107 type  3   force =     0.00016546    0.00251796   -0.05766922
     atom  108 type  3   force =     0.00876991    0.00072873   -0.03257110
     atom  109 type  3   force =     0.01688530    0.00098918   -0.05360448
     atom  110 type  3   force =     0.01616978    0.00280843    0.03482215
     atom  111 type  3   force =    -0.00769649   -0.00151911   -0.03402156
     atom  112 type  3   force =     0.01831320   -0.00162648   -0.05444127
     atom  113 type  3   force =     0.01197369   -0.00175628    0.03130260
     atom  114 type  3   force =    -0.00916811   -0.00225469   -0.03966372
     atom  115 type  3   force =     0.01689865   -0.00065830   -0.05429953
     atom  116 type  3   force =     0.01534029   -0.00160132    0.03373278
     atom  117 type  3   force =    -0.01113785   -0.00169635   -0.03462070
     atom  118 type  3   force =     0.01711642    0.00530561   -0.05790149
     atom  119 type  3   force =     0.01268338    0.00112126    0.02919692
     atom  120 type  3   force =    -0.00860772    0.00313702   -0.03406185
     atom  121 type  3   force =     0.01777121    0.00030244   -0.05921120
     atom  122 type  3   force =     0.01987466   -0.00046107    0.03100894
     atom  123 type  3   force =    -0.00964601    0.00184578   -0.03670266
     atom  124 type  3   force =     0.01867780   -0.00100027   -0.05588616
     atom  125 type  3   force =     0.01954370    0.00074634    0.03442949
     atom  126 type  3   force =    -0.00762603    0.00030318   -0.04171209
     atom  127 type  3   force =     0.01453209   -0.00794804   -0.05483712
     atom  128 type  3   force =     0.00629276   -0.00256128    0.03017159
     atom  129 type  3   force =    -0.01098080    0.00074874   -0.04127644
     atom  130 type  3   force =     0.01749017   -0.00285750   -0.05753449
     atom  131 type  3   force =     0.01749561    0.00014153    0.03142810
     atom  132 type  3   force =    -0.00625476    0.00306601   -0.02342729
     atom  133 type  3   force =     0.01657606   -0.00054609   -0.05736414
     atom  134 type  3   force =     0.01152005    0.00076627    0.02948513
     atom  135 type  3   force =    -0.00780126   -0.00049315   -0.02218864

     Total force =     0.766482     Total SCF correction =     0.000296


     Computing stress (Cartesian axis) and pressure

          total   stress  (Ry/bohr**3)                   (kbar)     P=       48.88
   0.00021821   0.00000028   0.00000042           32.10        0.04        0.06
   0.00000028   0.00012477  -0.00000201            0.04       18.35       -0.29
   0.00000042  -0.00000201   0.00065394            0.06       -0.29       96.20


     Writing all to output data dir /n/holyscratch01/kozinsky_lab/sfalletta/QE/BaTiO3/BaTiO3-wall-Ex-0/BaTiO3.save/

     init_run     :     12.01s CPU     12.51s WALL (       1 calls)
     electrons    :  18832.67s CPU  20220.41s WALL (       1 calls)
     forces       :      8.07s CPU      8.37s WALL (       1 calls)
     stress       :    121.09s CPU    122.05s WALL (       1 calls)

     Called by init_run:
     wfcinit      :      4.42s CPU      4.58s WALL (       1 calls)
     potinit      :      1.72s CPU      1.80s WALL (       1 calls)
     hinit0       :      1.70s CPU      1.74s WALL (       1 calls)

     Called by electrons:
     c_bands      :   1431.11s CPU   1444.37s WALL (      22 calls)
     sum_band     :     25.94s CPU     26.28s WALL (      22 calls)
     v_of_rho     :      9.52s CPU     12.18s WALL (      23 calls)
     mix_rho      :      1.75s CPU      1.88s WALL (      22 calls)

     Called by c_bands:
     init_us_2    :      2.25s CPU      2.32s WALL (      45 calls)
     init_us_2:cp :      2.25s CPU      2.32s WALL (      45 calls)
     cegterg      :   1424.25s CPU   1437.21s WALL (      22 calls)

     Called by *egterg:
     cdiaghg      :     17.32s CPU     17.49s WALL (     139 calls)
     h_psi        :   1315.82s CPU   1326.86s WALL (     140 calls)
     g_psi        :      0.55s CPU      0.56s WALL (     117 calls)

     Called by h_psi:
     h_psi:calbec :     41.60s CPU     41.99s WALL (     140 calls)
     vloc_psi     :     77.05s CPU     78.29s WALL (     140 calls)
     add_vuspsi   :     35.81s CPU     36.32s WALL (     140 calls)

     General routines
     calbec       :     44.71s CPU     45.20s WALL (     145 calls)
     fft          :     10.42s CPU     13.02s WALL (     298 calls)
     ffts         :      0.20s CPU      0.22s WALL (      45 calls)
     fftw         :     65.22s CPU     66.31s WALL (   86080 calls)
     interpolate  :      0.38s CPU      0.39s WALL (      23 calls)
     davcio       :      0.00s CPU      0.09s WALL (       2 calls)

     Parallel routines

     Electric-field routines
     h_epsi_set   :  10367.60s CPU  10829.69s WALL (      22 calls)
     h_epsi_apply :   1160.37s CPU   1168.28s WALL (     139 calls)
     c_phase_fiel :   6995.45s CPU   7904.17s WALL (      66 calls)

     PWSCF        :      5h16m CPU      5h39m WALL


   This run was terminated on:  19:29:19  31Mar2024            

=------------------------------------------------------------------------------=
   JOB DONE.
=------------------------------------------------------------------------------=
