
     Program PWSCF v.7.1 starts on  3Feb2024 at 20: 5:33 

     This program is part of the open-source Quantum ESPRESSO suite
     for quantum simulation of materials; please cite
         "P. Giannozzi et al., J. Phys.:Condens. Matter 21 395502 (2009);
         "P. Giannozzi et al., J. Phys.:Condens. Matter 29 465901 (2017);
         "P. Giannozzi et al., J. Chem. Phys. 152 154105 (2020);
          URL http://www.quantum-espresso.org", 
     in publications or presentations arising from this work. More details at
     http://www.quantum-espresso.org/quote

     Parallel version (MPI), running on   112 processors

     MPI processes distributed on     1 nodes
     996276 MiB available memory on the printing compute node when the environment starts

     Reading input from /n/holyscratch01/kozinsky_lab/sfalletta/QE/SiO2/SiO2-T300-Ey-0/SiO2-scf.inp

     Current dimensions of program PWSCF are:
     Max number of different atomic species (ntypx) = 10
     Max number of k-points (npk) =  40000
     Max angular momentum in pseudopotentials (lmaxx) =  4

     IMPORTANT: XC functional enforced from input :
     Exchange-correlation= PBE
                           (   1   4   3   4   0   0   0)
     Any further DFT definition will be discarded
     Please, verify this is what you really want


     R & G space division:  proc/nbgrp/npool/nimage =     112
     Subspace diagonalization in iterative solution of the eigenvalue problem:
     one sub-group per band group will be used
     scalapack distributed-memory algorithm (size of sub-group: 10* 10 procs)


     Parallelization info
     --------------------
     sticks:   dense  smooth     PW     G-vecs:    dense   smooth      PW
     Min         174      87     23                21712     7675    1045
     Max         175      88     24                21721     7680    1049
     Sum       19575    9769   2585              2432309   859779  117343

     Using Slab Decomposition



     bravais-lattice index     =           14
     lattice parameter (alat)  =      18.8417  a.u.
     unit-cell volume          =    6365.9664 (a.u.)^3
     number of atoms/cell      =           72
     number of atomic types    =            2
     number of electrons       =       384.00
     number of Kohn-Sham states=          220
     kinetic-energy cutoff     =     100.0000  Ry
     charge density cutoff     =     800.0000  Ry
     scf convergence threshold =      1.0E-08
     mixing beta               =       0.7000
     number of iterations used =            8  plain     mixing
     Exchange-correlation= PBE
                           (   1   4   3   4   0   0   0)

     Using Berry phase electric field
     In a.u.(Ry)  cartesian system of reference
        0.0000000000
        0.0001000000
        0.0000000000
     In a.u.(Ry)  crystal system of reference
        0.0000000000
        0.0001000000
        0.0000000000
     Number of iterative cycles:   1


     celldm(1)=  18.841714  celldm(2)=   0.866025  celldm(3)=   1.098936
     celldm(4)=   0.000000  celldm(5)=   0.000000  celldm(6)=   0.000000

     crystal axes: (cart. coord. in units of alat)
               a(1) = (   1.000000   0.000000   0.000000 )  
               a(2) = (   0.000000   0.866025   0.000000 )  
               a(3) = (   0.000000   0.000000   1.098936 )  

     reciprocal axes: (cart. coord. in units 2 pi/alat)
               b(1) = (  1.000000  0.000000  0.000000 )  
               b(2) = (  0.000000  1.154701  0.000000 )  
               b(3) = (  0.000000  0.000000  0.909971 )  


     PseudoPot. # 1 for Si read from file:
     /n/holyscratch01/kozinsky_lab/sfalletta/QE/Inputs/Si.upf
     MD5 check sum: 1e49d63d1c5892e9c2567cdfc797a7ef
     Pseudo is Norm-conserving + core correction, Zval =  4.0
     Generated using ONCVPSP code by D. R. Hamann
     Using radial grid of 1510 points,  6 beta functions with: 
                l(1) =   0
                l(2) =   0
                l(3) =   1
                l(4) =   1
                l(5) =   2
                l(6) =   2

     PseudoPot. # 2 for O  read from file:
     /n/holyscratch01/kozinsky_lab/sfalletta/QE/Inputs/O.upf
     MD5 check sum: e161f86cb4953fdc9aae83e76c3f29b8
     Pseudo is Norm-conserving + core correction, Zval =  6.0
     Generated using ONCVPSP code by D. R. Hamann
     Using radial grid of  936 points,  5 beta functions with: 
                l(1) =   0
                l(2) =   0
                l(3) =   1
                l(4) =   1
                l(5) =   2

     atomic species   valence    mass     pseudopotential
        Si             4.00    28.08550     Si( 1.00)
        O              6.00    15.99900     O ( 1.00)

     No symmetry found



   Cartesian axes

     site n.     atom                  positions (alat units)
         1           Si  tau(   1) = (   0.8813035   0.2172857   0.4659607  )
         2           Si  tau(   2) = (   0.1343238   0.2333319   0.2914988  )
         3           Si  tau(   3) = (   0.2383927   0.8564063   0.1010430  )
         4           O   tau(   4) = (   0.9214375   0.3207027   0.0064787  )
         5           O   tau(   5) = (   0.1079934   0.3627493   0.2060788  )
         6           O   tau(   6) = (   0.0227171   0.1991313   0.4044137  )
         7           O   tau(   7) = (   0.1229554   0.0989275   0.1822627  )
         8           O   tau(   8) = (   0.2818896   0.2416242   0.3523658  )
         9           O   tau(   9) = (   0.3337240   0.0563689   0.5145374  )
        10           Si  tau(  10) = (   0.8922758   0.1913595   1.0153044  )
        11           Si  tau(  11) = (   0.1336428   0.2131676   0.8251846  )
        12           Si  tau(  12) = (   0.2355664   0.0005642   0.6377606  )
        13           O   tau(  13) = (   0.8749819   0.3387718   0.5661873  )
        14           O   tau(  14) = (   0.0756980   0.3505253   0.7685320  )
        15           O   tau(  15) = (   0.0396649   0.1533708   0.9327688  )
        16           O   tau(  16) = (   0.1401811   0.1215162   0.7044517  )
        17           O   tau(  17) = (   0.2767304   0.2412150   0.8880132  )
        18           O   tau(  18) = (   0.3330279   0.0777264   0.0060730  )
        19           Si  tau(  19) = (   0.8785514   0.6495924   0.2801615  )
        20           Si  tau(  20) = (   0.0142748   0.4209203   0.0814573  )
        21           O   tau(  21) = (   0.8288985   0.7898607   0.2103483  )
        22           O   tau(  22) = (   0.9248525   0.5370326   0.1716546  )
        23           O   tau(  23) = (   0.0019080   0.6754605   0.3723134  )
        24           O   tau(  24) = (   0.0908774   0.5120030   0.5511350  )
        25           Si  tau(  25) = (   0.8834879   0.6569250   0.8315944  )
        26           Si  tau(  26) = (   0.9689181   0.4231548   0.6600762  )
        27           O   tau(  27) = (   0.8406771   0.7849172   0.7408457  )
        28           O   tau(  28) = (   0.8828611   0.5282237   0.7349012  )
        29           O   tau(  29) = (   0.0284158   0.6778976   0.9082347  )
        30           O   tau(  30) = (   0.1008464   0.5006897   1.0854004  )
        31           Si  tau(  31) = (   0.3903945   0.1959841   0.4544257  )
        32           Si  tau(  32) = (   0.6350888   0.2374650   0.2641304  )
        33           Si  tau(  33) = (   0.7426821   0.8580562   0.0964391  )
        34           O   tau(  34) = (   0.3964664   0.3277193   0.0047873  )
        35           O   tau(  35) = (   0.5993086   0.3639969   0.1831634  )
        36           O   tau(  36) = (   0.5337991   0.1747186   0.3725310  )
        37           O   tau(  37) = (   0.6430562   0.1192044   0.1607756  )
        38           O   tau(  38) = (   0.7887605   0.2740375   0.3430855  )
        39           O   tau(  39) = (   0.8278043   0.0860395   0.5278145  )
        40           Si  tau(  40) = (   0.3766000   0.2038943   1.0073310  )
        41           Si  tau(  41) = (   0.6320258   0.2494081   0.8224716  )
        42           Si  tau(  42) = (   0.7352372   0.0055785   0.6452256  )
        43           O   tau(  43) = (   0.4035823   0.3025383   0.5736873  )
        44           O   tau(  44) = (   0.5722260   0.3934746   0.7657649  )
        45           O   tau(  45) = (   0.5240344   0.1808887   0.9320637  )
        46           O   tau(  46) = (   0.6461664   0.1319529   0.7094343  )
        47           O   tau(  47) = (   0.7831219   0.2395221   0.8890653  )
        48           O   tau(  48) = (   0.8376001   0.0555046   1.0794229  )
        49           Si  tau(  49) = (   0.1293853   0.6365260   0.4717336  )
        50           Si  tau(  50) = (   0.3723164   0.6453710   0.2711039  )
        51           Si  tau(  51) = (   0.4873104   0.4334752   0.0847911  )
        52           O   tau(  52) = (   0.1490692   0.7537867   0.0162825  )
        53           O   tau(  53) = (   0.3286530   0.7825382   0.2046074  )
        54           O   tau(  54) = (   0.2587255   0.6093160   0.3838533  )
        55           O   tau(  55) = (   0.3958215   0.5194198   0.1762461  )
        56           O   tau(  56) = (   0.5090152   0.6942657   0.3312086  )
        57           O   tau(  57) = (   0.5597162   0.5079511   0.4994732  )
        58           Si  tau(  58) = (   0.1410025   0.6363916   1.0049239  )
        59           Si  tau(  59) = (   0.3787302   0.6676836   0.8184427  )
        60           Si  tau(  60) = (   0.4745499   0.4452287   0.6270602  )
        61           O   tau(  61) = (   0.1421809   0.7626708   0.5703254  )
        62           O   tau(  62) = (   0.3286902   0.8031147   0.7565298  )
        63           O   tau(  63) = (   0.2749111   0.6119889   0.9202941  )
        64           O   tau(  64) = (   0.3804002   0.5668101   0.6818974  )
        65           O   tau(  65) = (   0.5207367   0.6862050   0.8906139  )
        66           O   tau(  66) = (   0.5723724   0.5167219   1.0749096  )
        67           Si  tau(  67) = (   0.6146768   0.6408628   0.4341361  )
        68           O   tau(  68) = (   0.6369814   0.7597964   0.0283921  )
        69           O   tau(  69) = (   0.7680506   0.6118465   0.3794012  )
        70           Si  tau(  70) = (   0.6210997   0.6519002   1.0005310  )
        71           O   tau(  71) = (   0.6322835   0.7869101   0.5598266  )
        72           O   tau(  72) = (   0.7704657   0.6311612   0.9433399  )

     number of k points=     8
                       cart. coord. in units 2pi/alat
        k(    1) = (   0.0000000   0.0000000   0.0000000), wk =   0.2500000
        k(    2) = (   0.0000000   0.0000000   0.4549855), wk =   0.2500000
        k(    3) = (   0.0000000   0.5773503   0.0000000), wk =   0.2500000
        k(    4) = (   0.0000000   0.5773503   0.4549855), wk =   0.2500000
        k(    5) = (   0.5000000   0.0000000   0.0000000), wk =   0.2500000
        k(    6) = (   0.5000000   0.0000000   0.4549855), wk =   0.2500000
        k(    7) = (   0.5000000   0.5773503   0.0000000), wk =   0.2500000
        k(    8) = (   0.5000000   0.5773503   0.4549855), wk =   0.2500000

     Dense  grid:  2432309 G-vectors     FFT dimensions: ( 180, 150, 192)

     Smooth grid:   859779 G-vectors     FFT dimensions: ( 120, 108, 135)

     Estimated max dynamical RAM per process >      78.77 MB

     Estimated total dynamical RAM >       8.62 GB

     Initial potential from superposition of free atoms

     starting charge     383.9851, renormalised to     384.0000
     Starting wfcs are  288 randomized atomic wfcs

     total cpu time spent up to now is       27.6 secs

     Self-consistent Calculation

     iteration #  1     ecut=   100.00 Ry     beta= 0.70
     Davidson diagonalization with overlap
     ethr =  1.00E-02,  avg # of iterations =  3.0

     Expectation value of exp(iGx):  (6.78970486857168043E-002,-3.46660707404515822E-002)   1.0000000000000000     
     Electronic Dipole per cell (Ry a.u.)  -4.0039493707995586     
     Ionic Dipole per cell (Ry a.u.)   4797.7395854892329     

     Expectation value of exp(iGx):  (1.52883595376913962E-002,-2.87753590325326887E-002)  0.86602540378443849     
     Electronic Dipole per cell (Ry a.u.)  -7.9508436504834359     
     Ionic Dipole per cell (Ry a.u.)   4434.4358181568914     

     Expectation value of exp(iGx):        (0.11775122963652736,1.32019714549931229E-002)   1.0989361747729789     
     Electronic Dipole per cell (Ry a.u.)   1.0406901461565565     
     Ionic Dipole per cell (Ry a.u.)   5445.5764487352608     
Electronic Dipole on Cartesian axes
           1  -4.0039493707995586     
           2  -7.9508436504834359     
           3   1.0406901461565565     
Ionic Dipole on Cartesian axes
           1   4797.7395854892329     
           2   4434.4358181568914     
           3   5445.5764487352608     

     total cpu time spent up to now is     1318.5 secs

     total energy              =   -1789.73730250 Ry
     estimated scf accuracy    <      19.24563645 Ry

     iteration #  2     ecut=   100.00 Ry     beta= 0.70
     Davidson diagonalization with overlap
     ethr =  5.01E-03,  avg # of iterations =  7.5

     Expectation value of exp(iGx):  (2.15464972515199069E-002,-1.24458577180615679E-002)   1.0000000000000000     
     Electronic Dipole per cell (Ry a.u.)  -4.4428004623699477     
     Ionic Dipole per cell (Ry a.u.)   4797.7395854892329     

     Expectation value of exp(iGx):  (3.91912704149782222E-003,-6.27796157167970215E-003)  0.86602540378443849     
     Electronic Dipole per cell (Ry a.u.)  -7.4388749488075483     
     Ionic Dipole per cell (Ry a.u.)   4434.4358181568914     

     Expectation value of exp(iGx):   (4.66761049256028612E-002,1.48821401195840179E-003)   1.0989361747729789     
     Electronic Dipole per cell (Ry a.u.)  0.29708566079300680     
     Ionic Dipole per cell (Ry a.u.)   5445.5764487352608     
Electronic Dipole on Cartesian axes
           1  -4.4428004623699477     
           2  -7.4388749488075483     
           3  0.29708566079300680     
Ionic Dipole on Cartesian axes
           1   4797.7395854892329     
           2   4434.4358181568914     
           3   5445.5764487352608     

     total cpu time spent up to now is     2657.4 secs

     total energy              =   -1795.76116573 Ry
     estimated scf accuracy    <      10.99697278 Ry

     iteration #  3     ecut=   100.00 Ry     beta= 0.70
     Davidson diagonalization with overlap
     ethr =  2.86E-03,  avg # of iterations =  2.9

     Expectation value of exp(iGx):  (3.60010277531805159E-002,-1.93848455206695226E-002)   1.0000000000000000     
     Electronic Dipole per cell (Ry a.u.)  -4.1894288558530377     
     Ionic Dipole per cell (Ry a.u.)   4797.7395854892329     

     Expectation value of exp(iGx):  (6.90884780603793873E-003,-1.25021007688293304E-002)  0.86602540378443849     
     Electronic Dipole per cell (Ry a.u.)  -7.8298251701305306     
     Ionic Dipole per cell (Ry a.u.)   4434.4358181568914     

     Expectation value of exp(iGx):   (7.06518895658093810E-002,4.58633659586250853E-003)   1.0989361747729789     
     Electronic Dipole per cell (Ry a.u.)  0.60421463300968381     
     Ionic Dipole per cell (Ry a.u.)   5445.5764487352608     
Electronic Dipole on Cartesian axes
           1  -4.1894288558530377     
           2  -7.8298251701305306     
           3  0.60421463300968381     
Ionic Dipole on Cartesian axes
           1   4797.7395854892329     
           2   4434.4358181568914     
           3   5445.5764487352608     

     total cpu time spent up to now is     3985.9 secs

     total energy              =   -1797.55482518 Ry
     estimated scf accuracy    <       0.15404921 Ry

     iteration #  4     ecut=   100.00 Ry     beta= 0.70
     Davidson diagonalization with overlap
     ethr =  4.01E-05,  avg # of iterations = 15.8

     Expectation value of exp(iGx):  (3.87412587372455985E-002,-2.14478508146303364E-002)   1.0000000000000000     
     Electronic Dipole per cell (Ry a.u.)  -4.2885139348562689     
     Ionic Dipole per cell (Ry a.u.)   4797.7395854892329     

     Expectation value of exp(iGx):  (8.00963667216265246E-003,-1.36735200806359699E-002)  0.86602540378443849     
     Electronic Dipole per cell (Ry a.u.)  -7.6458424415613937     
     Ionic Dipole per cell (Ry a.u.)   4434.4358181568914     

     Expectation value of exp(iGx):   (7.53305516110405887E-002,5.61963249223740562E-003)   1.0989361747729789     
     Electronic Dipole per cell (Ry a.u.)  0.69405051489964387     
     Ionic Dipole per cell (Ry a.u.)   5445.5764487352608     
Electronic Dipole on Cartesian axes
           1  -4.2885139348562689     
           2  -7.6458424415613937     
           3  0.69405051489964387     
Ionic Dipole on Cartesian axes
           1   4797.7395854892329     
           2   4434.4358181568914     
           3   5445.5764487352608     

     total cpu time spent up to now is     5274.9 secs

     total energy              =   -1797.63315214 Ry
     estimated scf accuracy    <       0.11292998 Ry

     iteration #  5     ecut=   100.00 Ry     beta= 0.70
     Davidson diagonalization with overlap
     ethr =  2.94E-05,  avg # of iterations = 10.5

     Expectation value of exp(iGx):  (3.89937198965297493E-002,-2.06932105600549920E-002)   1.0000000000000000     
     Electronic Dipole per cell (Ry a.u.)  -4.1381597647563106     
     Ionic Dipole per cell (Ry a.u.)   4797.7395854892329     

     Expectation value of exp(iGx):  (7.73962065564738101E-003,-1.37676580311095979E-002)  0.86602540378443849     
     Electronic Dipole per cell (Ry a.u.)  -7.7763345584331276     
     Ionic Dipole per cell (Ry a.u.)   4434.4358181568914     

     Expectation value of exp(iGx):   (7.52102563664289736E-002,5.42943140290506106E-003)   1.0989361747729789     
     Electronic Dipole per cell (Ry a.u.)  0.67171115566136430     
     Ionic Dipole per cell (Ry a.u.)   5445.5764487352608     
Electronic Dipole on Cartesian axes
           1  -4.1381597647563106     
           2  -7.7763345584331276     
           3  0.67171115566136430     
Ionic Dipole on Cartesian axes
           1   4797.7395854892329     
           2   4434.4358181568914     
           3   5445.5764487352608     

     total cpu time spent up to now is     6589.2 secs

     total energy              =   -1797.63953055 Ry
     estimated scf accuracy    <       0.02775466 Ry

     iteration #  6     ecut=   100.00 Ry     beta= 0.70
     Davidson diagonalization with overlap
     c_bands:  1 eigenvalues not converged
     ethr =  7.23E-06,  avg # of iterations = 12.6

     Expectation value of exp(iGx):  (3.84879693120480024E-002,-2.05843708546990592E-002)   1.0000000000000000     
     Electronic Dipole per cell (Ry a.u.)  -4.1655475799118262     
     Ionic Dipole per cell (Ry a.u.)   4797.7395854892329     

     Expectation value of exp(iGx):  (7.69362287840190309E-003,-1.35192610950115952E-002)  0.86602540378443849     
     Electronic Dipole per cell (Ry a.u.)  -7.7377886487140319     
     Ionic Dipole per cell (Ry a.u.)   4434.4358181568914     

     Expectation value of exp(iGx):   (7.44969968844515218E-002,5.38687726666199369E-003)   1.0989361747729789     
     Electronic Dipole per cell (Ry a.u.)  0.67282341441072357     
     Ionic Dipole per cell (Ry a.u.)   5445.5764487352608     
Electronic Dipole on Cartesian axes
           1  -4.1655475799118262     
           2  -7.7377886487140319     
           3  0.67282341441072357     
Ionic Dipole on Cartesian axes
           1   4797.7395854892329     
           2   4434.4358181568914     
           3   5445.5764487352608     

     total cpu time spent up to now is     7914.6 secs

     total energy              =   -1797.63933427 Ry
     estimated scf accuracy    <       0.00615226 Ry

     iteration #  7     ecut=   100.00 Ry     beta= 0.70
     Davidson diagonalization with overlap
     ethr =  1.60E-06,  avg # of iterations =  8.1

     Expectation value of exp(iGx):  (3.81265294086669398E-002,-2.04549776933033514E-002)   1.0000000000000000     
     Electronic Dipole per cell (Ry a.u.)  -4.1765959828728922     
     Ionic Dipole per cell (Ry a.u.)   4797.7395854892329     

     Expectation value of exp(iGx):  (7.59317835467188985E-003,-1.33719440530317875E-002)  0.86602540378443849     
     Electronic Dipole per cell (Ry a.u.)  -7.7446837529239607     
     Ionic Dipole per cell (Ry a.u.)   4434.4358181568914     

     Expectation value of exp(iGx):   (7.39691547296763563E-002,5.24272949295970410E-003)   1.0989361747729789     
     Electronic Dipole per cell (Ry a.u.)  0.65953696799878070     
     Ionic Dipole per cell (Ry a.u.)   5445.5764487352608     
Electronic Dipole on Cartesian axes
           1  -4.1765959828728922     
           2  -7.7446837529239607     
           3  0.65953696799878070     
Ionic Dipole on Cartesian axes
           1   4797.7395854892329     
           2   4434.4358181568914     
           3   5445.5764487352608     

     total cpu time spent up to now is     9246.1 secs

     total energy              =   -1797.64021045 Ry
     estimated scf accuracy    <       0.00035798 Ry

     iteration #  8     ecut=   100.00 Ry     beta= 0.70
     Davidson diagonalization with overlap
     c_bands:  1 eigenvalues not converged
     ethr =  9.32E-08,  avg # of iterations = 15.1

     Expectation value of exp(iGx):  (3.80020028243822777E-002,-2.04222854382870196E-002)   1.0000000000000000     
     Electronic Dipole per cell (Ry a.u.)  -4.1825064487153636     
     Ionic Dipole per cell (Ry a.u.)   4797.7395854892329     

     Expectation value of exp(iGx):  (7.57528925100759472E-003,-1.33135757852520902E-002)  0.86602540378443849     
     Electronic Dipole per cell (Ry a.u.)  -7.7383225272886786     
     Ionic Dipole per cell (Ry a.u.)   4434.4358181568914     

     Expectation value of exp(iGx):   (7.37887914741754553E-002,5.24772741771622944E-003)   1.0989361747729789     
     Electronic Dipole per cell (Ry a.u.)  0.66177184785664267     
     Ionic Dipole per cell (Ry a.u.)   5445.5764487352608     
Electronic Dipole on Cartesian axes
           1  -4.1825064487153636     
           2  -7.7383225272886786     
           3  0.66177184785664267     
Ionic Dipole on Cartesian axes
           1   4797.7395854892329     
           2   4434.4358181568914     
           3   5445.5764487352608     

     total cpu time spent up to now is    10545.7 secs

     total energy              =   -1797.64033894 Ry
     estimated scf accuracy    <       0.00002021 Ry

     iteration #  9     ecut=   100.00 Ry     beta= 0.70
     Davidson diagonalization with overlap
     c_bands:  1 eigenvalues not converged
     c_bands:  1 eigenvalues not converged
     ethr =  5.26E-09,  avg # of iterations = 15.0

     Expectation value of exp(iGx):  (3.80058980405516764E-002,-2.04300982586289037E-002)   1.0000000000000000     
     Electronic Dipole per cell (Ry a.u.)  -4.1834967844510373     
     Ionic Dipole per cell (Ry a.u.)   4797.7395854892329     

     Expectation value of exp(iGx):  (7.57272126681144374E-003,-1.33190226271976755E-002)  0.86602540378443849     
     Electronic Dipole per cell (Ry a.u.)  -7.7406840090759585     
     Ionic Dipole per cell (Ry a.u.)   4434.4358181568914     

     Expectation value of exp(iGx):   (7.38006677605793221E-002,5.23301854845756309E-003)   1.0989361747729789     
     Electronic Dipole per cell (Ry a.u.)  0.65981732392708470     
     Ionic Dipole per cell (Ry a.u.)   5445.5764487352608     
Electronic Dipole on Cartesian axes
           1  -4.1834967844510373     
           2  -7.7406840090759585     
           3  0.65981732392708470     
Ionic Dipole on Cartesian axes
           1   4797.7395854892329     
           2   4434.4358181568914     
           3   5445.5764487352608     

     total cpu time spent up to now is    11884.9 secs

     total energy              =   -1797.64034092 Ry
     estimated scf accuracy    <       0.00000498 Ry

     iteration # 10     ecut=   100.00 Ry     beta= 0.70
     Davidson diagonalization with overlap
     ethr =  1.30E-09,  avg # of iterations = 14.5

     Expectation value of exp(iGx):  (3.80154503983338304E-002,-2.04289137648770817E-002)   1.0000000000000000     
     Electronic Dipole per cell (Ry a.u.)  -4.1824028542085170     
     Ionic Dipole per cell (Ry a.u.)   4797.7395854892329     

     Expectation value of exp(iGx):  (7.57470174405476711E-003,-1.33220685936998855E-002)  0.86602540378443849     
     Electronic Dipole per cell (Ry a.u.)  -7.7405804039272699     
     Ionic Dipole per cell (Ry a.u.)   4434.4358181568914     

     Expectation value of exp(iGx):   (7.38113228086421241E-002,5.23897311717480552E-003)   1.0989361747729789     
     Electronic Dipole per cell (Ry a.u.)  0.66047057244908536     
     Ionic Dipole per cell (Ry a.u.)   5445.5764487352608     
Electronic Dipole on Cartesian axes
           1  -4.1824028542085170     
           2  -7.7405804039272699     
           3  0.66047057244908536     
Ionic Dipole on Cartesian axes
           1   4797.7395854892329     
           2   4434.4358181568914     
           3   5445.5764487352608     

     total cpu time spent up to now is    13213.5 secs

     total energy              =   -1797.64034149 Ry
     estimated scf accuracy    <       0.00000068 Ry

     iteration # 11     ecut=   100.00 Ry     beta= 0.70
     Davidson diagonalization with overlap
     ethr =  1.78E-10,  avg # of iterations = 10.8

     Expectation value of exp(iGx):  (3.80208903748199892E-002,-2.04317589511225986E-002)   1.0000000000000000     
     Electronic Dipole per cell (Ry a.u.)  -4.1823893229010896     
     Ionic Dipole per cell (Ry a.u.)   4797.7395854892329     

     Expectation value of exp(iGx):  (7.57607890808029323E-003,-1.33246074011132438E-002)  0.86602540378443849     
     Electronic Dipole per cell (Ry a.u.)  -7.7406080482980908     
     Ionic Dipole per cell (Ry a.u.)   4434.4358181568914     

     Expectation value of exp(iGx):   (7.38200487291350294E-002,5.23980352128363292E-003)   1.0989361747729789     
     Electronic Dipole per cell (Ry a.u.)  0.66049708795983653     
     Ionic Dipole per cell (Ry a.u.)   5445.5764487352608     
Electronic Dipole on Cartesian axes
           1  -4.1823893229010896     
           2  -7.7406080482980908     
           3  0.66049708795983653     
Ionic Dipole on Cartesian axes
           1   4797.7395854892329     
           2   4434.4358181568914     
           3   5445.5764487352608     

     total cpu time spent up to now is    14538.2 secs

     total energy              =   -1797.64034171 Ry
     estimated scf accuracy    <       0.00000007 Ry

     iteration # 12     ecut=   100.00 Ry     beta= 0.70
     Davidson diagonalization with overlap
     c_bands:  1 eigenvalues not converged
     c_bands:  1 eigenvalues not converged
     ethr =  1.91E-11,  avg # of iterations = 14.8

     Expectation value of exp(iGx):  (3.80211962623031238E-002,-2.04314814293147552E-002)   1.0000000000000000     
     Electronic Dipole per cell (Ry a.u.)  -4.1823128324041896     
     Ionic Dipole per cell (Ry a.u.)   4797.7395854892329     

     Expectation value of exp(iGx):  (7.57621570921052524E-003,-1.33246024615381511E-002)  0.86602540378443849     
     Electronic Dipole per cell (Ry a.u.)  -7.7405498884355470     
     Ionic Dipole per cell (Ry a.u.)   4434.4358181568914     

     Expectation value of exp(iGx):   (7.38201896359473447E-002,5.24019923404228823E-003)   1.0989361747729789     
     Electronic Dipole per cell (Ry a.u.)  0.66054554559481260     
     Ionic Dipole per cell (Ry a.u.)   5445.5764487352608     
Electronic Dipole on Cartesian axes
           1  -4.1823128324041896     
           2  -7.7405498884355470     
           3  0.66054554559481260     
Ionic Dipole on Cartesian axes
           1   4797.7395854892329     
           2   4434.4358181568914     
           3   5445.5764487352608     

     total cpu time spent up to now is    15833.6 secs

     total energy              =   -1797.64034172 Ry
     estimated scf accuracy    <       0.00000003 Ry

     iteration # 13     ecut=   100.00 Ry     beta= 0.70
     Davidson diagonalization with overlap
     c_bands:  1 eigenvalues not converged
     ethr =  6.69E-12,  avg # of iterations = 12.9

     Expectation value of exp(iGx):  (3.80204960856230789E-002,-2.04315486845033992E-002)   1.0000000000000000     
     Electronic Dipole per cell (Ry a.u.)  -4.1823896028804057     
     Ionic Dipole per cell (Ry a.u.)   4797.7395854892329     

     Expectation value of exp(iGx):  (7.57611036784279490E-003,-1.33243457647476936E-002)  0.86602540378443849     
     Electronic Dipole per cell (Ry a.u.)  -7.7405329690774511     
     Ionic Dipole per cell (Ry a.u.)   4434.4358181568914     

     Expectation value of exp(iGx):   (7.38193626956834270E-002,5.23995769299280892E-003)   1.0989361747729789     
     Electronic Dipole per cell (Ry a.u.)  0.66052257481214083     
     Ionic Dipole per cell (Ry a.u.)   5445.5764487352608     
Electronic Dipole on Cartesian axes
           1  -4.1823896028804057     
           2  -7.7405329690774511     
           3  0.66052257481214083     
Ionic Dipole on Cartesian axes
           1   4797.7395854892329     
           2   4434.4358181568914     
           3   5445.5764487352608     

     total cpu time spent up to now is    17154.7 secs

     End of self-consistent calculation

          k = 0.0000 0.0000 0.0000 (107453 PWs)   bands (ev):

   -17.5472 -17.3535 -17.1435 -16.9709 -16.9335 -16.9051 -16.8203 -16.6365
   -16.5550 -16.4649 -16.4587 -16.4062 -16.2974 -16.1851 -16.0461 -15.9938
   -15.9740 -15.8856 -15.8622 -15.8141 -15.7351 -15.6989 -15.6296 -15.5244
   -15.4322 -15.3780 -15.3641 -15.3168 -15.2641 -15.2384 -15.2077 -15.1440
   -15.0727 -15.0355 -14.9671 -14.9171 -14.8944 -14.8115 -14.7348 -14.6412
   -14.3945 -14.3750 -14.3354 -14.3065 -14.0569 -14.0353 -13.7851 -13.6672
    -7.4478  -6.8124  -6.5827  -6.4376  -6.3784  -6.2874  -6.0445  -5.9772
    -5.8431  -5.3845  -5.3205  -5.2202  -5.1562  -5.0944  -4.8257  -4.6494
    -4.4314  -4.3848  -4.2407  -4.1270  -4.0500  -3.9853  -3.8534  -3.7486
    -3.6968  -3.6243  -3.5937  -3.4720  -3.3797  -3.2626  -3.2311  -3.1846
    -3.1341  -3.1049  -3.0555  -3.0310  -2.9203  -2.8741  -2.8179  -2.6439
    -2.5715  -2.5549  -2.5027  -2.3336  -2.2629  -2.0555  -1.9572  -1.8166
    -1.4004  -1.3471  -1.3141  -1.2356  -1.1137  -1.0845  -1.0425  -0.9999
    -0.9365  -0.9248  -0.8519  -0.8370  -0.8186  -0.7885  -0.6770  -0.6216
    -0.5808  -0.5715  -0.5366  -0.4709  -0.4449  -0.4283  -0.3519  -0.3261
    -0.3089  -0.2061  -0.1866  -0.1543  -0.1486  -0.0845  -0.0536  -0.0108
     0.0197   0.0444   0.0512   0.1155   0.1629   0.1948   0.2172   0.2719
     0.2998   0.3267   0.3610   0.3835   0.4351   0.4692   0.4928   0.5294
     0.5597   0.6419   0.6777   0.6968   0.7377   0.7949   0.8118   0.8793
     0.8947   0.9131   0.9330   0.9674   0.9938   1.0274   1.0607   1.1024
     1.1549   1.1689   1.2063   1.2556   1.2747   1.3281   1.3760   1.4358
     1.4526   1.4875   1.5353   1.5843   1.6264   1.6552   1.7028   1.7396
     1.7858   1.8242   1.9157   1.9398   2.0424   2.0986   2.1415   2.1972
     2.2215   2.3425   2.4148   2.5355   2.5452   2.5793   2.6773   2.7180
     7.6804   9.2062   9.4114   9.5453   9.7220   9.7962  10.1293  10.2679
    10.3084  10.5389  10.6512  10.7007  10.7733  10.9153  10.9199  10.9756
    11.0917  11.1584  11.2146  11.2657  11.2983  11.3330  11.3603  11.4355
    11.5188  11.5723  11.6103  11.6466

          k = 0.0000 0.0000 0.4550 (107410 PWs)   bands (ev):

   -17.5165 -17.4060 -17.1401 -16.9875 -16.9274 -16.8692 -16.8249 -16.6409
   -16.5210 -16.4819 -16.4266 -16.3901 -16.2908 -16.2193 -16.1115 -16.0284
   -15.9704 -15.9314 -15.8386 -15.7685 -15.7240 -15.6902 -15.5882 -15.4932
   -15.4680 -15.4073 -15.3535 -15.3211 -15.2609 -15.2397 -15.2138 -15.1379
   -15.0698 -15.0247 -14.9805 -14.9215 -14.8852 -14.8125 -14.7325 -14.6413
   -14.3937 -14.3843 -14.3236 -14.3106 -14.0604 -14.0351 -13.7860 -13.6672
    -7.3061  -7.0282  -6.6303  -6.4285  -6.3952  -6.2784  -6.1388  -5.9883
    -5.4507  -5.3733  -5.2866  -5.2243  -5.1108  -5.0839  -4.9221  -4.7834
    -4.4662  -4.3814  -4.2580  -4.1819  -4.0992  -3.9882  -3.8989  -3.7311
    -3.6514  -3.6194  -3.5392  -3.4478  -3.3809  -3.3093  -3.2506  -3.2162
    -3.1341  -3.1120  -3.0758  -2.9607  -2.8871  -2.8147  -2.7362  -2.6340
    -2.6103  -2.5174  -2.4762  -2.3157  -2.2937  -2.0839  -2.0273  -1.8658
    -1.4178  -1.3433  -1.3084  -1.2554  -1.1625  -1.0666  -1.0376  -0.9753
    -0.9600  -0.8939  -0.8789  -0.8254  -0.7522  -0.7139  -0.7048  -0.6804
    -0.6151  -0.5655  -0.5549  -0.4874  -0.4670  -0.4319  -0.4152  -0.3110
    -0.2995  -0.2176  -0.2030  -0.1694  -0.1202  -0.0293  -0.0038   0.0036
     0.0327   0.0743   0.1251   0.1900   0.2067   0.2219   0.2484   0.2678
     0.2958   0.3289   0.3476   0.3996   0.4071   0.4406   0.5272   0.5508
     0.5872   0.6048   0.6178   0.6968   0.7136   0.7475   0.7637   0.8351
     0.8597   0.8987   0.9098   0.9361   1.0009   1.0292   1.0920   1.1099
     1.1231   1.1646   1.1955   1.2548   1.2912   1.3297   1.3962   1.4166
     1.4411   1.4996   1.5266   1.5772   1.6003   1.6844   1.7145   1.7393
     1.7949   1.8582   1.8956   1.9717   2.0623   2.0834   2.1484   2.1974
     2.2356   2.3097   2.4419   2.5314   2.5532   2.5636   2.6769   2.7117
     8.0566   8.4204   9.5604   9.6398   9.7336   9.9459  10.0060  10.3675
    10.4306  10.4824  10.5586  10.6943  10.7691  10.8357  10.8640  11.0083
    11.0773  11.1340  11.1476  11.2645  11.3170  11.3519  11.4083  11.4283
    11.5134  11.5346  11.6135  11.6245

          k = 0.0000 0.5774 0.0000 (107384 PWs)   bands (ev):

   -17.5252 -17.3489 -17.1608 -17.0046 -16.9505 -16.8786 -16.7071 -16.6814
   -16.6326 -16.5786 -16.5034 -16.3043 -16.2228 -16.1607 -16.1213 -15.9887
   -15.9505 -15.9103 -15.8647 -15.7640 -15.6991 -15.6703 -15.6545 -15.4838
   -15.4730 -15.3755 -15.3348 -15.3202 -15.2737 -15.2287 -15.2086 -15.1570
   -15.0725 -15.0163 -14.9942 -14.9380 -14.8843 -14.8376 -14.7336 -14.6367
   -14.3915 -14.3795 -14.3262 -14.3240 -14.0616 -14.0327 -13.7864 -13.6707
    -7.2603  -6.7570  -6.6951  -6.5851  -6.3882  -6.2294  -6.0279  -5.9450
    -5.8751  -5.5981  -5.5373  -5.2071  -5.0908  -5.0163  -4.7962  -4.6558
    -4.4090  -4.3724  -4.2001  -4.1165  -4.0025  -3.9193  -3.7803  -3.7540
    -3.6270  -3.5720  -3.4690  -3.4410  -3.3856  -3.3155  -3.3032  -3.2243
    -3.1450  -3.1065  -3.0514  -2.9970  -2.9274  -2.9018  -2.7979  -2.6876
    -2.5810  -2.5572  -2.5320  -2.3359  -2.2113  -2.1557  -1.9117  -1.8395
    -1.4336  -1.3493  -1.3104  -1.2481  -1.1407  -1.0957  -1.0673  -1.0408
    -1.0187  -0.9877  -0.8572  -0.8139  -0.7573  -0.7138  -0.7059  -0.6215
    -0.6151  -0.5546  -0.5346  -0.4809  -0.4259  -0.3822  -0.3436  -0.3172
    -0.3029  -0.2423  -0.2253  -0.1876  -0.1248  -0.0651  -0.0477  -0.0186
     0.0072   0.0200   0.0443   0.1441   0.1771   0.1990   0.2465   0.3170
     0.3371   0.3559   0.3627   0.4264   0.4454   0.4604   0.5107   0.5629
     0.5725   0.6207   0.6498   0.6886   0.7162   0.7682   0.7843   0.8220
     0.8809   0.9074   0.9645   0.9713   1.0058   1.0378   1.0474   1.1061
     1.1820   1.2067   1.2306   1.2400   1.2833   1.3440   1.3642   1.3696
     1.4134   1.4782   1.4971   1.5364   1.6150   1.6814   1.7234   1.7782
     1.8220   1.8304   1.9080   1.9720   2.0305   2.0625   2.1749   2.1997
     2.2330   2.2992   2.4576   2.5064   2.5509   2.5879   2.6652   2.7268
     8.3861   8.5497   9.4376   9.5202   9.7829   9.9396  10.0429  10.1191
    10.3321  10.4971  10.5058  10.5860  10.7434  10.8240  10.8846  11.0004
    11.0830  11.0940  11.1889  11.1903  11.2430  11.3062  11.3693  11.4638
    11.5020  11.5385  11.5557  11.6861

          k = 0.0000 0.5774 0.4550 (107468 PWs)   bands (ev):

   -17.4995 -17.3929 -17.1536 -16.9966 -16.9678 -16.8296 -16.7659 -16.6912
   -16.6332 -16.5112 -16.4156 -16.3955 -16.2733 -16.1674 -16.0740 -16.0273
   -15.9416 -15.9284 -15.8711 -15.7475 -15.7006 -15.6680 -15.5777 -15.5419
   -15.4450 -15.3981 -15.3332 -15.3097 -15.2762 -15.2418 -15.2228 -15.1400
   -15.0689 -15.0396 -14.9881 -14.9246 -14.8817 -14.8389 -14.7308 -14.6394
   -14.4025 -14.3739 -14.3236 -14.3206 -14.0613 -14.0344 -13.7868 -13.6706
    -7.1907  -6.8910  -6.6524  -6.5492  -6.4426  -6.3157  -6.0855  -6.0103
    -5.5970  -5.4974  -5.3826  -5.2614  -5.1108  -5.0607  -4.9161  -4.8304
    -4.3116  -4.2679  -4.1809  -4.0912  -4.0083  -3.9498  -3.8965  -3.8171
    -3.7418  -3.5918  -3.5091  -3.3731  -3.3482  -3.2947  -3.2638  -3.2261
    -3.1408  -3.1180  -3.0278  -2.9676  -2.8917  -2.8059  -2.7573  -2.6766
    -2.6002  -2.5616  -2.5027  -2.3352  -2.2663  -2.1683  -1.9786  -1.8493
    -1.4487  -1.3287  -1.3168  -1.2441  -1.1967  -1.0746  -1.0553  -1.0349
    -0.9811  -0.9597  -0.8598  -0.8134  -0.7745  -0.7219  -0.6551  -0.6230
    -0.5985  -0.5311  -0.4972  -0.4579  -0.4361  -0.4182  -0.3807  -0.3696
    -0.2881  -0.2599  -0.2402  -0.1987  -0.1554  -0.0699  -0.0400  -0.0196
     0.0223   0.0504   0.0933   0.1228   0.1366   0.1926   0.2308   0.2557
     0.2917   0.3312   0.3849   0.4225   0.4855   0.4894   0.5465   0.5884
     0.6128   0.6257   0.6461   0.6815   0.7361   0.7816   0.8009   0.8079
     0.8352   0.8890   0.9177   0.9402   1.0007   1.0396   1.0690   1.1161
     1.1545   1.2040   1.2404   1.2719   1.2881   1.3320   1.4005   1.4077
     1.4494   1.4785   1.5033   1.5576   1.5968   1.6405   1.7291   1.7392
     1.7956   1.8439   1.9141   1.9706   2.0450   2.0898   2.1355   2.2009
     2.2297   2.2933   2.4519   2.4817   2.5685   2.6078   2.6749   2.7264
     8.5795   8.7819   9.0294   9.1787   9.7547   9.9778  10.0119  10.1324
    10.2633  10.4546  10.5905  10.7499  10.8777  10.8808  10.9349  10.9791
    11.0668  11.0903  11.1209  11.2077  11.2309  11.2902  11.3563  11.4192
    11.4598  11.5287  11.6037  11.6360

          k = 0.5000 0.0000 0.0000 (107420 PWs)   bands (ev):

   -17.5051 -17.3445 -17.2566 -16.9869 -16.9231 -16.8855 -16.7290 -16.6466
   -16.6063 -16.5492 -16.4201 -16.3360 -16.2611 -16.1579 -16.0603 -16.0286
   -15.9643 -15.9338 -15.8806 -15.7796 -15.7579 -15.7063 -15.6179 -15.5092
   -15.4534 -15.3748 -15.3503 -15.2912 -15.2548 -15.2325 -15.2178 -15.1454
   -15.0713 -15.0360 -14.9537 -14.9209 -14.8919 -14.8209 -14.7343 -14.6515
   -14.3957 -14.3840 -14.3462 -14.3013 -14.0563 -14.0359 -13.7915 -13.6647
    -7.1927  -7.0356  -6.7220  -6.5225  -6.3373  -6.2560  -5.9696  -5.8051
    -5.7860  -5.6390  -5.4107  -5.3093  -4.9556  -4.8786  -4.7313  -4.6396
    -4.5438  -4.4254  -4.2915  -4.2131  -4.1585  -4.1305  -3.8226  -3.6729
    -3.6479  -3.5769  -3.5427  -3.3878  -3.3578  -3.2836  -3.2613  -3.2109
    -3.1519  -3.0874  -3.0638  -3.0387  -2.9400  -2.8673  -2.8393  -2.6699
    -2.5745  -2.5574  -2.4421  -2.3471  -2.2614  -2.0598  -2.0000  -1.8158
    -1.4225  -1.3141  -1.2887  -1.1741  -1.1145  -1.0986  -1.0078  -0.9767
    -0.9445  -0.8764  -0.8671  -0.8484  -0.8030  -0.7666  -0.7159  -0.6523
    -0.6232  -0.5770  -0.5238  -0.4850  -0.4748  -0.4230  -0.3904  -0.3141
    -0.2602  -0.2322  -0.2274  -0.1636  -0.1163  -0.0960  -0.0253   0.0217
     0.0504   0.0713   0.0837   0.1416   0.1535   0.2003   0.2388   0.2514
     0.2836   0.3230   0.3848   0.4110   0.4188   0.4589   0.4947   0.5496
     0.5642   0.6038   0.6801   0.6908   0.7212   0.7663   0.7966   0.8441
     0.8987   0.9025   0.9383   0.9720   0.9954   1.0034   1.0268   1.1253
     1.1633   1.2131   1.2195   1.2297   1.2505   1.3302   1.3864   1.4265
     1.4525   1.4915   1.5396   1.5830   1.6253   1.6530   1.7021   1.7779
     1.8050   1.8523   1.8970   1.9721   2.0093   2.0886   2.1317   2.1942
     2.2365   2.3318   2.4361   2.4862   2.5382   2.5645   2.6623   2.7130
     8.1153   8.5005   9.4779   9.6257   9.7411  10.0011  10.1204  10.2167
    10.3244  10.4255  10.5936  10.6900  10.8227  10.9110  10.9651  11.0165
    11.0697  11.1638  11.1902  11.2229  11.2668  11.3333  11.4121  11.4337
    11.4896  11.5205  11.6247  11.6745

          k = 0.5000 0.0000 0.4550 (107560 PWs)   bands (ev):

   -17.4695 -17.3960 -17.2536 -17.0186 -16.9090 -16.8529 -16.7598 -16.6445
   -16.5421 -16.5063 -16.4186 -16.3629 -16.2433 -16.2319 -16.0975 -16.0605
   -15.9896 -15.9132 -15.8560 -15.7738 -15.7334 -15.6888 -15.5764 -15.5268
   -15.4291 -15.3982 -15.3678 -15.3024 -15.2533 -15.2309 -15.2220 -15.1501
   -15.0578 -15.0278 -14.9671 -14.9214 -14.8859 -14.8217 -14.7331 -14.6497
   -14.4053 -14.3808 -14.3414 -14.3009 -14.0597 -14.0349 -13.7918 -13.6647
    -7.0902  -6.9768  -6.8636  -6.6182  -6.3308  -6.2870  -6.1115  -5.9783
    -5.4839  -5.3617  -5.2846  -5.0917  -5.0304  -4.9776  -4.8799  -4.8023
    -4.6513  -4.5128  -4.3399  -4.2660  -3.9901  -3.8984  -3.8298  -3.8240
    -3.6703  -3.6178  -3.5334  -3.4843  -3.3255  -3.2950  -3.2422  -3.1913
    -3.1331  -3.0877  -3.0801  -2.9913  -2.8836  -2.8183  -2.7814  -2.6607
    -2.5926  -2.4947  -2.4443  -2.3758  -2.2616  -2.0973  -2.0581  -1.8711
    -1.4166  -1.3228  -1.2975  -1.2088  -1.1461  -1.0988  -1.0238  -0.9535
    -0.9306  -0.9219  -0.8432  -0.8284  -0.7707  -0.7495  -0.6830  -0.6620
    -0.6503  -0.5407  -0.5125  -0.4654  -0.4586  -0.4359  -0.3839  -0.3002
    -0.2778  -0.2279  -0.2012  -0.1561  -0.1135  -0.0884  -0.0313  -0.0058
     0.0210   0.0826   0.1117   0.1367   0.1838   0.2012   0.2416   0.2553
     0.3020   0.3092   0.3586   0.4078   0.4488   0.4802   0.5287   0.5574
     0.5692   0.6314   0.6546   0.6885   0.7222   0.7602   0.7763   0.8180
     0.8690   0.8757   0.8920   0.9256   0.9963   1.0149   1.0442   1.1135
     1.1488   1.2070   1.2116   1.2212   1.2573   1.3628   1.3760   1.4182
     1.4384   1.4693   1.5094   1.5704   1.5984   1.7238   1.7498   1.8033
     1.8364   1.8565   1.8878   1.9507   2.0073   2.0553   2.1312   2.2298
     2.2361   2.2983   2.4047   2.5326   2.5476   2.5740   2.6753   2.7029
     8.3296   8.8056   8.8831   9.0932   9.7614  10.0841  10.2209  10.3956
    10.5106  10.5750  10.6526  10.7159  10.8109  10.8771  10.9615  10.9948
    11.0675  11.1079  11.1491  11.1725  11.2458  11.2887  11.3303  11.4240
    11.4677  11.5687  11.6073  11.6400

          k = 0.5000 0.5774 0.0000 (107556 PWs)   bands (ev):

   -17.4888 -17.3390 -17.2301 -17.0382 -16.9302 -16.8887 -16.7573 -16.6643
   -16.6105 -16.5145 -16.4177 -16.3586 -16.2290 -16.2181 -16.0989 -16.0242
   -15.9478 -15.8930 -15.8287 -15.7567 -15.7373 -15.7034 -15.5805 -15.4916
   -15.4611 -15.3909 -15.3401 -15.3278 -15.2706 -15.2228 -15.2126 -15.1421
   -15.0964 -15.0060 -14.9816 -14.9307 -14.8844 -14.8486 -14.7352 -14.6393
   -14.4081 -14.3889 -14.3289 -14.3124 -14.0604 -14.0321 -13.7937 -13.6671
    -7.0469  -6.9021  -6.6904  -6.5324  -6.4216  -6.3567  -6.1704  -6.0413
    -5.7233  -5.4962  -5.4297  -5.2764  -5.0194  -4.9470  -4.7523  -4.6961
    -4.5903  -4.3510  -4.2455  -4.2133  -4.0504  -3.8184  -3.7926  -3.7363
    -3.6109  -3.5271  -3.4832  -3.4408  -3.3753  -3.3151  -3.2915  -3.1935
    -3.1494  -3.1148  -3.0403  -3.0178  -2.9614  -2.9197  -2.7764  -2.7035
    -2.6062  -2.5590  -2.4077  -2.3124  -2.2940  -2.1010  -2.0248  -1.8521
    -1.4520  -1.3304  -1.2987  -1.1955  -1.1699  -1.0877  -1.0476  -1.0121
    -0.9828  -0.9434  -0.8550  -0.8062  -0.7900  -0.7206  -0.6670  -0.6340
    -0.5876  -0.5477  -0.5349  -0.4737  -0.4586  -0.4060  -0.3365  -0.3222
    -0.2877  -0.2573  -0.2230  -0.1726  -0.1513  -0.1410  -0.0888  -0.0245
    -0.0020   0.0287   0.0617   0.1469   0.1593   0.2074   0.2592   0.3059
     0.3398   0.3469   0.4046   0.4145   0.4472   0.4868   0.5015   0.5640
     0.6053   0.6413   0.6592   0.6750   0.7346   0.7479   0.7986   0.8402
     0.8879   0.9002   0.9596   0.9937   1.0203   1.0436   1.0685   1.0883
     1.1281   1.1649   1.1955   1.2471   1.3023   1.3418   1.3650   1.3717
     1.4470   1.4621   1.4882   1.5906   1.6254   1.6445   1.7065   1.8117
     1.8175   1.8751   1.9031   1.9523   2.0325   2.0715   2.1415   2.1703
     2.2513   2.3107   2.4552   2.4699   2.5458   2.5787   2.6512   2.7208
     8.6303   8.8283   9.1259   9.2266   9.7924  10.0047  10.0348  10.1190
    10.1934  10.4616  10.5406  10.6466  10.7164  10.8405  10.8632  10.9749
    11.0188  11.0641  11.1160  11.2664  11.2738  11.3324  11.4227  11.4809
    11.5270  11.5921  11.6239  11.6489

          k = 0.5000 0.5774 0.4550 (107528 PWs)   bands (ev):

   -17.4584 -17.3851 -17.2276 -17.0319 -16.9464 -16.8621 -16.7760 -16.6598
   -16.5505 -16.4801 -16.4637 -16.4021 -16.2503 -16.2026 -16.1243 -16.0064
   -15.9343 -15.8966 -15.8232 -15.7642 -15.7090 -15.6888 -15.5676 -15.5244
   -15.4716 -15.3907 -15.3545 -15.3226 -15.2674 -15.2426 -15.2179 -15.1363
   -15.0613 -15.0176 -14.9832 -14.9280 -14.8822 -14.8523 -14.7330 -14.6400
   -14.4213 -14.3691 -14.3418 -14.3063 -14.0584 -14.0344 -13.7935 -13.6672
    -7.0064  -6.8775  -6.8009  -6.5094  -6.4656  -6.3499  -6.2375  -5.9431
    -5.6052  -5.4741  -5.3591  -5.2202  -5.1578  -4.9800  -4.9148  -4.8237
    -4.3922  -4.2497  -4.1905  -4.1010  -4.0538  -3.9584  -3.9173  -3.8375
    -3.7138  -3.5770  -3.5040  -3.3983  -3.3602  -3.2565  -3.2370  -3.1775
    -3.1553  -3.0931  -3.0385  -2.9446  -2.9278  -2.8331  -2.7672  -2.7174
    -2.6046  -2.5255  -2.4467  -2.3346  -2.3001  -2.1381  -2.0458  -1.8543
    -1.4586  -1.3411  -1.3063  -1.2085  -1.1641  -1.0641  -1.0292  -1.0105
    -0.9637  -0.9018  -0.8187  -0.7938  -0.7588  -0.7276  -0.6934  -0.6588
    -0.5896  -0.5556  -0.5227  -0.5061  -0.4693  -0.4307  -0.4133  -0.3456
    -0.2926  -0.2727  -0.2443  -0.1975  -0.1609  -0.1007  -0.0504  -0.0161
     0.0487   0.0827   0.1016   0.1288   0.1410   0.1881   0.2403   0.2541
     0.3098   0.3462   0.4046   0.4390   0.4665   0.5059   0.5205   0.5611
     0.5767   0.5951   0.6536   0.6776   0.7595   0.7824   0.8080   0.8541
     0.8630   0.8993   0.9230   0.9779   1.0034   1.0363   1.0881   1.1139
     1.1594   1.1727   1.2034   1.2671   1.3076   1.3242   1.3730   1.4116
     1.4296   1.5071   1.5503   1.5736   1.5838   1.6487   1.6935   1.7258
     1.8043   1.8323   1.9293   1.9726   2.0207   2.0390   2.1550   2.1988
     2.2307   2.3004   2.4361   2.4919   2.5664   2.5890   2.6561   2.7342
     8.7361   8.9363   9.2961   9.3615   9.4771   9.6350   9.6482   9.8162
    10.3803  10.4823  10.6549  10.7894  10.8282  10.9091  10.9749  11.0044
    11.0441  11.0993  11.2245  11.2809  11.2961  11.3340  11.3922  11.4313
    11.5117  11.5732  11.6351  11.6831

     highest occupied, lowest unoccupied level (ev):     2.7342    7.6804

!    total energy              =   -1797.64034172 Ry
     estimated scf accuracy    <          1.7E-09 Ry

     The total energy is the sum of the following terms:
     one-electron contribution =    -879.51666873 Ry
     hartree contribution      =     644.20890870 Ry
     xc contribution           =    -485.47596799 Ry
     ewald contribution        =   -1076.41394416 Ry

     convergence has been achieved in  13 iterations

     Forces acting on atoms (cartesian axes, Ry/au):

     atom    1 type  1   force =    -0.09371515    0.02249440   -0.10163058
     atom    2 type  1   force =    -0.02131370   -0.14716453   -0.05100563
     atom    3 type  1   force =    -0.13287087    0.14009794    0.02939321
     atom    4 type  2   force =    -0.05511424   -0.05630751   -0.01006120
     atom    5 type  2   force =    -0.02926782    0.04609781   -0.06462505
     atom    6 type  2   force =     0.12697208   -0.00365339   -0.02904304
     atom    7 type  2   force =     0.08167690   -0.01864921   -0.00867866
     atom    8 type  2   force =    -0.04337377    0.05226178   -0.06032754
     atom    9 type  2   force =    -0.00907728   -0.01851552    0.05447161
     atom   10 type  1   force =     0.01649242   -0.00041466   -0.16457788
     atom   11 type  1   force =     0.00526454    0.10504910    0.03824468
     atom   12 type  1   force =     0.05339845    0.10687755    0.00466777
     atom   13 type  2   force =    -0.00483740    0.04259600    0.07113500
     atom   14 type  2   force =    -0.07724305    0.09246869   -0.06117150
     atom   15 type  2   force =    -0.15678645   -0.03264964    0.14682740
     atom   16 type  2   force =     0.06180289   -0.17273148   -0.17596703
     atom   17 type  2   force =     0.02763622    0.01070183    0.01695507
     atom   18 type  2   force =     0.02991827    0.03598148   -0.06607806
     atom   19 type  1   force =     0.09848673    0.01104244   -0.12763488
     atom   20 type  1   force =    -0.07036550    0.06369159    0.26026669
     atom   21 type  2   force =     0.02185212   -0.01400182    0.00801280
     atom   22 type  2   force =    -0.01418444   -0.03643503   -0.05269053
     atom   23 type  2   force =     0.11169070    0.03244271    0.05295875
     atom   24 type  2   force =    -0.11056226   -0.18845068    0.14991814
     atom   25 type  1   force =     0.00274866    0.03653942    0.01379917
     atom   26 type  1   force =     0.22547293    0.01561016   -0.04952512
     atom   27 type  2   force =    -0.02141044    0.03478904   -0.00780714
     atom   28 type  2   force =    -0.04161842    0.04773482    0.03402625
     atom   29 type  2   force =    -0.13182802    0.02604448   -0.11814035
     atom   30 type  2   force =     0.11493815    0.07198694   -0.12729515
     atom   31 type  1   force =     0.08795936   -0.05984469    0.01086597
     atom   32 type  1   force =     0.14731251   -0.05413158    0.13215033
     atom   33 type  1   force =    -0.07930545    0.10626609    0.03341372
     atom   34 type  2   force =    -0.01320669    0.04528952    0.04662931
     atom   35 type  2   force =    -0.05280505    0.11099486   -0.05308448
     atom   36 type  2   force =    -0.06925159    0.02408301    0.06511938
     atom   37 type  2   force =     0.09032182   -0.13378958   -0.09887981
     atom   38 type  2   force =    -0.10907431   -0.02929783   -0.06321880
     atom   39 type  2   force =    -0.03350686   -0.11362996    0.08781334
     atom   40 type  1   force =     0.07805266   -0.05582972   -0.01722421
     atom   41 type  1   force =    -0.02072237   -0.07214245    0.03746631
     atom   42 type  1   force =     0.04076627    0.08350373   -0.03998347
     atom   43 type  2   force =     0.02810099    0.10091976    0.05424929
     atom   44 type  2   force =    -0.01636295    0.00495699   -0.06519724
     atom   45 type  2   force =    -0.00704919    0.01803773    0.00528749
     atom   46 type  2   force =     0.01499532   -0.03701161   -0.02115426
     atom   47 type  2   force =     0.03828246    0.02222885    0.06768109
     atom   48 type  2   force =     0.01551010    0.00956539    0.00650417
     atom   49 type  1   force =    -0.08395105    0.07737935   -0.08751992
     atom   50 type  1   force =    -0.09073011   -0.00455425    0.04135127
     atom   51 type  1   force =     0.08439368   -0.06471390   -0.05036785
     atom   52 type  2   force =     0.00420181   -0.00923261   -0.00398406
     atom   53 type  2   force =     0.01145894   -0.00452178    0.00437651
     atom   54 type  2   force =     0.07837599   -0.01354342   -0.04178501
     atom   55 type  2   force =    -0.07200814    0.04791695    0.03288920
     atom   56 type  2   force =     0.06474024    0.02548291    0.01066763
     atom   57 type  2   force =    -0.02170806   -0.06480826    0.06383362
     atom   58 type  1   force =     0.02990353   -0.02668840    0.08233661
     atom   59 type  1   force =     0.03551802   -0.04497900   -0.10367528
     atom   60 type  1   force =     0.03375149   -0.07300152    0.04750976
     atom   61 type  2   force =    -0.04089347   -0.02994912   -0.00359577
     atom   62 type  2   force =    -0.02370995    0.08000257   -0.01901378
     atom   63 type  2   force =    -0.02807359   -0.04564219    0.06852497
     atom   64 type  2   force =     0.02387384   -0.01381788    0.03989181
     atom   65 type  2   force =    -0.06957233    0.05077280   -0.10273413
     atom   66 type  2   force =    -0.00190773   -0.00739601   -0.00548604
     atom   67 type  1   force =     0.13745033    0.12742219    0.10587966
     atom   68 type  2   force =    -0.03705507   -0.04024089   -0.05709492
     atom   69 type  2   force =    -0.20208233   -0.04781050    0.10734582
     atom   70 type  1   force =     0.10962011   -0.02205860    0.16527019
     atom   71 type  2   force =    -0.05004410   -0.16361269   -0.09235088
     atom   72 type  2   force =     0.00364863   -0.00810900    0.00487527

     Total force =     1.102630     Total SCF correction =     0.000050


     Computing stress (Cartesian axis) and pressure

          total   stress  (Ry/bohr**3)                   (kbar)     P=       54.63
   0.00030758   0.00013345   0.00006229           45.25       19.63        9.16
   0.00013345   0.00041428  -0.00007742           19.63       60.94      -11.39
   0.00006229  -0.00007742   0.00039228            9.16      -11.39       57.71


     Writing all to output data dir /n/holyscratch01/kozinsky_lab/sfalletta/QE/SiO2/SiO2-T300-Ey-0/SiO2.save/

     init_run     :     18.97s CPU     19.72s WALL (       1 calls)
     electrons    :  16421.87s CPU  17152.34s WALL (       1 calls)
     forces       :      3.12s CPU      3.14s WALL (       1 calls)
     stress       :     57.41s CPU     58.01s WALL (       1 calls)

     Called by init_run:
     wfcinit      :     12.35s CPU     12.70s WALL (       1 calls)
     potinit      :      0.73s CPU      0.76s WALL (       1 calls)
     hinit0       :      0.36s CPU      0.48s WALL (       1 calls)

     Called by electrons:
     c_bands      :    751.71s CPU    757.06s WALL (      13 calls)
     sum_band     :      7.64s CPU      7.75s WALL (      13 calls)
     v_of_rho     :      0.71s CPU      0.75s WALL (      14 calls)
     mix_rho      :      0.06s CPU      0.07s WALL (      13 calls)

     Called by c_bands:
     init_us_2    :      1.78s CPU      1.81s WALL (     232 calls)
     init_us_2:cp :      1.78s CPU      1.81s WALL (     232 calls)
     cegterg      :    747.28s CPU    752.47s WALL (     104 calls)

     Called by *egterg:
     cdiaghg      :     37.54s CPU     37.85s WALL (    1251 calls)
     h_psi        :    680.15s CPU    684.87s WALL (    1259 calls)
     g_psi        :      0.23s CPU      0.24s WALL (    1147 calls)

     Called by h_psi:
     h_psi:calbec :     23.83s CPU     24.01s WALL (    1259 calls)
     vloc_psi     :     48.64s CPU     49.25s WALL (    1259 calls)
     add_vuspsi   :     16.32s CPU     16.46s WALL (    1259 calls)

     General routines
     calbec       :     27.50s CPU     27.71s WALL (    1299 calls)
     fft          :      0.45s CPU      0.59s WALL (     190 calls)
     ffts         :      0.03s CPU      0.03s WALL (      27 calls)
     fftw         :     49.62s CPU     50.22s WALL (  168234 calls)
     interpolate  :      0.07s CPU      0.07s WALL (      14 calls)

     Parallel routines

     Electric-field routines
     h_epsi_set   :   9917.16s CPU  10217.75s WALL (      13 calls)
     h_epsi_apply :    590.82s CPU    594.60s WALL (    1251 calls)
     c_phase_fiel :   5744.49s CPU   6143.83s WALL (      39 calls)

     PWSCF        :      4h35m CPU      4h48m WALL


   This run was terminated on:   0:54:30   4Feb2024            

=------------------------------------------------------------------------------=
   JOB DONE.
=------------------------------------------------------------------------------=
