
units		metal
atom_style	atomic

read_data ${STRUCTURE}.data
read_data BaTiO3-sc333.data
Reading data file ...
  orthogonal box = (0 0 0) to (11.898253 11.898253 12.912076)
  2 by 4 by 4 MPI processor grid
  reading atoms ...
  135 atoms
  read_data CPU = 0.478 seconds
replicate $L $L $L
replicate 2 $L $L
replicate 2 2 $L
replicate 2 2 2
Replication is creating a 2x2x2 = 8 times larger system...
  orthogonal box = (0 0 0) to (23.796507 23.796507 25.824152)
  2 by 4 by 4 MPI processor grid
  1080 atoms
  replicate CPU = 0.003 seconds

pair_style allegro
pair_coeff	* * ${MODEL}.pth Ba Ti O
pair_coeff	* * BaTiO3-E0.pth Ba Ti O
mass 1 137.3
mass 2 47.9
mass 3 15.9994

timestep 0.002
compute polarization all allegro polarization 3
compute allegro will evaluate the quantity polarization of length 3 (src/compute_allegro.cpp:53)
compute polarizability all allegro polarizability 9
compute allegro will evaluate the quantity polarizability of length 9 (src/compute_allegro.cpp:53)

thermo_style custom pe fmax fnorm spcpu cpuremain

variable efield equal 1e-2*36.36
fix born all addbornforce 0.0 0.0 ${efield}
fix born all addbornforce 0.0 0.0 0.3636

thermo 10
min_style fire
#minimize 0.0 1e-6 100 100
velocity all create ${TEMP} ${SEED} dist gaussian rot yes mom yes
velocity all create 320 ${SEED} dist gaussian rot yes mom yes
velocity all create 320 16300 dist gaussian rot yes mom yes
fix nvt all nvt temp ${TEMP} ${TEMP} $(100*dt)
fix nvt all nvt temp 320 ${TEMP} $(100*dt)
fix nvt all nvt temp 320 320 $(100*dt)
fix nvt all nvt temp 320 320 0.2000000000000000111
run 5000
Neighbor list info ...
  update: every = 1 steps, delay = 0 steps, check = yes
  max neighbors/atom: 2000, page size: 100000
  master list distance cutoff = 8
  ghost atom cutoff = 8
  binsize = 8, bins = 3 3 4
  1 neighbor lists, perpetual/occasional/extra = 1 0 0
  (1) pair allegro/kk, perpetual
      attributes: full, newton on, kokkos_device
      pair build: full/bin/kk/device
      stencil: full/bin/3d
      bin: kk/device
Per MPI rank memory allocation (min/avg/max) = 3.516 | 3.516 | 3.516 Mbytes
    PotEng          Fmax          Fnorm          S/CPU         CPULeft    
-807708.29      1.5953476      37.042405      0              0            
-807646.56      3.1897966      45.688508      2.1973719      2270.8956    
-807635.38      2.5460545      36.191556      25.85717       1229.4707    
-807603.15      3.2695191      39.598749      25.86948       882.04061    
-807604.22      4.2625683      50.939253      25.815334      708.23287    
-807566.68      3.512097       41.572867      25.791084      603.82935    
-807600.28      2.9503167      39.970099      25.869322      534.00121    
-807642.78      3.8650733      36.405844      25.860369      484.02291    
-807684.78      2.8187238      35.358984      25.811285      446.48779    
-807667.25      3.289606       35.124803      25.802262      417.21509    
-807652.21      3.6781402      35.624328      25.881016      393.66162    
-807658.45      2.3068817      27.097345      25.83067       374.35383    
-807629.08      2.613577       31.370789      25.817968      358.20721    
-807585.74      3.5166029      39.544457      25.778403      344.5074     
-807567.82      2.7736515      38.112075      25.866074      332.66363    
-807630.02      3.1896721      32.344664      25.847522      322.35644    
-807655.57      3.3261851      29.962609      25.812151      313.30535    
-807664.85      3.0183774      33.867437      25.824092      305.2684     
-807645.91      4.015433       44.345628      25.861794      298.06633    
-807679.95      2.7314423      36.044594      25.818876      291.59791    
-807642.63      3.7125036      39.130181      25.804168      285.74293    
-807618.51      2.8507008      38.693715      25.654829      280.4601     
-807559.49      4.0631051      46.237192      25.857862      275.5556     
-807604.25      4.1896135      49.325239      25.848549      271.04683    
-807610.65      4.0050523      39.488279      25.840021      266.88409    
-807641.49      2.9720745      35.795072      25.93294       262.99706    
-807639.97      4.8198459      45.984197      25.909139      259.38583    
-807681.7       3.0164531      38.213989      25.84804       256.02949    
-807661.02      3.0840644      36.443667      25.803754      252.89645    
-807640.03      3.6563462      32.520996      25.892211      249.93125    
-807604.51      4.0865801      35.667252      25.925465      247.13022    
-807604.8       4.0068702      43.170624      25.884095      244.49435    
-807594.09      3.108095       36.891385      25.824483      242.01211    
-807607.55      2.7268752      34.099657      25.930099      239.63452    
-807638.71      4.0484781      31.116308      25.920654      237.37604    
-807674.11      2.4964148      32.171122      25.908764      235.22692    
-807675.11      2.4121048      32.765501      25.806261      233.1955     
-807645.1       4.2202765      37.80457       25.894403      231.23644    
-807647.15      2.6992239      30.198442      25.902905      229.35863    
-807623.08      3.4615145      33.822625      25.903243      227.55725    
-807599.6       4.0100406      43.32784       25.829594      225.83931    
-807568.2       4.297946       41.388608      25.899677      224.17454    
-807620.22      3.1632752      35.881005      25.922756      222.56692    
-807649.02      4.9247974      34.721815      25.907794      221.01849    
-807673.05      3.0680332      34.979383      25.845684      219.53252    
-807640.98      4.2906956      46.165552      25.919411      218.08427    
-807664.94      2.6795123      35.559864      25.912051      216.68329    
-807646.31      3.2988651      36.05609       25.864779      215.33231    
-807626.22      3.2041559      37.511172      25.862719      214.02179    
-807563.25      3.5587068      43.342031      25.883744      212.7461     
-807597.39      3.6871528      43.833201      25.881732      211.50624    
-807620.99      3.4343563      35.289668      25.869635      210.30145    
-807653.68      2.7216603      32.71726       25.899678      209.12427    
-807639.66      4.2972308      41.829947      25.921498      207.97419    
-807671.9       2.4669997      34.563781      25.868465      206.85896    
-807665.66      3.1621546      33.604258      25.814561      205.77675    
-807644.07      3.1976603      31.35597       25.8851        204.71099    
-807600.27      3.0925927      35.227948      25.903068      203.66699    
-807596.61      3.4365824      38.652742      25.916745      202.64412    
-807602.41      3.5287723      39.231496      25.821227      201.65352    
-807618.24      3.576519       32.873657      25.863657      200.67836    
-807632.9       3.6134559      33.7055        25.925694      199.71585    
-807664.09      2.705881       33.286046      25.9207        198.77246    
-807673.91      2.5215756      35.110587      25.812569      197.85799    
-807648.8       4.31346        37.446542      25.839885      196.9572     
-807632.72      2.8566876      33.818695      25.893138      196.06688    
-807616.53      3.6610823      34.610022      25.874533      195.19368    
-807602.35      4.63277        44.482394      25.817116      194.34055    
-807578.94      4.9219548      40.74966       25.88467       193.49471    
-807611         3.0642488      36.786386      25.927046      192.65823    
-807644.44      4.2321411      35.767895      25.919156      191.83536    
-807672.37      2.8067278      36.289385      25.816464      191.03408    
-807648.65      4.2767937      41.636318      25.868157      190.23969    
-807651.57      2.8639783      35.935277      25.889181      189.45463    
-807641.39      3.4681281      34.745257      25.842912      188.68434    
-807626.03      3.2920278      37.422105      25.863643      187.92251    
-807574.41      3.2144204      39.552939      25.924351      187.1655     
-807586.51      3.4301064      40.759794      25.918917      186.41859    
-807621.68      3.5336781      33.619105      25.879584      185.6841     
-807656.41      3.1275775      32.189617      25.828162      184.96252    
-807646.28      4.507872       38.567979      25.856362      184.24709    
-807656.04      3.4162372      36.49847       25.810037      183.54336    
-807662.57      3.3535833      34.12156       25.842077      182.8449     
-807646.08      3.1679309      32.238733      25.851185      182.15326    
-807602.4       2.9752145      35.395704      25.901358      181.46517    
-807584.39      3.5242882      39.03977       25.912496      180.78337    
-807602.48      4.1368854      39.797747      25.867694      180.11167    
-807624.27      3.7870493      33.817249      25.840137      179.44849    
-807633.68      3.8059899      34.666633      25.8917        178.78797    
-807650.92      4.2374741      36.843732      25.896486      178.13328    
-807669.89      2.8559358      35.738077      25.843836      177.48815    
-807652.43      3.8556973      36.085459      25.827314      176.8498     
-807630.15      2.8586636      34.519592      25.898809      176.21218    
-807605.6       3.0616252      36.118573      25.93137       175.57784    
-807605.52      4.0500224      43.111717      25.880838      174.95204    
-807592.32      3.7428993      38.6292        25.83086       174.33448    
-807613.64      2.9005139      35.195599      25.870358      173.71922    
-807638.36      4.1590936      35.079812      25.913218      173.10602    
-807669.03      2.6959512      35.156934      25.823206      172.50299    
-807656.84      3.1312414      36.030093      25.775506      171.90721    
-807646.16      2.9535299      35.073188      25.834109      171.31207    
-807633.27      3.3612827      34.380402      25.870298      170.71891    
-807626.18      3.2198687      35.907866      25.898313      170.12817    
-807591.02      3.1280227      37.479949      25.849971      169.54418    
-807589.05      3.0743544      38.939428      25.871158      168.96279    
-807619.99      2.6357296      33.260378      25.892819      168.38388    
-807657.11      2.5016011      32.107434      25.839484      167.81158    
-807656.34      3.5560924      34.476611      25.814295      167.24412    
-807650.23      3.2785814      35.945919      25.900266      166.67533    
-807654.41      2.868066       33.213112      25.858687      166.11213    
-807645.07      3.0250329      31.523119      25.812415      165.55459    
-807612.93      3.0005842      34.13392       25.837698      164.99878    
-807583.68      3.4036108      37.356573      25.893657      164.4431     
-807604.86      3.5350726      37.408227      25.91379       163.88938    
-807629.68      2.9896191      32.991066      25.829899      163.34285    
-807646.09      2.7211173      32.115409      25.861129      162.79753    
-807644.84      3.4188303      37.356173      25.889976      162.25352    
-807663.83      2.7413443      34.273928      25.8704        161.71316    
-807651.7       2.9048839      35.232307      25.815425      161.17807    
-807635.82      2.6520514      33.271683      25.859971      160.64333    
-807597.71      3.5474288      37.229665      25.833763      160.1123     
-807605.08      3.5004372      40.289393      25.902735      159.58042    
-807603.83      2.8255132      36.794648      25.795622      159.0559     
-807625.85      2.7801997      33.253691      25.77177       158.5347     
-807631.71      3.4653787      36.477164      25.847012      158.01223    
-807662.08      2.9875065      34.714883      25.859592      157.49136    
-807658.51      3.4246339      35.269858      25.811493      156.97475    
-807647.72      2.7364638      33.445684      25.862731      156.45793    
-807622.36      3.9443496      35.355299      25.898462      155.94159    
-807620.54      3.2023038      35.1639        25.915206      155.42656    
-807600.06      3.7184824      38.104112      25.811065      154.91794    
-807599.63      2.9881599      36.886433      25.868011      154.40877    
-807617.65      3.8064346      33.855963      25.833791      153.90288    
-807650.57      3.3464789      33.364753      25.859578      153.39772    
-807659.99      3.0327019      34.228821      25.849247      152.89475    
-807649.63      3.4687946      36.289747      25.84369       152.39372    
-807643.3       3.4965053      34.475274      25.785341      151.89671    
-807637.76      3.3524715      33.559842      25.885928      151.3973     
-807615.51      3.4497765      36.989443      25.796086      150.90307    
-807586.11      3.9625347      39.323754      25.871938      150.40741    
-807599.8       3.3191128      37.262419      25.881576      149.91294    
-807630.26      3.835726       33.815174      25.878016      149.42014    
-807652.4       2.7157515      33.641451      25.840575      148.93025    
-807645.73      3.6738574      37.244752      25.912138      148.43914    
-807654.93      2.8923054      34.977307      25.854059      147.95162    
-807649.31      3.7758652      34.477363      25.85032       147.46563    
-807634.37      2.9660523      33.984563      25.85313       146.9809     
-807597.26      4.9157428      37.700453      25.844413      146.49782    
-807595.87      4.0307857      39.804074      25.857393      146.01557    
-807608.76      3.7479158      37.800394      25.847156      145.53496    
-807633.45      2.8078096      34.18039       25.823252      145.05644    
-807636.93      4.3553034      36.408677      25.900111      144.57648    
-807654.29      3.3996015      35.196129      25.889672      144.0981     
-807655.55      2.9691738      35.738583      25.840775      143.62259    
-807646.22      3.0908059      35.034858      25.866955      143.14734    
-807617.87      3.5404125      35.689532      25.904698      142.67199    
-807609.01      3.7149854      36.797993      25.927364      142.19704    
-807601.6       3.9415956      39.308068      25.842487      141.72599    
-807610.84      3.3774566      36.350015      25.820891      141.25671    
-807620.64      3.6489563      34.725077      25.851524      140.78747    
-807646.32      3.7610945      33.34164       25.891784      140.31799    
-807658.41      2.5840701      34.865662      25.843261      139.85106    
-807652         2.9193165      34.337442      25.801762      139.38643    
-807636.75      2.7545326      33.187818      25.813131      138.92238    
-807629.32      3.1706928      32.652191      25.833837      138.45864    
-807615.13      3.4400179      35.713751      25.807161      137.99663    
-807597.3       3.5167407      37.394248      25.798968      137.53577    
-807604.62      3.236299       36.374048      25.851898      137.07421    
-807631.52      3.7684897      33.4988        25.888839      136.61244    
-807654.61      2.7773886      33.662315      25.859163      136.15244    
-807650.41      3.2610379      35.491196      25.825921      135.69426    
-807648.38      3.4191993      34.430125      25.813489      135.23728    
-807641.91      3.112637       34.080558      25.845551      134.78018    
-807633.98      2.8224391      33.086535      25.845038      134.32392    
-807601.91      3.126221       35.409454      25.868535      133.86779    
-807597.31      3.2959902      36.683555      25.859569      133.4127     
-807614.85      2.8709777      34.404378      25.835394      132.95906    
-807640.58      3.3085593      32.714288      25.797755      132.5072     
-807645.1       3.2520191      34.376589      25.816365      132.05556    
-807652.52      3.0426391      34.733215      25.833134      131.60418    
-807652.68      3.2920695      35.071749      25.81026       131.15413    
-807645.38      2.860744       33.468877      25.802622      130.70498    
-807619.95      3.8718395      33.675205      25.865348      130.25485    
-807603         3.3012818      36.220835      25.900359      129.80452    
-807604.19      2.9844109      36.277494      25.916158      129.35448    
-807619.69      3.0491696      34.222679      25.828721      128.90736    
-807632.86      3.5942952      32.099706      25.885226      128.45945    
-807643.96      2.8549817      34.091471      25.768695      128.01513    
-807657.38      3.6126236      33.447028      25.829405      127.5699     
-807651.87      2.8801495      33.915816      25.83539       127.12513    
-807635.32      3.6390188      32.667389      25.844875      126.68073    
-807618.71      2.8021295      34.447026      25.882905      126.23602    
-807610.03      3.2993151      36.944302      25.878096      125.79203    
-807605.02      3.0710619      36.429738      25.869932      125.34883    
-807613.88      2.9248293      34.946254      25.88897       124.90577    
-807631.17      3.8587589      33.865962      25.856772      124.46404    
-807652.53      2.829211       33.854211      25.83814       124.02331    
-807651.77      3.7002321      35.1786        25.787352      123.58429    
-807643.77      3.1513514      34.894142      25.834019      123.14473    
-807633.54      3.7845356      34.26542       25.826941      122.70585    
-807626.59      2.9730456      34.028975      25.84858       122.267      
-807605.53      3.1597107      36.086922      25.882016      121.82792    
-807599.61      2.9621557      36.66978       25.880042      121.38941    
-807614.35      3.1739941      34.171689      25.897019      120.95105    
-807641.4       2.8754119      33.158425      25.862138      120.51395    
-807647.42      3.8015395      34.67988       25.836872      120.07788    
-807645.69      3.551026       36.013565      25.848174      119.64205    
-807645.32      3.4196481      34.871026      25.834154      119.207      
-807641.3       3.5609107      33.839927      25.797132      118.77318    
-807618.87      3.8274988      35.310812      25.84147       118.33888    
-807601.15      3.6799072      37.622439      25.891587      117.90399    
-807603.11      3.730517       37.591127      25.892322      117.46955    
-807625.09      3.6435959      34.930175      25.836737      117.0367     
-807636.65      4.9404794      34.587107      25.832733      116.60435    
-807642.59      3.5841939      35.497818      25.872788      116.17163    
-807650.27      4.3966549      35.626765      25.85538       115.73968    
-807648.54      3.6219741      34.614425      25.833889      115.30858    
-807633.65      3.1439773      34.015793      25.863787      114.87729    
-807612.19      3.7730223      34.993274      25.862157      114.44645    
-807606.3       3.4167815      35.949093      25.868109      114.01589    
-807610.81      2.9212443      36.45243       25.855465      113.58598    
-807621.84      3.091809       33.961916      25.813924      113.15724    
-807633.35      3.7096789      34.174508      25.830782      112.72856    
-807649.52      3.479142       34.770954      25.82972       112.30027    
-807650.97      3.1480567      35.397345      25.81048       111.87271    
-807644.27      3.5765819      34.331112      25.817764      111.44537    
-807626.41      3.11294        35.020636      25.848768      111.01781    
-807617.66      3.0192025      35.200516      25.821642      110.59111    
-807608.34      3.8834776      37.089804      25.81586       110.16485    
-807610.48      2.9759412      35.58605       25.860622      109.73814    
-807619.62      3.1862866      34.35711       25.907053      109.31097    
-807640.17      2.8539223      34.570176      25.874824      108.88471    
-807649.69      2.866122       34.821775      25.855826      108.45912    
-807648.16      2.8294637      35.11302       25.866078      108.03369    
-807638.21      3.3069318      35.480611      25.854341      107.6088     
-807631.76      2.7311299      34.591431      25.873585      107.1839     
-807620.23      3.0711696      35.596216      25.856494      106.75961    
-807604.16      3.1594974      37.435402      25.838506      106.33594    
-807607.55      3.1190448      36.543376      25.83644       105.91261    
-807627.38      3.3658643      34.877698      25.866256      105.4891     
-807642.88      3.0783338      33.421077      25.852628      105.06611    
-807645.69      3.0480299      34.702733      25.859552      104.64332    
-807643.76      4.5473839      35.267212      25.868532      104.22067    
-807644.1       2.6833386      33.66297       25.836329      103.79884    
-807633.71      3.1815545      33.086853      25.854276      103.37701    
-807614.4       2.7027179      34.076565      25.859534      102.95538    
-807604.8       3.4427389      35.507099      25.887745      102.53361    
-807617.06      3.1064133      34.229212      25.883389      102.11218    
-807630.5       3.3614794      33.591396      25.828583      101.69187    
-807637.67      2.7720101      33.95679       25.866817      101.27125    
-807644.2       4.1452662      35.13323       25.869929      100.85086    
-807649.26      2.59539        33.60979       25.855882      100.43095    
-807643.23      3.1577157      34.198429      25.841952      100.0115     
-807624.68      2.7953106      34.201771      25.839406      99.592347    
-807613.27      2.7566775      34.847304      25.843855      99.173382    
-807613.23      3.1241547      35.097644      25.862602      98.7544      
-807617.85      3.844971       35.12396       25.881821      98.335396    
-807624.58      3.6470261      34.102561      25.901692      97.916367    
-807641.45      2.9574725      33.185778      25.868854      97.498051    
-807649.85      3.8152458      33.810855      25.876063      97.079882    
-807648.23      2.8023789      33.650617      25.826468      96.662641    
-807636.08      3.5052829      33.517479      25.84219       96.245414    
-807628.7       3.4697396      33.238046      25.879276      95.827915    
-807617.1       3.7961424      34.651563      25.880778      95.410633    
-807610.81      3.6160989      36.59679       25.859146      94.993873    
-807613.56      3.4324374      34.560291      25.861934      94.577303    
-807630.84      3.9808879      33.107279      25.863971      94.16093     
-807643.47      2.9160027      34.152004      25.855322      93.744894    
-807647.44      2.727487       34.258025      25.836231      93.329324    
-807641.82      3.0112525      34.455658      25.812337      92.914273    
-807637.8       3.5381749      34.096507      25.81843       92.499349    
-807628.21      3.0209316      33.474497      25.855718      92.084156    
-807612.15      3.576837       36.30176       25.866583      91.669037    
-807607.41      3.4032756      35.658247      25.887961      91.253861    
-807616.8       4.1146395      34.805163      25.895906      90.838798    
-807633.42      3.4872895      33.709935      25.84156       90.42461     
-807640.84      3.5366733      34.297976      25.804224      90.011074    
-807643.08      5.2400187      35.170783      25.830423      89.597408    
-807643.78      3.9710347      34.438351      25.824665      89.184003    
-807638.43      4.0016393      33.979589      25.805019      88.771018    
-807623.51      3.2968185      33.600368      25.861589      88.35755     
-807608.81      2.8078721      35.489376      25.868672      87.94419     
-807608.9       2.5987296      35.331033      25.863976      87.531074    
-807622.55      2.9592737      34.513932      25.883707      87.117919    
-807630.96      2.7967727      34.103268      25.863597      86.705181    
-807639.07      2.9232045      34.570323      25.826659      86.293044    
-807645.65      3.9641613      35.098935      25.810867      85.881258    
-807645.49      3.1452875      35.10722       25.826659      85.469467    
-807633.33      3.3230861      34.685523      25.866634      85.057405    
-807619.04      3.1617667      35.004625      25.914724      84.644996    
-807610.88      3.1266966      35.653797      25.893813      84.232996    
-807614.07      3.5234587      36.124908      25.849566      83.821647    
-807619.02      2.8580613      33.937814      25.8424        83.410544    
-807630.78      3.1789118      34.194157      25.83998       82.99963     
-807642.76      4.2622054      34.526141      25.817829      82.589112    
-807648.3       3.0657539      34.627758      25.820916      82.178718    
-807638.98      4.3687557      35.078796      25.791916      81.768782    
-807630.88      3.5499319      34.326478      25.841476      81.358486    
-807623.48      2.7264945      33.926915      25.86477       80.948111    
-807611.73      3.4683638      35.995771      25.842106      80.538122    
-807610.66      3.1454134      34.58093       25.802062      80.128687    
-807620.29      3.6148623      34.290383      25.845717      79.718965    
-807635.99      3.4825632      33.852164      25.829351      79.309555    
-807645.53      2.7222125      33.100355      25.821885      78.900364    
-807643.76      3.5083021      34.431534      25.830358      78.491236    
-807640.58      2.7376765      33.324999      25.841756      78.082142    
-807635.82      3.0071063      33.124815      25.849907      77.673116    
-807621.85      3.3907491      33.934043      25.841001      77.264318    
-807610.6       2.6407697      35.775672      25.846244      76.855613    
-807611.17      2.7565103      35.096545      25.861776      76.446906    
-807626.8       2.6855439      33.993358      25.829174      76.038639    
-807636.94      3.1129514      33.17268       25.82093       75.630584    
-807644.55      3.6216054      33.495074      25.819542      75.222674    
-807644.03      3.2577285      34.579295      25.848418      74.814637    
-807646.19      3.1887593      33.215425      25.873777      74.406511    
-807631.22      3.6663513      33.094885      25.862663      73.99862     
-807619.2       4.0553411      34.163934      25.85683       73.590914    
-807611.32      3.3923905      35.068693      25.85746       73.183334    
-807616.84      3.9291302      35.986759      25.866803      72.775806    
-807625.15      3.4109203      34.370986      25.84274       72.368613    
-807634.8       3.2198785      34.392737      25.87684       71.96126     
-807644.01      2.998909       33.748017      25.856634      71.554205    
-807647.55      2.9824813      34.282144      25.843547      71.147385    
-807638.93      3.3627442      34.505075      25.849251      70.740641    
-807628.53      2.8421299      33.880652      25.853523      70.333985    
-807617.82      4.0048869      34.306531      25.850765      69.927474    
-807614.72      2.9944391      35.598012      25.819457      69.521334    
-807612.88      2.7216472      35.708632      25.834197      69.115192    
-807623.75      3.2939768      34.929428      25.875964      68.708838    
-807637.88      2.940678       34.278269      25.865288      68.302688    
-807644.83      3.7458858      35.078359      25.830846      67.896923    
-807643.66      3.5724411      35.552119      25.812531      67.49141     
-807636.13      3.2349313      34.814563      25.809414      67.08603     
-807628.51      3.873083       35.010796      25.803386      66.680803    
-807617.12      3.1961875      35.732718      25.845986      66.275364    
-807609.22      3.2416672      35.998998      25.860014      65.869933    
-807613.84      3.0929248      35.300363      25.85624       65.46464     
-807627.5       3.7274365      34.462962      25.853813      65.059476    
-807639.08      3.4417228      34.144882      25.83238       64.654573    
-807642.63      3.4748621      33.99327       25.815333      64.249897    
-807642.12      3.1504241      34.790901      25.822079      63.845276    
-807636.8       3.5032097      34.475251      25.830534      63.440697    
-807625.73      3.881059       35.137658      25.815393      63.036325    
-807614.47      3.2146586      35.787342      25.854359      62.631785    
-807610.58      3.3157664      36.005007      25.87235       62.227226    
-807617.07      2.8925999      36.118994      25.869162      61.822793    
-807629.99      3.4531538      34.258923      25.852916      61.418571    
-807638.99      3.0701699      33.246492      25.862872      61.014385    
-807642.17      3.8361114      34.76263       25.858505      60.610327    
-807644.18      3.7522155      34.459697      25.843257      60.206468    
-807636.06      3.5826976      34.352533      25.801405      59.802974    
-807625.23      3.6935518      33.599053      25.857338      59.399215    
-807613.54      4.2161543      35.66949       25.871055      58.995467    
-807612.36      3.1401873      35.82001       25.82738       58.592088    
-807619.41      3.0891842      34.470051      25.82806       58.188797    
-807629.45      3.1252202      34.111115      25.853056      57.785443    
-807638.96      3.952077       33.723695      25.848422      57.382211    
-807645.98      3.1434451      34.319569      25.837148      56.979138    
-807643.68      4.223405       33.954274      25.798769      56.576383    
-807634.06      3.6045606      34.158976      25.831084      56.173521    
-807623.49      3.1804023      34.14745       25.846476      55.770658    
-807614.4       2.9702116      35.239529      25.860513      55.367802    
-807613.52      3.0581773      35.183647      25.890263      54.964866    
-807619.05      2.4404049      34.423687      25.867877      54.562148    
-807631.81      3.2503731      34.267185      25.876193      54.159472    
-807643.08      2.5956277      33.136037      25.844806      53.757059    
-807644.95      2.9867694      33.819043      25.861859      53.354637    
-807642.61      2.8751481      33.701478      25.860126      52.95231     
-807633.41      2.6732955      34.009446      25.860037      52.550068    
-807623.83      2.5520044      33.739543      25.827967      52.148082    
-807615.08      2.7755034      34.73086       25.810563      51.746267    
-807613.56      2.741961       35.027071      25.890534      51.344113    
-807622.03      3.0450693      34.732951      25.874276      50.942129    
-807632.51      2.639772       34.132603      25.842628      50.540389    
-807642.01      3.8040767      34.128474      25.821255      50.138836    
-807643.13      3.1519788      34.354283      25.81215       49.737404    
-807640.91      2.741326       33.255127      25.797482      49.33612     
-807632.35      3.6469623      34.194878      25.821585      48.93479     
-807623.31      3.0287579      33.914309      25.872294      48.533289    
-807612.08      2.5973016      35.280262      25.855078      48.13195     
-807614.97      3.0518726      34.63658       25.860163      47.730663    
-807623.65      3.6511046      34.170361      25.844335      47.329527    
-807633.04      3.3417279      34.756017      25.836691      46.928501    
-807640.35      3.0990357      34.533265      25.839941      46.527532    
-807643.27      4.198178       34.529882      25.813062      46.126759    
-807639.26      3.3278447      34.412249      25.807762      45.726078    
-807632.04      4.3609508      34.844267      25.821178      45.325406    
-807617.13      2.8919638      35.962861      25.844204      44.924704    
-807612.04      3.7553238      36.469594      25.856212      44.524019    
-807613.57      3.568416       35.847714      25.836239      44.123492    
-807623.53      2.6917542      34.686899      25.847199      43.722988    
-807634.34      2.864984       33.449579      25.8182        43.322675    
-807641.16      2.9563158      33.735781      25.80486       42.922483    
-807642.65      3.1101504      34.073521      25.7919        42.522408    
-807638.38      3.9167944      34.806412      25.845557      42.12218     
-807629.22      3.564222       34.342177      25.831005      41.722077    
-807617.36      3.0589835      35.111926      25.843453      41.32199     
-807610.88      2.8771624      35.933559      25.833512      40.922008    
-807615.43      3.1031196      35.825434      25.858715      40.521995    
-807624.41      3.6836952      34.940733      25.831508      40.122151    
-807635.07      3.6935208      34.541706      25.857963      39.722272    
-807641.31      3.2927123      35.005148      25.812429      39.322626    
-807641.94      2.9204731      35.006011      25.804181      38.923072    
-807636.85      3.4012232      34.574112      25.815756      38.523536    
-807628.22      3.0763299      33.920891      25.851712      38.123932    
-807618.17      2.8199238      35.50855       25.886846      37.724268    
-807615.42      3.1847437      35.563414      25.884637      37.324677    
-807616.43      2.796803       35.995115      25.864152      36.925222    
-807626.52      3.1592968      34.881115      25.849658      36.525878    
-807638.04      2.75243        34.721855      25.796761      36.126771    
-807640.42      3.6996563      35.936957      25.869554      35.727482    
-807641.67      2.8296938      34.069814      25.86191       35.328279    
-807634.43      2.8804603      34.598374      25.83712       34.929216    
-807627.83      4.1444359      35.296661      25.818899      34.530268    
-807618.86      2.9014636      34.816262      25.841116      34.131308    
-807614.99      3.5738535      35.444319      25.849434      33.73238     
-807618.56      2.897126       34.841572      25.824016      33.333587    
-807631.75      3.2288552      33.906013      25.826378      32.934842    
-807636.88      3.0299265      34.608651      25.822563      32.536164    
-807641.78      2.71837        33.830218      25.840333      32.137489    
-807638.83      3.2799453      34.645537      25.82349       31.738918    
-807637.89      3.4935062      33.35884       25.805576      31.34045     
-807625         2.786274       34.955206      25.837787      30.941946    
-807617.19      4.0208235      35.78278       25.842991      30.543481    
-807614.24      2.6539932      35.912631      25.829015      30.145109    
-807621.1       3.404041       35.88342       25.832356      29.74678     
-807633.42      2.7227803      33.30297       25.8573        29.348439    
-807636.43      3.7658668      35.710251      25.877026      28.950102    
-807641.68      3.2696066      34.883502      25.85518       28.551875    
-807640.53      3.2479326      35.684457      25.794423      28.153853    
-807634.06      3.2884071      35.177707      25.810498      27.755839    
-807621.7       3.2782699      36.420088      25.84079       27.357802    
-807616.19      3.910835       37.268499      25.857132      26.959778    
-807616.05      3.7209459      36.440403      25.800763      26.561936    
-807622.31      3.7724512      35.838426      25.808353      26.164124    
-807630.36      3.4847203      35.437548      25.848832      25.76627     
-807640.21      3.5185181      35.052405      25.845813      25.368472    
-807640.55      3.4352274      35.612877      25.858776      24.970696    
-807638.15      3.6076613      35.518133      25.824817      24.573042    
-807631.26      3.6595693      35.545809      25.835479      24.175414    
-807624.47      3.2789287      35.229839      25.8835        23.777736    
-807615.37      3.1613389      36.911322      25.887173      23.380102    
-807615.56      4.2580809      37.40606       25.829951      22.982632    
-807623.06      3.7186178      35.47808       25.814444      22.585238    
-807631.95      3.7217882      36.169679      25.831773      22.187856    
-807638.11      5.8120123      36.661004      25.845198      21.790496    
-807641.07      3.4926279      35.116738      25.822009      21.393225    
-807637.8       4.2990368      34.901083      25.816739      20.996008    
-807632.73      3.3731881      34.407317      25.810558      20.598845    
-807619.14      4.9476037      37.243614      25.834966      20.201685    
-807617.71      3.5244416      36.267517      25.872261      19.804507    
-807614.67      4.0178188      37.025156      25.899142      19.407333    
-807626.17      4.1596387      35.410225      25.84845       19.010288    
-807631.92      4.2212775      36.51241       25.873416      18.613249    
-807638.32      4.3427635      36.713679      25.871246      18.21626     
-807638.58      3.5014061      36.37808       25.856404      17.81934     
-807634.81      4.9342345      36.898388      25.826946      17.422506    
-807628.38      3.6575681      37.296088      25.828838      17.025712    
-807618.13      4.9553824      38.113842      25.84802       16.628933    
-807615.36      3.7741642      37.417098      25.819197      16.232236    
-807617.94      4.0321568      37.01216       25.829649      15.835567    
-807625.1       3.3682584      36.124125      25.845342      15.438918    
-807631.88      3.3501341      35.566048      25.863078      15.042291    
-807637.18      3.3294583      35.438984      25.831522      14.645743    
-807637.26      3.580793       36.031607      25.85132       14.249214    
-807636.98      4.025754       35.498159      25.802442      13.852781    
-807624.71      3.5614758      36.732258      25.811238      13.456377    
-807621.31      3.5237802      36.211695      25.830674      13.059991    
-807615.58      3.4128357      37.694382      25.839423      12.663635    
-807618.85      3.7958851      37.184413      25.85097       12.267308    
-807623.8       2.9376653      36.597334      25.876165      11.870997    
-807632.4       4.0838036      36.01695       25.851021      11.474751    
-807638.5       3.0517048      34.950822      25.839162      11.078556    
-807639.46      2.7731549      34.964581      25.807781      10.682426    
-807634.97      3.3033516      34.879846      25.812857      10.286328    
-807626.45      3.6825211      35.339066      25.832491      9.8902521    
-807622.56      2.9726808      35.056291      25.822046      9.4942213    
-807618.4       3.2768913      36.237561      25.827971      9.098223     
-807619.63      3.3424882      36.081014      25.832724      8.7022583    
-807626.65      4.2408006      35.431079      25.870854      8.3063056    
-807636.07      3.715696       35.513855      25.846873      7.910407     
-807638.45      3.4703886      36.327932      25.826564      7.5145579    
-807638.17      3.3436828      36.20099       25.84915       7.1187321    
-807632.21      3.8187167      36.379762      25.819471      6.7229591    
-807627.85      3.2047063      35.416928      25.835381      6.3272131    
-807620.52      3.0410922      35.97739       25.881684      5.9314816    
-807617.87      3.8174791      36.042797      25.873158      5.5357922    
-807623.07      3.3263173      35.389321      25.868951      5.1401422    
-807630.09      4.2959374      35.104019      25.85907       4.7445331    
-807635.93      4.418901       35.435435      25.873257      4.3489556    
-807637.18      3.7876184      35.828473      25.854882      3.9534208    
-807638.22      4.3693709      36.079687      25.838519      3.5579262    
-807634.04      4.0271562      35.374874      25.804953      3.1624742    
-807624.57      4.7336325      36.05026       25.852216      2.7670443    
-807618.59      3.4780333      36.864824      25.853705      2.371649     
-807618.58      4.3941604      36.706322      25.881525      1.9762843    
-807624.26      3.3421596      35.250372      25.860378      1.5809584    
-807628.73      4.4106256      35.250599      25.924356      1.1856614    
-807635.31      2.8444802      34.685924      25.913766      0.79040349   
-807641.33      2.828017       33.990642      25.89516       0.39518365   
-807638.86      3.3655876      35.211254      25.877601      0            
Loop time of 197.583 on 32 procs for 5000 steps with 1080 atoms

Performance: 4.373 ns/day, 5.488 hours/ns, 25.306 timesteps/s, 27.330 katom-step/s
70.9% CPU use with 32 MPI tasks x 1 OpenMP threads

MPI task timing breakdown:
Section |  min time  |  avg time  |  max time  |%varavg| %total
---------------------------------------------------------------
Pair    | 102.63     | 145.06     | 193.39     | 315.0 | 73.42
Neigh   | 0          | 0          | 0          |   0.0 |  0.00
Comm    | 1.9188     | 50.248     | 92.68      | 535.2 | 25.43
Output  | 0.025388   | 0.026537   | 0.02811    |   0.3 |  0.01
Modify  | 1.9232     | 1.9333     | 1.9437     |   0.3 |  0.98
Other   |            | 0.3117     |            |       |  0.16

Nlocal:          33.75 ave          48 max          21 min
Histogram: 8 8 0 0 0 0 0 8 0 8
Nghost:        1106.25 ave        1119 max        1092 min
Histogram: 8 0 8 0 0 0 0 0 8 8
Neighs:              0 ave           0 max           0 min
Histogram: 32 0 0 0 0 0 0 0 0 0
FullNghs:       5494.5 ave        7896 max        3378 min
Histogram: 8 8 0 0 0 0 0 8 0 8

Total # of neighbors = 175824
Ave neighs/atom = 162.8
Neighbor list builds = 0
Dangerous builds = 0

reset_timestep 0


variable interval equal 1000
thermo 10

variable nintervals equal $(v_PERIOD/v_interval)
variable nintervals equal 100
variable efield equal 1e-2*36.36*cos((step/${PERIOD})*2*3.14)
variable efield equal 1e-2*36.36*cos((step/100000)*2*3.14)
fix born all addbornforce 0.0 0.0 v_efield

variable Px equal f_born[1]+c_polarization[1]
variable Py equal f_born[2]+c_polarization[2]
variable Pz equal (f_born[3]+c_polarization[3])/vol
variable pe equal pe

fix aveP all ave/time 1 $(v_interval/2) ${interval} v_efield v_Pz v_pe f_born file Pz.${MODEL}.${STRUCTURE}.${TEMP}.$L.${ITER}
fix aveP all ave/time 1 500 ${interval} v_efield v_Pz v_pe f_born file Pz.${MODEL}.${STRUCTURE}.${TEMP}.$L.${ITER}
fix aveP all ave/time 1 500 1000 v_efield v_Pz v_pe f_born file Pz.${MODEL}.${STRUCTURE}.${TEMP}.$L.${ITER}
fix aveP all ave/time 1 500 1000 v_efield v_Pz v_pe f_born file Pz.BaTiO3-E0.${STRUCTURE}.${TEMP}.$L.${ITER}
fix aveP all ave/time 1 500 1000 v_efield v_Pz v_pe f_born file Pz.BaTiO3-E0.BaTiO3-sc333.${TEMP}.$L.${ITER}
fix aveP all ave/time 1 500 1000 v_efield v_Pz v_pe f_born file Pz.BaTiO3-E0.BaTiO3-sc333.320.$L.${ITER}
fix aveP all ave/time 1 500 1000 v_efield v_Pz v_pe f_born file Pz.BaTiO3-E0.BaTiO3-sc333.320.2.${ITER}
fix aveP all ave/time 1 500 1000 v_efield v_Pz v_pe f_born file Pz.BaTiO3-E0.BaTiO3-sc333.320.2.1

thermo_style custom step time temp press pe f_born v_efield v_Pz spcpu cpuremain

# dump 4a all custom 1000 dump.hyst.${MODEL}.${STRUCTURE}.${TEMP}.$L.${ITER}.bin id type xu yu zu fx fy fz
# dump_modify 4a sort id

fix nvt all nvt temp ${TEMP} ${TEMP} $(100*dt)
fix nvt all nvt temp 320 ${TEMP} $(100*dt)
fix nvt all nvt temp 320 320 $(100*dt)
fix nvt all nvt temp 320 320 0.2000000000000000111

run $(v_PERIOD)
run 100000
WARNING: non-constant efield is experimental, strongly distrust scalar/vector output (src/fix_addbornforce.cpp:193)
Per MPI rank memory allocation (min/avg/max) = 3.516 | 3.516 | 3.516 Mbytes
   Step          Time           Temp          Press          PotEng         f_born        v_efield         v_Pz          S/CPU         CPULeft    
         0   0              311.47954      126762        -807638.87     -292.63782      0.3636         0.055036917    0              0            
        10   0.02           324.58729      131996.58     -807632.43     -301.02985      0.36359993     0.056615232    27.713262      3608.0387    
        20   0.04           320.12129      138467.95     -807623.44     -309.37825      0.36359971     0.058185366    27.741371      3605.8407    
        30   0.06           317.06731      141019.27     -807619.72     -312.64467      0.36359935     0.058799745    27.693607      3606.9397    
        40   0.08           310.07539      143043.53     -807618.16     -313.22475      0.36359885     0.058908924    27.708168      3606.8354    
        50   0.1            313.7726       139482.73     -807621.67     -310.25986      0.36359821     0.058351413    27.669069      3607.6462    
        60   0.12           323.59534      133418.14     -807630.38     -302.84616      0.36359742     0.056957222    27.734531      3606.6459    
        70   0.14           318.53501      126714.61     -807638.86     -293.55616      0.36359649     0.055210163    27.704833      3606.3803    
        80   0.16           317.17331      124585.57     -807641.31     -290.83452      0.36359541     0.054698457    27.716299      3605.9045    
        90   0.18           317.07599      126119.78     -807637.31     -294.88385      0.36359419     0.055460218    27.663483      3606.2187    
       100   0.2            318.73382      133274.57     -807629.67     -302.73212      0.36359283     0.056936492    27.719357      3605.67      
       110   0.22           323.353        137955.15     -807624.73     -308.33675      0.36359132     0.057990826    27.733805      3604.9848    
       120   0.24           313.60411      143841.85     -807618.01     -313.56396      0.36358968     0.058974207    27.720683      3604.4953    
       130   0.26           312.76139      142040.41     -807617.48     -313.99673      0.36358788     0.059055893    27.730175      3603.9315    
       140   0.28           331.87942      139048.89     -807624.52     -309.42353      0.36358595     0.058196084    27.746021      3603.2495    
       150   0.3            321.77398      130821.86     -807632.84     -299.58369      0.36358387     0.056345738    27.716363      3602.8671    
       160   0.32           317.06585      128112.97     -807637.96     -293.58609      0.36358165     0.055218046    27.734203      3602.3426    
       170   0.34           308.68201      124107.32     -807638.55     -291.74228      0.36357928     0.054871619    27.705508      3602.0566    
       180   0.36           317.59557      128721.54     -807634.5      -296.80176      0.36357677     0.055823604    27.725127      3601.621     
       190   0.38           330.93057      132463.45     -807631.42     -301.6255       0.36357412     0.056731283    27.726797      3601.1813    
       200   0.4            327.14263      140293.77     -807621.56     -310.64398      0.36357132     0.058427976    27.72783       3600.7429    
       210   0.42           323.56181      143279.74     -807617.07     -314.45772      0.36356838     0.059145768    27.722697      3600.344     
       220   0.44           330.35239      143720.83     -807618.14     -313.93145      0.3635653      0.059047283    27.725312      3599.9329    
       230   0.46           335.67981      136651.15     -807625.71     -306.87012      0.36356207     0.057719631    27.728453      3599.5085    
       240   0.48           326.47852      131727.82     -807631.91     -299.04798      0.3635587      0.056248875    27.709167      3599.1938    
       250   0.5            322.56543      127123.24     -807636.82     -293.35048      0.36355519     0.055177748    27.71202       3598.8605    
       260   0.52           320.94979      126506.12     -807637.47     -292.24257      0.36355153     0.054969909    27.744706      3598.3622    
       270   0.54           326.82014      128813.74     -807635.26     -295.12452      0.36354773     0.055512575    27.723438      3597.976     
       280   0.56           336.5357       134800.96     -807628.17     -303.43631      0.36354379     0.057076633    27.749276      3597.4722    
       290   0.58           339.73808      140908.87     -807619.9      -312.07716      0.3635397      0.058702642    27.704899      3597.1765    
       300   0.6            326.9163       143730.84     -807615.5      -314.62179      0.36353547     0.059181985    27.733077      3596.7547    
       310   0.62           333.57225      141697.79     -807619.41     -311.45853      0.3635311      0.058587664    27.708443      3596.44      
       320   0.64           340.05253      135333.22     -807627.16     -304.65187      0.36352658     0.057307992    27.734038      3596.0187    
       330   0.66           339.38332      130596.83     -807631.85     -299.84326      0.36352192     0.056404168    27.731524      3595.6109    
       340   0.68           330.43419      125807.63     -807637.05     -293.33512      0.36351712     0.055180638    27.713785      3595.2734    
       350   0.7            330.2997       126822.59     -807638.56     -291.8173       0.36351217     0.054895861    27.721184      3594.9072    
       360   0.72           327.62443      129960.41     -807633.57     -296.62159      0.36350708     0.055800412    27.731696      3594.5037    
       370   0.74           343.41516      136554.85     -807625.76     -306.79061      0.36350185     0.057714236    27.716461      3594.1555    
       380   0.76           319.79759      141080.59     -807617.95     -311.51765      0.36349647     0.058604367    27.673473      3593.9538    
       390   0.78           326.09619      143846.02     -807617.47     -312.94423      0.36349095     0.058873636    27.720202      3593.5883    
       400   0.8            332.3481       139564.29     -807622.07     -309.54766      0.36348529     0.058235554    27.725607      3593.2056    
       410   0.82           335.28973      136145.83     -807625.59     -306.65975      0.36347948     0.05769317     27.720964      3592.8386    
       420   0.84           329.26664      129536.34     -807633.84     -297.8873       0.36347353     0.05604369     27.727932      3592.4503    
       430   0.86           314.9995       127697.69     -807637.48     -292.51377      0.36346744     0.055033651    27.734576      3592.0433    
       440   0.88           325.64866      125681.81     -807639.3      -292.53932      0.3634612      0.055039402    27.746314      3591.6041    
       450   0.9            324.06318      131358.28     -807632.04     -299.88653      0.36345482     0.056422724    27.69543       3591.3146    
       460   0.92           322.72521      135514.76     -807626.34     -305.82575      0.3634483      0.057541201    27.71533       3590.966     
       470   0.94           326.47397      141492.37     -807621.98     -310.9138       0.36344163     0.058499594    27.732744      3590.569     
       480   0.96           315.7862       141545.25     -807619.51     -312.10016      0.36343482     0.058723911    27.736768      3590.1627    
       490   0.98           324.34237      140754.45     -807621.46     -311.52333      0.36342786     0.058616499    27.737789      3589.7553    
       500   1              322.37103      134186.32     -807628.21     -304.71621      0.36342077     0.057336784    27.650514      3589.5764    
       510   1.02           322.24923      130376.85     -807635.9      -9504.2444      0.36341353     0.055887418    27.67574       3589.3262    
       520   1.04           307.76294      126647.23     -807638.57     -9357.2235      0.36340614     0.055024015    27.59639       3589.2702    
       530   1.06           320.35836      127202.38     -807638.24     -9424.415       0.36339862     0.055420274    27.569057      3589.2702    
       540   1.08           308.39413      130648.68     -807632.34     -9563.2829      0.36339095     0.056238074    27.557739      3589.2841    
       550   1.1            336.00054      135751.23     -807629.27     -9782.5316      0.36338313     0.05752863     27.652126      3589.0604    
       560   1.12           319.39841      140308.12     -807621.92     -9947.0153      0.36337518     0.058497199    27.724835      3588.6635    
       570   1.14           315.97049      142896.65     -807618.35     -10046.588      0.36336707     0.059084092    27.725753      3588.2656    
       580   1.16           309.31602      139680.61     -807621.4      -9919.5217      0.36335883     0.058338136    27.725753      3587.869     
       590   1.18           320.54868      134354.01     -807629.94     -9694.004       0.36335044     0.05701315     27.715202      3587.4968    
       600   1.2            321.19565      128195.03     -807636.32     -9491.1818      0.36334191     0.055821606    27.736618      3587.0789    
       610   1.22           309.9052       127417.24     -807638.12     -9381.4938      0.36333324     0.055177803    27.724153      3586.6892    
       620   1.24           309.03914      127270.64     -807637.55     -9395.0152      0.36332442     0.055258671    27.719264      3586.3107    
       630   1.26           324.983        131402.35     -807634.36     -9566.5862      0.36331546     0.056269187    27.585949      3586.2076    
       640   1.28           323.6188       136579.72     -807627.17     -9792.4747      0.36330636     0.057599272    27.720578      3585.8232    
       650   1.3            322.82467      141503.17     -807620.88     -9986.8367      0.36329711     0.058744004    27.734507      3585.4119    
       660   1.32           313.07359      141297.35     -807619.29     -9992.0752      0.36328772     0.058776336    27.706112      3585.0576    
       670   1.34           314.85463      139440.26     -807622.67     -9888.6328      0.36327819     0.058169384    27.641382      3584.8285    
       680   1.36           319.46745      134030.92     -807629.28     -9695.4519      0.36326851     0.057034526    27.573826      3584.7249    
       690   1.38           318.92128      128942.59     -807634.66     -9517.0463      0.36325869     0.05598655     27.589271      3584.5846    
       700   1.4            310.72267      126883.76     -807638.15     -9364.53        0.36324873     0.055090843    27.97543       3583.7282    
       710   1.42           318.93345      128222.73     -807638.1      -9398.7827      0.36323863     0.055293888    28.065486      3582.7255    
       720   1.44           326.12287      131396.83     -807632.28     -9614.9806      0.36322838     0.056567396    28.109642      3581.6635    
       730   1.46           329.1688       137272.4      -807625.11     -9854.2643      0.36321798     0.057976821    28.154867      3580.5432    
       740   1.48           321.84428      140056.15     -807620.61     -9961.56        0.36320745     0.058609788    28.151186      3579.4499    
       750   1.5            317.89305      141512.88     -807619.8      -9964.7771      0.36319677     0.05863044     28.087503      3578.4828    
       760   1.52           327.74642      137921.14     -807623.98     -9870.2667      0.36318595     0.058076093    28.088748      3577.5296    
       770   1.54           320.65537      134437.61     -807628.49     -9688.2085      0.36317498     0.057006594    28.128921      3576.5264    
       780   1.56           324.60972      128233.5      -807636.36     -9448.0638      0.36316387     0.055595254    28.146809      3575.5112    
       790   1.58           317.2208       127070.73     -807637.9      -9357.3468      0.36315262     0.055063154    28.143335      3574.5181    
       800   1.6            326.03344      128292.95     -807636.49     -9437.4956      0.36314122     0.055536531    28.10418       3573.6025    
       810   1.62           320.71855      134243.85     -807627.71     -9689.2871      0.36312968     0.057020053    28.115786      3572.6825    
       820   1.64           328.00839      137429.06     -807624.59     -9817.1269      0.363118       0.057774229    28.12101       3571.7685    
       830   1.66           324.91526      142196.13     -807619.37     -9963.1455      0.36310618     0.058635465    28.100755      3570.8984    
       840   1.68           329.07527      140677.5      -807619.31     -9979.5935      0.36309421     0.058734201    28.043757      3570.126     
       850   1.7            323.54875      139043.02     -807621.48     -9878.1068      0.3630821      0.058138848    28.039457      3569.3697    
       860   1.72           327.87545      131364.86     -807631.52     -9570.6722      0.36306984     0.056331304    28.073911      3568.5724    
       870   1.74           332.13713      129074.84     -807635.67     -9446.8518      0.36305745     0.055604417    28.060267      3567.8048    
       880   1.76           314.36983      126309.19     -807635.08     -9383.2158      0.3630449      0.055231762    28.084445      3567.0121    
       890   1.78           315.10153      131582.52     -807631.16     -9505.4549      0.36303222     0.055953244    28.081834      3566.2328    
       900   1.8            330.31809      133346.01     -807629.66     -9619.3883      0.36301939     0.056625907    28.087327      3565.4553    
       910   1.82           345.78952      139580.32     -807623.45     -9878.7112      0.36300642     0.058154526    28.101736      3564.6672    
       920   1.84           319.98415      142498.07     -807616.52     -9985.2303      0.36299331     0.058783712    28.088605      3563.9064    
       930   1.86           337.24482      141133.31     -807620        -9944.5604      0.36298005     0.058546423    28.100832      3563.1378    
       940   1.88           345.43886      135869.17     -807626.44     -9771.2259      0.36296665     0.057528078    28.077154      3562.4096    
       950   1.9            336.21979      131496.83     -807631.59     -9562.8013      0.36295311     0.05630308     28.028507      3561.7537    
       960   1.92           325.16423      129304.18     -807633.56     -9446.8545      0.36293942     0.055622515    27.985376      3561.1607    
       970   1.94           324.75576      127186.99     -807635.94     -9370.4853      0.36292559     0.05517496     28.044076      3560.4963    
       980   1.96           331.37492      131734.05     -807632.18     -9519.3013      0.36291162     0.056053371    28.074385      3559.7991    
       990   1.98           330.10072      134494.77     -807627.15     -9680.5957      0.3628975      0.057005353    28.107027      3559.0676    
      1000   2              343.52052      140552.21     -807621.46     -9923.6774      0.36288325     0.058439065    28.029637      3558.4409    
      1010   2.02           328.27143      140880.16     -807619.31     -310.38454      0.36286884     0.058492195    28.192054      3557.618     
      1020   2.04           328.22807      141908.58     -807619.46     -310.32722      0.3628543      0.058483737    28.131568      3556.8783    
      1030   2.06           339.4202       135773.67     -807627.23     -304.4544       0.36283961     0.057379278    28.135012      3556.1419    
      1040   2.08           324.15525      132202.57     -807630.08     -299.80871      0.36282478     0.056506033    28.174191      3555.3657    
      1050   2.1            324.95257      126785.02     -807636.57     -293.82602      0.3628098      0.05538074     28.196329      3554.5714    
      1060   2.12           297.91216      129946.26     -807633.57     -293.34782      0.36279469     0.055292912    28.168732      3553.8177    
      1070   2.14           331.06958      129685.76     -807635.25     -296.68245      0.36277943     0.055923806    28.169491      3553.0707    
      1080   2.16           332.60887      136180.93     -807627.53     -304.95945      0.36276402     0.057486439    28.162416      3552.3391    
      1090   2.18           333.8285       139237.16     -807624.22     -308.79019      0.36274848     0.058211048    28.131192      3551.65      
      1100   2.2            321.66751      141949.34     -807620.9      -310.63526      0.36273279     0.0585614      28.088621      3551.0156    
      1110   2.22           325.50002      139001.96     -807623.96     -308.36671      0.36271695     0.058136269    28.051729      3550.4279    
      1120   2.24           325.43859      135619.57     -807627.28     -305.24361      0.36270098     0.057550005    28.069118      3549.8248    
      1130   2.26           319.07676      130030.48     -807633.91     -297.88748      0.36268486     0.056165593    28.115863      3549.1742    
      1140   2.28           306.39526      127633.14     -807636.99     -293.10197      0.3626686      0.05526578     28.136886      3548.5058    
      1150   2.3            316.30525      128605.82     -807637.25     -294.30482      0.36265219     0.055495093    28.140575      3547.8388    
      1160   2.32           309.69199      131448.68     -807632.05     -298.76998      0.36263564     0.05633963     28.150782      3547.1662    
      1170   2.34           326.62547      136188.11     -807628.99     -304.17762      0.36261895     0.057361998    28.132994      3546.518     
      1180   2.36           322.32153      138033.27     -807624.7      -307.98867      0.36260212     0.058083385    28.163667      3545.8423    
      1190   2.38           315.90662      142448.05     -807620.27     -311.48236      0.36258514     0.058745008    28.130291      3545.207     
      1200   2.4            320.84548      137689.64     -807624.05     -308.5075       0.36256802     0.058186702    28.211057      3544.4926    
      1210   2.42           324.36356      135411.11     -807628.69     -304.28897      0.36255076     0.057393791    28.207222      3543.7881    
      1220   2.44           319.5611       129065.53     -807636.56     -295.82015      0.36253335     0.055799113    28.208089      3543.0884    
      1230   2.46           306.67793      129140.64     -807635.58     -294.8794       0.3625158      0.055624358    28.172889      3542.4299    
      1240   2.48           305.75021      126531.48     -807636.57     -293.89695      0.36249811     0.055441739    28.136062      3541.8133    
      1250   2.5            325.18923      132477.61     -807633.19     -299.87442      0.36248028     0.056572134    28.1436        3541.1934    
      1260   2.52           317.48336      135027.74     -807628.76     -303.29997      0.3624623      0.057221212    28.185672      3540.5361    
      1270   2.54           318.47424      141184.81     -807621.87     -310.14671      0.36244418     0.058515856    28.137456      3539.9308    
      1280   2.56           325.79242      139006.27     -807623.49     -309.58512      0.36242592     0.058412843    28.188824      3539.2795    
      1290   2.58           321.07694      139131.57     -807624.54     -307.71938      0.36240751     0.058063763    28.212246      3538.6102    
      1300   2.6            323.59085      132736.02     -807631.79     -300.7703       0.36238896     0.056755441    28.191027      3537.9661    
      1310   2.62           313.08688      130406.11     -807633.61     -297.26691      0.36237027     0.056097245    28.174829      3537.3417    
      1320   2.64           317.35427      126317.75     -807637.09     -294.34789      0.36235143     0.055549284    28.158284      3536.737     
      1330   2.66           304.5574       130545.36     -807633.84     -295.59942      0.36233245     0.055788395    28.165269      3536.1295    
      1340   2.68           321.72386      132097.84     -807633.15     -298.62971      0.36231333     0.056363274    28.154524      3535.5357    
      1350   2.7            328.86647      137687.66     -807625.62     -306.93297      0.36229407     0.057933509    28.157536      3534.9428    
      1360   2.72           315.80083      139846.57     -807621.3      -309.34241      0.36227466     0.058391417    28.136781      3534.3723    
      1370   2.74           323.75315      140667.34     -807622.62     -308.85723      0.36225511     0.058302983    28.170184      3533.7746    
      1380   2.76           321.80091      136352.14     -807625.8      -305.22791      0.36223542     0.057621007    28.188635      3533.1638    
      1390   2.78           317.01587      133384.86     -807628.17     -301.89019      0.36221558     0.056994033    28.191743      3532.554     
      1400   2.8            320.8652       128995.96     -807634.46     -295.90549      0.3621956      0.055867259    28.14729       3531.9872    
      1410   2.82           324.6505       128213.76     -807637.07     -293.49582      0.36217548     0.05541539     28.106337      3531.4597    
      1420   2.84           321.44122      129774.79     -807633.94     -295.96421      0.36215522     0.055884576    28.130352      3530.9134    
      1430   2.86           330.36577      133264.73     -807629.45     -301.43666      0.36213481     0.056921104    28.124583      3530.3748    
      1440   2.88           332.58137      137471.45     -807625.27     -305.7272       0.36211426     0.057734575    28.164027      3529.8048    
      1450   2.9            316.54801      139991.62     -807620.05     -308.46923      0.36209357     0.058255717    28.176076      3529.2273    
      1460   2.92           326.28001      140334.21     -807621.11     -308.59685      0.36207273     0.058283173    28.2076        3528.6262    
      1470   2.94           328.32404      136813.14     -807624.21     -305.60769      0.36205176     0.057721969    28.19232       3528.0413    
      1480   2.96           332.40884      133630.16     -807630.31     -299.83548      0.36203064     0.05663504     28.216038      3527.4396    
      1490   2.98           323.57273      128240.82     -807634.76     -294.0015       0.36200937     0.05553634     28.216599      3526.8408    
      1500   3              331.60133      129394.68     -807634.36     -295.28877      0.36198796     0.055782801    28.231777      3526.2327    
      1510   3.02           330.43298      129707.43     -807633.41     -9475.0916      0.36196642     0.05593874     28.14297       3525.7009    
      1520   3.04           337.89547      135867.53     -807628.87     -9649.1756      0.36194472     0.056969905    28.144507      3525.1701    
      1530   3.06           321.41234      137535.99     -807623.2      -9760.1841      0.36192289     0.05762879     28.058683      3524.7117    
      1540   3.08           324.11069      141590.68     -807618.65     -9913.788       0.36190091     0.058539295    28.068061      3524.2469    
      1550   3.1            327.91462      138491.34     -807621.94     -9827.7515      0.36187879     0.058034811    28.114372      3523.7463    
      1560   3.12           342.15916      137490.5      -807626.09     -9755.1458      0.36185653     0.057609604    28.147501      3523.2211    
      1570   3.14           332.81396      130650.62     -807631.59     -9541.9883      0.36183412     0.056354279    28.102636      3522.7336    
      1580   3.16           325.53084      131110.15     -807632.69     -9474.7436      0.36181157     0.055960624    28.105278      3522.2456    
      1590   3.18           329.92055      128103.89     -807635.41     -9414.8879      0.36178888     0.055610587    28.065849      3521.7903    
      1600   3.2            322.78303      131788.62     -807631.51     -9513.0044      0.36176605     0.056193674    28.099624      3521.3099    
      1610   3.22           323.29054      133609.36     -807628.42     -9626.1654      0.36174307     0.056865732    28.115344      3520.8189    
      1620   3.24           327.69697      138595.65     -807623.33     -9820.0437      0.36171995     0.058014759    28.08471       3520.3531    
      1630   3.26           311.49473      140185.78     -807620.02     -9868.4926      0.36169669     0.058304735    28.074374      3519.8966    
      1640   3.28           323.78522      139152.44     -807624.66     -9789.023       0.36167329     0.057838957    28.087007      3519.4317    
      1650   3.3            326.68633      135218.7      -807628.72     -9687.3836      0.36164974     0.057242143    28.109604      3518.951     
      1660   3.32           326.94297      130842.88     -807632.9      -9567.5524      0.36162605     0.056537771    28.102183      3518.4774    
      1670   3.34           314.48465      129910.07     -807634.67     -9466.0751      0.36160222     0.055941795    28.108296      3518.0007    
      1680   3.36           309.60597      128566.6      -807635.83     -9414.8924      0.36157824     0.055643009    28.087387      3517.5409    
      1690   3.38           323.69838      131481.03     -807634.98     -9510.1394      0.36155413     0.056209678    28.098268      3517.0743    
      1700   3.4            314.55054      134646.83     -807627.65     -9711.196       0.36152987     0.057401875    28.131137      3516.585     
      1710   3.42           309.29259      138863.3      -807624.09     -9802.8757      0.36150546     0.057947696    28.126003      3516.1009    
      1720   3.44           322.04522      137227.01     -807626.49     -9785.5993      0.36148092     0.057849498    28.087784      3515.646     
      1730   3.46           312.42873      138987.2      -807624.19     -9816.841       0.36145623     0.058038153    28.127887      3515.1635    
      1740   3.48           310.97161      134329.19     -807628.29     -9682.2284      0.3614314      0.057246242    28.1754        3514.6485    
      1750   3.5            316.11721      132102.1      -807632.47     -9566.2378      0.36140643     0.056564355    28.160554      3514.1459    
      1760   3.52           314.25226      127518.28     -807637.53     -9395.2807      0.36138131     0.055557361    28.122749      3513.6715    
      1770   3.54           307.97315      131479.77     -807633.61     -9488.0593      0.36135605     0.056109913    28.104368      3513.2114    
      1780   3.56           316.21321      128883.69     -807634.16     -9509.2978      0.36133065     0.056239465    28.11015       3512.7485    
      1790   3.58           327.72485      135748.43     -807630.06     -9684.6778      0.36130511     0.057280739    28.119066      3512.2805    
      1800   3.6            311.8627       135581.44     -807626.74     -9722.3103      0.36127942     0.057507407    28.093515      3511.8315    
      1810   3.62           311.11235      141054.59     -807621.73     -9871.0741      0.3612536      0.058391519    28.020334      3511.4339    
      1820   3.64           316.01818      136961.96     -807625.07     -9784.2287      0.36122763     0.057881953    28.025467      3511.0333    
      1830   3.66           317.83395      136570.55     -807627.64     -9702.0434      0.36120151     0.057399907    28.024798      3510.6335    
      1840   3.68           308.74867      130016.38     -807633.38     -9473.9005      0.36117526     0.056054227    28.07253       3510.2019    
      1850   3.7            312.89529      130453.81     -807633.8      -9471.0648      0.36114886     0.056041545    28.103013      3509.7506    
      1860   3.72           317.55729      127765.15     -807636.22     -9411.9193      0.36112232     0.055695666    28.134291      3509.2795    
      1870   3.74           315.06964      133088.64     -807631.13     -9553.2868      0.36109564     0.056536395    28.11977       3508.8192    
      1880   3.76           319.33256      133698.69     -807629.62     -9617.3918      0.36106881     0.056919997    28.102446      3508.3714    
      1890   3.78           330.62267      139195.64     -807625.46     -9791.8182      0.36104184     0.057956659    28.092929      3507.9309    
      1900   3.8            315.72504      138781.91     -807622.11     -9829.0342      0.36101474     0.058181305    28.106688      3507.4823    
      1910   3.82           324.31569      138660.65     -807625.12     -9761.8591      0.36098748     0.057788035    28.135507      3507.016     
      1920   3.84           326.6297       133203.64     -807630.14     -9604.6571      0.36096009     0.05686175     28.134529      3506.5514    
      1930   3.86           324.06429      130942.2      -807632.12     -9523.3346      0.36093255     0.056384603    28.095967      3506.1128    
      1940   3.88           317.60876      129963.17     -807632.84     -9465.2946      0.36090487     0.056045265    28.09294       3505.6769    
      1950   3.9            320.26309      129551.3      -807634.63     -9413.533       0.36087705     0.055743075    28.111246      3505.2302    
      1960   3.92           321.57295      132356        -807631.93     -9499.0199      0.36084909     0.056253652    28.114796      3504.7822    
      1970   3.94           339.57765      134371.16     -807628.2      -9696.8718      0.36082098     0.057429814    28.089959      3504.3508    
      1980   3.96           324.1418       139886.36     -807621.16     -9845.8801      0.36079273     0.058316883    28.101657      3503.9128    
      1990   3.98           326.6136       137005.66     -807624.65     -9743.1881      0.36076434     0.057713182    28.054717      3503.5049    
      2000   4              334.01032      138043.04     -807625.5      -9740.4612      0.36073581     0.057701594    28.051804      3503.0994    
      2010   4.02           326.4798       132734.46     -807628.92     -299.97197      0.36070713     0.056868722    28.155845      3502.6302    
      2020   4.04           327.21031      133425.73     -807629.94     -298.8201       0.36067831     0.056654876    28.151682      3502.1646    
      2030   4.06           316.87244      127518.32     -807635.75     -291.56497      0.36064935     0.055283777    28.158813      3501.6958    
      2040   4.08           324.95484      131729.41     -807633.53     -294.74417      0.36062025     0.055891095    28.202764      3501.2015    
      2050   4.1            322.69244      130761.33     -807630.69     -297.38747      0.36059101     0.056396908    28.19294       3500.7145    
      2060   4.12           327.25582      138415.25     -807623.91     -304.68198      0.36056162     0.057784956    28.195699      3500.2271    
      2070   4.14           318.43413      137382.8      -807624.05     -303.41579      0.36053209     0.057549528    28.224117      3499.7241    
      2080   4.16           331.60968      140203.27     -807624        -305.18443      0.36050242     0.057889754    28.174527      3499.2519    
      2090   4.18           324.86521      136520.09     -807624.49     -303.9737       0.36047261     0.057664862    28.172388      3498.782     
      2100   4.2            323.60428      135936.52     -807626.69     -301.56435      0.36044265     0.057212554    28.204675      3498.2944    
      2110   4.22           323.74635      130184.13     -807634.4      -293.9648       0.36041256     0.055775431    28.229309      3497.7936    
      2120   4.24           323.62473      129708.34     -807635.72     -292.66858      0.36038232     0.055534153    28.174666      3497.3259    
      2130   4.26           327.47253      130003.59     -807633.86     -295.3102       0.36035193     0.056040127    28.183251      3496.8544    
      2140   4.28           319.93402      133251.6      -807629.25     -299.08462      0.36032141     0.056761196    28.17353       3496.3895    
      2150   4.3            325.20689      135473.04     -807628.19     -301.10663      0.36029075     0.057149801    28.140899      3495.9443    
      2160   4.32           329.57772      137326.36     -807626.43     -303.82724      0.36025994     0.057671103    28.169311      3495.4838    
      2170   4.34           313.78086      139651.33     -807621.42     -306.99275      0.36022899     0.058276973    28.176435      3495.0202    
      2180   4.36           320.71153      135989.61     -807626.29     -303.51069      0.36019789     0.05762094     28.164042      3494.5646    
      2190   4.38           328.27297      133626.23     -807632.14     -298.94707      0.36016666     0.056759467    28.20343       3494.0877    
      2200   4.4            309.46845      129233.88     -807634.95     -293.9125       0.36013528     0.055808443    28.168962      3493.6313    
      2210   4.42           310.50012      130513.79     -807633.81     -295.45182      0.36010377     0.05610564     28.184665      3493.1671    
      2220   4.44           307.78187      129228.54     -807634.86     -294.3596       0.36007211     0.055903145    28.165538      3492.7144    
      2230   4.46           320.0087       133079.29     -807633.57     -297.45872      0.3600403      0.056496704    28.17522       3492.2573    
      2240   4.48           310.69573      133843.02     -807629.15     -300.79314      0.36000836     0.057135083    28.178254      3491.7994    
      2250   4.5            310.53783      138968.62     -807623.21     -306.75941      0.35997627     0.058273558    28.217292      3491.3211    
      2260   4.52           312.64173      137951.6      -807625.78     -304.62582      0.35994404     0.057873431    28.221197      3490.8417    
      2270   4.54           312.39127      136530.82     -807628.82     -301.48372      0.35991167     0.057281642    28.211393      3490.3688    
      2280   4.56           314.52111      131626.34     -807632.47     -298.17342      0.35987916     0.056657804    28.175265      3489.9164    
      2290   4.58           299.01299      131191.48     -807632.47     -295.9383       0.35984651     0.056238199    28.169677      3489.4678    
      2300   4.6            310.29288      128323.94     -807637.25     -292.64227      0.35981371     0.055616911    28.162098      3489.0241    
      2310   4.62           303.45647      130599.41     -807634.71     -294.06032      0.35978077     0.05589153     28.147742      3488.5889    
      2320   4.64           316.61426      132580.25     -807633        -297.5813       0.35974769     0.056565957    28.168502      3488.1433    
      2330   4.66           312.30668      137204.01     -807626.64     -303.19369      0.35971447     0.057638115    28.1839        3487.6903    
      2340   4.68           314.4878       137727.99     -807625.55     -304.45879      0.35968111     0.057883982    28.142602      3487.2599    
      2350   4.7            305.81671      138522.65     -807624.54     -304.01792      0.3596476      0.05780555     28.146491      3486.8282    
      2360   4.72           319.55043      134939.32     -807628.97     -301.36002      0.35961396     0.057305542    28.168561      3486.3855    
      2370   4.74           321.73577      132544.73     -807632.09     -298.30174      0.35958017     0.05672932     28.168191      3485.9438    
      2380   4.76           311.16257      129426.09     -807634.19     -294.50614      0.35954624     0.056012779    28.151333      3485.5115    
      2390   4.78           310.88144      129259.67     -807635.72     -292.71967      0.35951216     0.055678283    28.115761      3485.0983    
      2400   4.8            313.14854      130423.13     -807634.01     -294.56608      0.35947795     0.056034822    28.169322      3484.658     
      2410   4.82           327.96345      133300.5      -807630.37     -300.07762      0.35944359     0.05708873     28.191479      3484.2071    
      2420   4.84           310.09244      136380.28     -807625.41     -302.36193      0.35940909     0.057528834    28.162496      3483.7717    
      2430   4.86           318.72518      138136.49     -807624.68     -304.02228      0.35937446     0.057850316    28.14014       3483.3484    
      2440   4.88           310.55266      137333.12     -807624.79     -302.62076      0.35933967     0.057589203    28.122592      3482.9344    
      2450   4.9            331.35256      135051.41     -807629.06     -301.01601      0.35930475     0.057289384    28.127205      3482.5186    
      2460   4.92           316.00204      131925.81     -807630.91     -296.80185      0.35926969     0.056492859    28.183333      3482.0752    
      2470   4.94           320.06854      129211.68     -807636.1      -292.01015      0.35923448     0.055586261    28.138216      3481.655     
      2480   4.96           306.15886      129723.28     -807632.83     -293.123        0.35919913     0.055803589    28.120399      3481.2442    
      2490   4.98           315.15242      130744.72     -807631.83     -295.24583      0.35916364     0.05621328     28.133494      3480.8273    
      2500   5              334.28161      134596.86     -807630.03     -299.50494      0.35912801     0.05702985     28.143315      3480.4061    
[...]
     98740   197.48         328.78266      134416.22     -807629.23     -9631.8273      0.36236891     0.05680091     29.293221      43.171575    
     98750   197.5          330.39968      134622.96     -807629.18     -9653.9252      0.36238762     0.056928288    29.252035      42.828934    
     98760   197.52         317.98965      135866        -807625.63     -9721.8956      0.36240618     0.057326167    29.292196      42.486287    
     98770   197.54         325.92843      134953.66     -807627.72     -9698.6251      0.36242459     0.057186044    29.287223      42.143641    
     98780   197.56         324.82199      135414.04     -807628.76     -9667.9017      0.36244287     0.057002015    29.289596      41.800995    
     98790   197.58         317.89521      135245.47     -807627.9      -9672.7879      0.362461       0.057027971    29.253314      41.458354    
     98800   197.6          310.55789      136026.13     -807626.54     -9689.229       0.36247899     0.057122068    29.201123      41.115721    
     98810   197.62         338.2517       133713.38     -807631.06     -9671.4168      0.36249683     0.057014251    29.191621      40.773089    
     98820   197.64         320.00924      133717.98     -807629.68     -9637.5018      0.36251453     0.056811544    29.214219      40.430454    
     98830   197.66         322.83795      134349.88     -807629.29     -9668.7314      0.36253209     0.056992876    29.215316      40.087819    
     98840   197.68         319.8444       134549.12     -807627.64     -9712.449       0.36254951     0.057247822    29.183036      39.745188    
     98850   197.7          331.03602      133801.31     -807629.72     -9698.2329      0.36256678     0.057161305    29.206573      39.402555    
     98860   197.72         315.33528      135093.89     -807628.77     -9660.9793      0.36258391     0.056939043    29.235652      39.059917    
     98870   197.74         310.57536      135066.48     -807627.28     -9691.9281      0.3626009      0.05711877     29.210631      38.717283    
     98880   197.76         323.2566       134294.71     -807627.83     -9733.4158      0.36261774     0.05736061     29.279503      38.37464     
     98890   197.78         317.63769      134544.98     -807629.51     -9656.7746      0.36263445     0.05690633     29.238505      38.032002    
     98900   197.8          319.56945      134127.92     -807630.66     -9629.4588      0.362651       0.05674277     29.243772      37.689364    
     98910   197.82         317.08992      134227.08     -807628.9      -9677.4866      0.36266742     0.057023199    29.255394      37.346724    
     98920   197.84         327.50583      134336        -807629.36     -9712.166       0.36268369     0.057224975    29.314218      37.004077    
     98930   197.86         325.24023      134658.65     -807630.24     -9674.6631      0.36269982     0.057001469    29.29635       36.661433    
     98940   197.88         309.62918      134844.69     -807628.69     -9658.1927      0.36271581     0.05690192     29.277079      36.318791    
     98950   197.9          315.44276      134695.92     -807627.93     -9711.4403      0.36273165     0.057213133    29.277264      35.97615     
     98960   197.92         308.76102      135425.19     -807626.4      -9733.8355      0.36274735     0.057342588    29.245003      35.633513    
     98970   197.94         321.91183      134437.1      -807630.34     -9664.7453      0.36276291     0.056933132    29.25913       35.290874    
     98980   197.96         314.52559      133321.88     -807630.34     -9633.2281      0.36277832     0.05674506     29.239204      34.948238    
     98990   197.98         318.30661      134198.1      -807629        -9694.431       0.36279359     0.057103175    29.28133       34.605596    
     99000   198            313.74245      134111.95     -807628.31     -9697.8589      0.36280872     0.057120985    29.257971      34.262958    
     99010   198.02         332.75306      133281.7      -807631.99     -301.97261      0.3628237      0.05691404     29.366459      33.920308    
     99020   198.04         319.6322       134045.05     -807630.42     -301.7397       0.36283855     0.056867817    29.404537      33.577653    
     99030   198.06         313.66008      135664.82     -807627.83     -303.59895      0.36285324     0.057215906    29.372115      33.235003    
     99040   198.08         318.11053      135679.98     -807627.77     -304.24967      0.3628678      0.057336238    29.354447      32.892355    
     99050   198.1          310.4926       134877.36     -807628.61     -302.3614       0.36288221     0.056978129    29.303113      32.549713    
     99060   198.12         312.98533      134491.52     -807629.71     -301.60732      0.36289648     0.056833793    29.25983       32.207076    
     99070   198.14         319.64545      133951.52     -807629.7      -302.54909      0.36291061     0.057009037    29.24422       31.864441    
     99080   198.16         315.67448      133830.34     -807627.88     -303.74651      0.36292459     0.057232461    29.271129      31.521804    
     99090   198.18         317.10364      132699.19     -807630.08     -301.68077      0.36293843     0.056841062    29.343631      31.179159    
     99100   198.2          327.28921      133643.64     -807631.76     -301.30732      0.36295213     0.056768556    29.323763      30.836516    
     99110   198.22         316.84409      134590.55     -807628.48     -303.17066      0.36296568     0.057117492    29.32183       30.493874    
     99120   198.24         317.45521      135544.18     -807626.64     -304.96384      0.36297909     0.057453205    29.252591      30.151239    
     99130   198.26         311.44885      134916.06     -807627.72     -302.90958      0.36299236     0.057064109    29.257193      29.808604    
     99140   198.28         325.75416      135118.51     -807630.35     -302.07506      0.36300548     0.05690484     29.263801      29.465968    
     99150   198.3          320.70347      134889.43     -807627.88     -303.73446      0.36301846     0.057215391    29.290165      29.12333     
     99160   198.32         316.52245      134943.56     -807626.78     -304.1183       0.3630313      0.057285671    29.308655      28.780691    
     99170   198.34         326.41022      134239.3      -807630.14     -301.84856      0.36304399     0.056856139    29.394293      28.438043    
     99180   198.36         322.48572      132979.15     -807630.63     -300.63987      0.36305655     0.056626513    29.434513      28.095392    
     99190   198.38         323.61183      135028.38     -807627.11     -304.11442      0.36306895     0.057278998    29.439573      27.752742    
     99200   198.4          320.09549      135143.96     -807625.71     -304.83823      0.36308122     0.057413387    29.398759      27.410095    
     99210   198.42         318.08962      135138.53     -807627.16     -302.86093      0.36309334     0.057039076    29.332396      27.067455    
     99220   198.44         325.02569      134085.39     -807629.17     -301.61444      0.36310532     0.056802446    29.258993      26.724823    
     99230   198.46         327.26194      134710.17     -807626.73     -304.14277      0.36311715     0.057276734    29.274176      26.382189    
     99240   198.48         327.88751      134352.42     -807626.35     -304.44262      0.36312885     0.057331356    29.298184      26.039553    
     99250   198.5          333.20166      134546.76     -807628.9      -302.4681       0.3631404      0.056957712    29.329043      25.696915    
     99260   198.52         329.62863      134381.33     -807629.22     -301.47717      0.3631518      0.056769327    29.365573      25.354274    
     99270   198.54         337.80545      134716.03     -807627.77     -303.94719      0.36316306     0.057232666    29.424732      25.011628    
     99280   198.56         318.19808      135759.45     -807623.97     -304.97146      0.36317418     0.057423777    29.415592      24.668983    
     99290   198.58         329.88658      135681.95     -807628.34     -302.06715      0.36318516     0.056875198    29.348425      24.326345    
     99300   198.6          333.84793      134190.62     -807629.02     -301.9353       0.36319599     0.056848678    29.27335       23.983713    
     99310   198.62         337.49439      134657.25     -807627.27     -304.15778      0.36320668     0.057265442    29.26459       23.641083    
     99320   198.64         331.09701      135442.95     -807626.33     -304.21951      0.36321723     0.057275402    29.282641      23.29845     
     99330   198.66         335.20079      133942.38     -807630.17     -300.97465      0.36322763     0.056662868    29.271028      22.95582     
     99340   198.68         328.37318      135230.7      -807629.35     -300.94075      0.36323789     0.056654887    29.329788      22.613184    
     99350   198.7          326.56608      135055.82     -807626.58     -303.65823      0.36324801     0.057164885    29.339049      22.270549    
     99360   198.72         319.45014      135131.33     -807625.06     -304.36345      0.36325798     0.057296071    29.357656      21.927912    
     99370   198.74         322.57535      135030.55     -807627.81     -302.13317      0.36326781     0.056874685    29.306544      21.585279    
     99380   198.76         318.46834      135101.02     -807627.35     -302.29304      0.3632775      0.056903262    29.27721       21.242649    
     99390   198.78         331.3174       136085.4      -807626.46     -305.21252      0.36328704     0.057451313    29.213319      20.900024    
     99400   198.8          327.27168      135181.79     -807627.28     -304.11234      0.36329644     0.057242741    29.239544      20.557397    
     99410   198.82         331.10881      134474.85     -807630.09     -302.08977      0.3633057      0.056860585    29.30568       20.214765    
     99420   198.84         317.49594      133494.72     -807629.25     -301.4947       0.36331481     0.056747156    29.269209      19.872137    
     99430   198.86         321.43711      135696.21     -807626.58     -305.07042      0.36332378     0.057418758    29.255591      19.529509    
     99440   198.88         325.5856       133738.57     -807629.71     -302.90618      0.36333261     0.057010031    29.336398      19.186876    
     99450   198.9          319.61848      135053.44     -807629.22     -302.84776      0.36334129     0.056997672    29.317459      18.844245    
     99460   198.92         310.82654      133964.75     -807628.84     -302.38186      0.36334983     0.05690865     29.321055      18.501614    
     99470   198.94         312.14741      136186.98     -807625.85     -305.73662      0.36335823     0.057538691    29.315574      18.158983    
     99480   198.96         330.33832      133418.12     -807630.71     -303.62979      0.36336648     0.057140893    29.340835      17.816351    
     99490   198.98         316.56622      134170.21     -807629.67     -302.79468      0.3633746      0.056982461    29.339176      17.47372     
     99500   199            316.74646      132981        -807631.19     -301.50526      0.36338256     0.056738561    29.355549      17.131088    
     99510   199.02         322.34959      134264.77     -807628.83     -9750.2266      0.36339039     0.057337508    29.288493      16.788461    
     99520   199.04         321.67874      132556.39     -807630.49     -9698.3725      0.36339807     0.057031368    29.360666      16.445829    
     99530   199.06         310.10169      133969.45     -807630.23     -9654.9207      0.3634056      0.056774671    29.325991      16.1032      
     99540   199.08         304.92402      134329.03     -807627.56     -9720.446       0.363413       0.057158822    29.297561      15.760573    
     99550   199.1          316.52847      135528.78     -807627.68     -9769.0202      0.36342025     0.057443306    29.29234       15.417946    
     99560   199.12         309.42428      134532.6      -807627.55     -9739.8795      0.36342736     0.057270834    29.166141      15.075326    
     99570   199.14         319.16409      134013.27     -807631.21     -9664.1238      0.36343432     0.056824299    29.182673      14.732705    
     99580   199.16         316.6172       134498.57     -807629.66     -9701.9121      0.36344114     0.057045421    29.262336      14.390081    
     99590   199.18         326.11439      133451.77     -807630.04     -9731.0496      0.36344782     0.057215693    29.332498      14.047453    
     99600   199.2          310.76444      135097.67     -807628.74     -9702.0407      0.36345435     0.057044103    29.320365      13.704825    
     99610   199.22         321.83083      133496.04     -807631.53     -9659.7767      0.36346074     0.056794609    29.284701      13.3622      
     99620   199.24         302.07447      136214.15     -807626.32     -9736.2279      0.36346699     0.05724312     29.316552      13.019574    
     99630   199.26         314.4385       133395.21     -807627.48     -9752.2169      0.3634731      0.057336162    29.267928      12.67695     
     99640   199.28         313.11126      135388.36     -807627.18     -9751.3828      0.36347906     0.057330319    29.236678      12.334328    
     99650   199.3          327.07719      133036.4      -807633.47     -9611.3857      0.36348487     0.056506343    29.139389      11.99171     
     99660   199.32         326.46793      134853.89     -807629.45     -9730.5341      0.36349055     0.057205936    29.14433       11.649091    
     99670   199.34         315.32512      133044.6      -807629.07     -9694.1082      0.36349608     0.056990921    29.194532      11.30647     
     99680   199.36         317.78072      135639.32     -807628.53     -9714.4597      0.36350147     0.057109719    29.27083       10.963847    
     99690   199.38         315.8447       132472.06     -807631.07     -9624.7177      0.36350671     0.056581325    29.310851      10.621222    
     99700   199.4          318.36665      136264.74     -807626.26     -9782.112       0.36351181     0.057505799    29.250356      10.2786      
     99710   199.42         311.69349      135278.26     -807625.11     -9789.5156      0.36351677     0.057548538    29.256859      9.9359774    
     99720   199.44         321.78026      136948.46     -807627.1      -9761.5115      0.36352158     0.057383153    29.271644      9.5933547    
     99730   199.46         319.95339      134607.22     -807629.55     -9673.2561      0.36352625     0.056863612    29.278593      9.250732     
     99740   199.48         327.78138      134869.73     -807628.59     -9732.5878      0.36353078     0.057211677    29.282336      8.9081094    
     99750   199.5          322.06067      132507.67     -807627.53     -9737.1654      0.36353516     0.057237896    29.294264      8.5654867    
     99760   199.52         328.88478      133279.62     -807630.71     -9658.3283      0.3635394      0.056773807    29.296685      8.2228641    
     99770   199.54         320.25357      133677.47     -807630.04     -9638.0108      0.3635435      0.056653737    29.300169      7.8802417    
     99780   199.56         328.35362      134543.2      -807627.93     -9737.5047      0.36354745     0.057237956    29.315118      7.5376192    
     99790   199.58         314.77865      135963.95     -807624.29     -9788.1882      0.36355126     0.057535275    29.2687        7.1949981    
     99800   199.6          334.30363      134639.64     -807629.2      -9714.0147      0.36355493     0.057098705    29.275265      6.8523771    
     99810   199.62         317.62814      135964.36     -807626.99     -9704.9804      0.36355845     0.057045049    29.215822      6.5097576    
     99820   199.64         331.38043      135037.85     -807627.31     -9754.1655      0.36356183     0.057333621    29.223198      6.167138     
     99830   199.66         324.72098      136351.68     -807625.49     -9777.0379      0.36356507     0.057467551    29.231641      5.8245184    
     99840   199.68         333.51142      133220.38     -807630.73     -9644.5947      0.36356816     0.056688593    29.189425      5.4818996    
     99850   199.7          324.59215      133866.5      -807629.54     -9637.2344      0.36357111     0.056644871    29.225179      5.1392802    
     99860   199.72         320.4433       134286.72     -807626.38     -9719.5998      0.36357392     0.05712855     29.253033      4.7966604    
     99870   199.74         328.64533      135741.5      -807625.18     -9791.6143      0.36357658     0.057551406    29.28018       4.4540404    
     99880   199.76         324.77596      134863.09     -807627.5      -9697.7344      0.3635791      0.05699922     29.278611      4.1114206    
     99890   199.78         334.69743      135710.27     -807627.98     -9721.2093      0.36358148     0.057136822    29.255191      3.7688014    
     99900   199.8          339.01419      135322.3      -807627.15     -9766.4903      0.36358371     0.05740261     29.271375      3.4261821    
     99910   199.82         336.52604      135846.05     -807626.44     -9773.5941      0.3635858      0.057444033    29.287055      3.0835628    
     99920   199.84         327.98381      134199.71     -807629.41     -9641.3022      0.36358775     0.056666188    29.23549       2.7409443    
     99930   199.86         329.2699       134561.01     -807629.48     -9641.4153      0.36358955     0.056666571    29.272799      2.3983255    
     99940   199.88         327.62471      133765.47     -807627.7      -9692.3181      0.36359121     0.056965488    29.339963      2.0557065    
     99950   199.9          314.59458      136420.12     -807624.44     -9739.4836      0.36359273     0.057242459    29.296206      1.7130881    
     99960   199.92         326.94637      135124.9      -807628.01     -9681.7292      0.3635941      0.056902801    29.259465      1.3704702    
     99970   199.94         338.25149      135622.18     -807627.83     -9736.9148      0.36359533     0.057226952    29.304672      1.0278522    
     99980   199.96         317.81762      135278.79     -807624.76     -9750.5963      0.36359641     0.057307191    29.259041      0.68523464   
     99990   199.98         333.24618      136068.27     -807626.55     -9764.7293      0.36359736     0.057390106    29.251145      0.34261724   
    100000   200            332.59766      133589.01     -807629.56     -9672.1668      0.36359816     0.056845965    29.25072       0            
Loop time of 3426.17 on 32 procs for 100000 steps with 1080 atoms

Performance: 5.044 ns/day, 4.759 hours/ns, 29.187 timesteps/s, 31.522 katom-step/s
71.2% CPU use with 32 MPI tasks x 1 OpenMP threads

MPI task timing breakdown:
Section |  min time  |  avg time  |  max time  |%varavg| %total
---------------------------------------------------------------
Pair    | 2539.5     | 2799.2     | 3146.2     | 285.0 | 81.70
Neigh   | 0.0016488  | 0.0017579  | 0.0019802  |   0.2 |  0.00
Comm    | 207.67     | 554.21     | 814.05     | 640.5 | 16.18
Output  | 2.3211     | 2.3313     | 2.3393     |   0.3 |  0.07
Modify  | 63.433     | 64.346     | 65.048     |   5.0 |  1.88
Other   |            | 6.114      |            |       |  0.18

Nlocal:          33.75 ave          41 max          24 min
Histogram: 1 2 2 3 6 2 2 6 6 2
Nghost:        1045.59 ave        1067 max        1021 min
Histogram: 1 3 2 5 1 6 7 2 3 2
Neighs:              0 ave           0 max           0 min
Histogram: 32 0 0 0 0 0 0 0 0 0
FullNghs:      5316.31 ave        6492 max        3779 min
Histogram: 1 2 2 5 5 0 3 7 5 2

Total # of neighbors = 170122
Ave neighs/atom = 157.52037
Neighbor list builds = 4
Dangerous builds = 0

Total wall time: 1:00:45
