
units		metal
atom_style	atomic

read_data ${STRUCTURE}.data
read_data BaTiO3-sc333.data
Reading data file ...
  orthogonal box = (0 0 0) to (11.898253 11.898253 12.912076)
  2 by 4 by 4 MPI processor grid
  reading atoms ...
  135 atoms
  read_data CPU = 0.005 seconds
replicate $L $L $L
replicate 2 $L $L
replicate 2 2 $L
replicate 2 2 2
Replication is creating a 2x2x2 = 8 times larger system...
  orthogonal box = (0 0 0) to (23.796507 23.796507 25.824152)
  2 by 4 by 4 MPI processor grid
  1080 atoms
  replicate CPU = 0.004 seconds

pair_style allegro
pair_coeff	* * ${MODEL}.pth Ba Ti O
pair_coeff	* * BaTiO3-E0.pth Ba Ti O
mass 1 137.3
mass 2 47.9
mass 3 15.9994

timestep 0.002
compute polarization all allegro polarization 3
compute allegro will evaluate the quantity polarization of length 3 (src/compute_allegro.cpp:53)
compute polarizability all allegro polarizability 9
compute allegro will evaluate the quantity polarizability of length 9 (src/compute_allegro.cpp:53)

thermo_style custom pe fmax fnorm spcpu cpuremain

variable efield equal 1e-2*36.36
fix born all addbornforce 0.0 0.0 ${efield}
fix born all addbornforce 0.0 0.0 0.3636

thermo 10
min_style fire
#minimize 0.0 1e-6 100 100
velocity all create ${TEMP} ${SEED} dist gaussian rot yes mom yes
velocity all create 290 ${SEED} dist gaussian rot yes mom yes
velocity all create 290 13351 dist gaussian rot yes mom yes
fix nvt all nvt temp ${TEMP} ${TEMP} $(100*dt)
fix nvt all nvt temp 290 ${TEMP} $(100*dt)
fix nvt all nvt temp 290 290 $(100*dt)
fix nvt all nvt temp 290 290 0.2000000000000000111
run 5000
Neighbor list info ...
  update: every = 1 steps, delay = 0 steps, check = yes
  max neighbors/atom: 2000, page size: 100000
  master list distance cutoff = 8
  ghost atom cutoff = 8
  binsize = 8, bins = 3 3 4
  1 neighbor lists, perpetual/occasional/extra = 1 0 0
  (1) pair allegro/kk, perpetual
      attributes: full, newton on, kokkos_device
      pair build: full/bin/kk/device
      stencil: full/bin/3d
      bin: kk/device
Per MPI rank memory allocation (min/avg/max) = 3.516 | 3.516 | 3.516 Mbytes
    PotEng          Fmax          Fnorm          S/CPU         CPULeft    
-807708.29      1.5957363      37.042013      0              0            
-807647.94      3.3281232      45.50219       2.4990517      1996.7584    
-807638.79      2.5478486      35.018214      25.911308      1092.4756    
-807608.27      3.0331396      37.816767      25.884551      790.85663    
-807606.11      4.478502       50.17121       25.838951      639.9386     
-807568.89      3.7265895      40.127772      25.83896       549.23296    
-807602.11      2.8244405      38.990429      25.905255      488.55194    
-807646.09      3.0811207      33.7872        25.906441      445.09689    
-807686.41      2.4864556      33.626501      25.878717      412.43449    
-807669.76      2.6896577      33.495303      25.861077      386.95893    
-807654.54      3.9731617      34.209302      25.90713       366.46745    
-807662.86      2.1823518      26.031377      25.874742      349.653      
-807632.12      3.0049866      28.815279      25.875251      335.57623    
-807588.43      3.2540142      38.650271      25.856318      323.61627    
-807570.11      2.6629867      37.417721      25.913357      313.28007    
-807633.36      3.2077707      32.564301      25.890654      304.28151    
-807656.01      2.6875745      29.587786      25.885215      296.36196    
-807666.3       2.53458        33.600906      25.902706      289.32124    
-807648.42      4.4146986      44.472209      25.895829      283.02269    
-807682.82      2.9234924      35.657885      25.863464      277.35872    
-807644.18      4.2156263      39.210318      25.833808      272.23314    
-807619.57      2.9152738      38.423122      25.900265      267.5362     
-807563.83      4.2871852      45.382087      25.90947       263.22815    
-807608         3.8924706      48.922713      25.884069      259.26902    
-807615.62      4.2389436      38.211639      25.838857      255.62103    
-807644.7       3.1467305      34.926374      25.892827      252.21859    
-807643.81      4.6919097      45.236082      25.914065      249.04239    
-807685.18      2.4991804      36.900138      25.850982      246.08939    
-807663.68      2.9618681      34.518216      25.80362       243.33165    
-807641.55      2.5900101      30.958099      25.88322       240.71802    
-807609.65      2.9352392      32.652046      25.904701      238.24785    
-807609.78      4.0706466      41.601136      25.881981      235.91727    
-807599.82      3.1599808      35.225403      25.844863      233.71631    
-807612.66      2.5522534      32.291835      25.901997      231.61322    
-807645.03      3.3400858      29.554094      25.908877      229.60973    
-807676.37      2.4611425      31.166411      25.890138      227.70238    
-807678.71      2.4583596      31.438258      25.820269      225.89301    
-807646.85      5.0183738      36.938924      25.882191      224.14891    
-807650.46      2.8473707      29.610473      25.883253      222.47607    
-807624.78      3.8257267      32.874126      25.883094      220.86924    
-807605.57      3.9115176      42.020346      25.841043      219.33066    
-807574.06      4.5215673      39.901325      25.883094      217.84122    
-807627.62      3.0627287      34.336397      25.904204      216.40088    
-807651.7       3.7939488      34.502349      25.888775      215.01201    
-807675.76      2.9165585      34.145524      25.863677      213.67261    
-807644.62      5.0546071      45.381123      25.890353      212.37152    
-807670.19      3.0732287      34.302602      25.877064      211.11216    
-807647.01      4.0010001      35.444054      25.853057      209.89341    
-807627.1       3.5410541      36.825923      25.872837      208.70654    
-807568.35      3.9378198      42.273192      25.919219      207.54597    
-807605.68      3.3436484      42.599         25.917943      206.41656    
-807626.43      3.5268549      34.886659      25.869691      205.32265    
-807656.74      2.7596817      31.918611      25.917521      204.2498     
-807645.38      4.5310493      40.858144      25.932603      203.20098    
-807676.12      2.5379418      33.044612      25.897176      202.18108    
-807667.74      2.513257       32.215442      25.804345      201.19546    
-807646.29      2.783927       29.092499      25.890742      200.22095    
-807603.05      3.0830619      33.535049      25.899823      199.26603    
-807601.87      3.3672111      36.486194      25.904054      198.33025    
-807609.09      3.5078747      36.803045      25.809624      197.42366    
-807624.25      2.7244361      29.629705      25.882874      196.52633    
-807640.88      3.64212        30.758321      25.904269      195.64345    
-807667.57      3.4080308      32.374929      25.919932      194.77496    
-807678.42      2.7067748      34.113258      25.812276      193.93295    
-807650.12      5.0313065      36.915018      25.873548      193.0989     
-807637.07      3.526803       32.130433      25.890774      192.2769     
-807616.91      4.8795126      34.757596      25.926259      191.46462    
-807607.32      4.3599179      44.098312      25.877438      190.66978    
-807583.72      4.5779507      40.206351      25.867639      189.88788    
-807620.4       3.0240601      35.089465      25.913669      189.11316    
-807648.29      4.1081243      35.966083      25.888467      188.35185    
-807676.53      3.0236476      35.125834      25.855807      187.60405    
-807650.66      4.3320263      41.271497      25.844732      186.86727    
-807656.15      2.7268926      34.480199      25.876756      186.13727    
-807644.41      3.3123509      33.327801      25.884596      185.41588    
-807628.1       3.6007245      37.115168      25.87453       184.70428    
-807578.73      3.9244627      38.315563      25.825801      184.00531    
-807594.88      3.1401607      39.138715      25.911146      183.30742    
-807630.58      3.2800224      31.820582      25.848348      182.6226     
-807661.6       2.7750522      31.4242        25.868172      181.94375    
-807652.81      4.2757178      35.693548      25.904822      181.26934    
-807662.29      3.7137346      33.982282      25.865135      180.60511    
-807667.26      3.1364326      31.597148      25.850962      179.94873    
-807647.53      3.1629573      29.97146       25.862705      179.29796    
-807603.55      3.7225848      34.965544      25.88717       178.65167    
-807589.8       3.7699824      37.629235      25.925048      178.00875    
-807609.82      4.0087948      38.440703      25.838389      177.37803    
-807631         3.2629671      31.313074      25.830176      176.7535     
-807644.24      2.6194241      31.566647      25.910551      176.12874    
-807656.95      3.4338955      34.771761      25.887343      175.51095    
-807676.05      3.1569625      33.764477      25.819249      174.90294    
-807654.23      3.2632822      34.143147      25.842162      174.29824    
-807632.82      2.7241163      31.632573      25.907077      173.69397    
-807607.35      3.2135598      34.078485      25.900211      173.09485    
-807607.62      3.8134192      42.786764      25.880792      172.5015     
-807598.13      3.6669485      36.571536      25.893584      171.91171    
-807621.89      2.8067796      33.946949      25.913158      171.32492    
-807645.67      3.9117847      34.838448      25.895953      170.74334    
-807675.07      2.711686       34.117585      25.851582      170.16848    
-807658.73      4.1216561      36.238766      25.82005       169.59932    
-807650.15      2.8519569      33.159074      25.87208       169.03068    
-807636.35      3.1521513      31.866178      25.886833      168.46478    
-807625.75      3.1248554      35.323469      25.896356      167.90184    
-807591.45      3.0271443      36.360356      25.900521      167.34211    
-807595.73      3.0768287      37.231338      25.878826      166.78694    
-807632.18      2.9828901      31.082654      25.900273      166.23378    
-807662.41      3.0485617      31.29789       25.859441      165.68604    
-807660.91      3.0102838      33.245531      25.859506      165.14131    
-807655.59      4.1309946      34.956443      25.88185       164.59829    
-807661.06      2.8722974      30.785745      25.890616      164.05768    
-807644.5       2.6482846      29.819177      25.876948      163.52059    
-807609.77      2.7824754      33.977786      25.859885      162.98712    
-807585.52      2.9577142      37.021583      25.872679      162.4556     
-807612.07      3.1934205      36.547941      25.880863      161.92624    
-807637.88      2.8841065      31.701737      25.841612      161.40136    
-807651.94      2.9764098      32.262535      25.907767      160.87558    
-807650.72      3.7116661      37.582929      25.905165      160.35233    
-807670.34      2.5206571      33.987284      25.850472      159.83411    
-807653.95      3.5699239      34.372022      25.844826      159.31838    
-807632.84      2.7180686      32.34514       25.873614      158.80344    
-807598.17      3.3224452      36.410645      25.909197      158.28897    
-807606.15      3.5626165      40.135064      25.892016      157.77741    
-807609.27      2.9431057      35.244595      25.873006      157.2688     
-807632.89      3.231748       31.769549      25.896413      156.76109    
-807642.26      3.4696775      35.140929      25.918032      156.25437    
-807670.91      3.7171012      33.338547      25.891533      155.75077    
-807661.89      2.7043857      33.908509      25.820981      155.25217    
-807647.74      3.1357976      32.101207      25.835602      154.75467    
-807625.19      3.5587735      32.691177      25.867542      154.25751    
-807618.96      3.0323004      36.186216      25.913154      153.76011    
-807599.11      3.4833856      37.002037      25.793519      153.26952    
-807604.18      2.9215124      35.650313      25.855668      152.77787    
-807628.3       2.7625373      32.715881      25.830652      152.28886    
-807660.75      2.6548848      31.978412      25.887414      151.79904    
-807664.5       2.7314676      33.218583      25.831304      151.31305    
-807653.94      3.4727852      34.409237      25.82945       150.8286     
-807648.64      3.0314547      31.715362      25.877603      150.34366    
-807639.84      2.5174412      30.231238      25.830214      149.86203    
-807611.92      3.4141708      35.153516      25.801983      149.38289    
-807587.21      2.8782583      36.66062       25.802574      148.90504    
-807608.61      2.868127       35.071525      25.811835      148.42812    
-807642.08      2.6727944      31.262003      25.887905      147.94957    
-807658.03      3.1622991      31.988923      25.852988      147.47363    
-807650.73      3.5923412      36.409072      25.873581      146.99818    
-807661.26      3.5155441      33.61151       25.84756       146.52492    
-807652.78      3.1545695      32.279206      25.86443       146.05223    
-807634.55      3.1227606      32.560816      25.858605      145.58094    
-807593.77      3.5156114      37.379978      25.913614      145.10882    
-807599.67      3.376931       38.673544      25.90114       144.63832    
-807616.39      3.7403454      34.311492      25.84987       144.17074    
-807641.96      3.4088429      31.474103      25.838786      143.70464    
-807641.46      3.8551049      35.823354      25.904917      143.23729    
-807664.13      3.2051099      33.221955      25.886974      142.77163    
-807661.19      3.2014692      33.576029      25.838441      142.30865    
-807649.59      3.0611108      31.091153      25.821093      141.84725    
-807616.46      3.3695487      33.754476      25.86786       141.38524    
-807611.1       2.8789409      35.101205      25.869855      140.92413    
-807603.99      3.285943       36.606459      25.839635      140.46496    
-807617.9       3.1493784      33.08562       25.874268      140.00558    
-807628.45      3.3759553      32.782082      25.860366      139.54757    
-807657.4       2.8192964      31.248273      25.923067      139.08845    
-807666.76      2.4615955      33.252037      25.82121       138.63346    
-807654.87      3.3534251      33.775157      25.803862      138.17984    
-807639.64      3.551804       32.393708      25.886206      137.72448    
-807629.14      3.1097166      32.054386      25.896947      137.26964    
-807612.22      3.5402216      36.931018      25.863084      136.81666    
-807596.77      2.9976199      36.359442      25.880676      136.36395    
-807613.56      2.6461332      33.881889      25.927546      135.91064    
-807642.15      2.9901801      31.882527      25.897205      135.45903    
-807662.38      2.499961       31.751632      25.872183      135.00892    
-807655.94      3.5650876      34.737897      25.90637       134.55857    
-807654.18      2.603572       32.164057      25.861772      134.11026    
-807646.73      3.5344215      31.364274      25.884063      133.66202    
-807633.53      3.166656       31.901225      25.900798      133.21404    
-807596.83      3.7774345      35.51711       25.873165      132.76753    
-807601.38      3.0683458      36.574446      25.897237      132.32104    
-807621.67      3.4397328      33.02996       25.874128      131.87588    
-807649.79      3.0704879      31.360636      25.868018      131.43154    
-807649.41      3.4148389      34.353018      25.890503      130.98725    
-807657.82      3.0916126      33.840969      25.892175      130.54356    
-807657.95      2.8593087      33.190577      25.88258       130.10076    
-807648.82      2.3065345      30.904327      25.839458      129.65972    
-807616.4       2.8895641      32.135001      25.889464      129.21797    
-807603.09      3.0210368      35.400537      25.908793      128.77633    
-807607.95      3.381689       35.559435      25.89935       128.33553    
-807627.55      2.810107       32.684753      25.884433      127.89571    
-807635.82      3.3894207      32.755792      25.920144      127.45556    
-807654.06      2.7003011      32.662316      25.920599      127.01598    
-807662.53      3.1093541      33.670044      25.867752      126.57828    
-807655.74      2.6696354      32.73739       25.83659       126.14189    
-807635.26      3.1715668      32.579814      25.840353      125.70592    
-807618.2       3.9407779      33.072431      25.874703      125.26964    
-807610.23      3.3546158      36.503101      25.866336      124.83408    
-807606.78      3.5660776      35.831308      25.87815       124.39874    
-807619.36      2.6039176      33.060506      25.909675      123.96317    
-807640.65      3.3516564      32.856206      25.901814      123.52829    
-807661.35      2.6078998      33.285463      25.86479       123.09476    
-807655.89      3.5987351      35.210515      25.834949      122.6624     
-807647.82      3.1015113      33.872057      25.832647      122.23055    
-807635.49      4.0158931      33.584412      25.86109       121.7985     
-807626.39      2.8146222      34.30678       25.869299      121.36672    
-807601.75      3.4588995      36.295319      25.816726      120.93657    
-807604.08      3.4125204      36.392237      25.861001      120.50585    
-807625.04      2.8712937      31.938301      25.876321      120.07524    
-807651.42      2.4215233      31.92616       25.883431      119.64491    
-807652.51      3.1711682      33.526561      25.805578      119.21668    
-807653.33      3.0560134      34.099238      25.797069      118.78903    
-807650.26      3.2816778      33.553216      25.838306      118.3609     
-807642.81      2.7062515      32.295783      25.852839      117.93285    
-807616.76      3.1903334      34.038482      25.881827      117.50459    
-807599.49      3.0217699      36.609115      25.907584      117.0762     
-807609.03      3.2193417      35.323856      25.863579      116.64911    
-807633.73      2.8281763      32.409613      25.876705      116.22214    
-807642.42      3.194879       32.674442      25.875676      115.79557    
-807652.53      3.6178649      33.846105      25.906201      115.36877    
-807657.1       2.8690676      33.278488      25.860819      114.94324    
-807654.31      2.6323356      32.06141       25.799435      114.51928    
-807634.9       2.6258347      31.378954      25.848951      114.09469    
-807612.24      3.4914681      33.240285      25.874797      113.66995    
-807607.89      2.928411       34.955335      25.908709      113.2449     
-807614.15      3.2442022      34.931186      25.890583      112.82056    
-807630.11      2.7886131      31.566247      25.896816      112.39644    
-807640.95      3.8474978      33.092806      25.896685      111.97267    
-807660.29      2.752681       32.57272       25.814878      111.55075    
-807656.59      3.0924602      33.939781      25.792529      111.12956    
-807647.59      3.163588       32.934768      25.821731      110.70812    
-807628.27      3.8394293      33.216102      25.89823       110.28561    
-807620.05      2.8394429      34.64817       25.866846      109.86397    
-807605.22      3.4178425      36.173703      25.873745      109.44253    
-807614.37      3.0836513      34.362883      25.867032      109.0215     
-807627.52      2.7719223      31.521692      25.892901      108.60032    
-807653.48      2.4731054      31.416284      25.865588      108.17992    
-807656.59      2.9308338      32.889457      25.834064      107.76036    
-807653.62      3.6421831      31.990044      25.815353      107.34139    
-807643.29      3.2186355      32.112287      25.838852      106.9223     
-807637.12      2.6949939      31.489203      25.832786      106.50358    
-807616.75      2.8674793      33.248856      25.876929      106.08439    
-807603.96      3.7131592      35.675757      25.902124      105.66506    
-807613.31      3.1358607      33.710458      25.900938      105.24603    
-807638.96      2.6880435      31.757063      25.917338      104.82701    
-807649.96      3.0845621      31.580174      25.87967       104.40887    
-807651.46      3.0959159      33.230175      25.873899      103.99109    
-807654.21      3.6202531      32.158625      25.824926      103.57435    
-807649.32      3.2263203      30.864098      25.85204       103.15742    
-807633.48      3.250956       31.676739      25.862645      102.74057    
-807608.6       2.9873416      33.980221      25.897987      102.32342    
-807608.04      2.8987509      35.342026      25.879212      101.90681    
-807620.75      2.8455925      33.009882      25.896371      101.49018    
-807638.81      4.3100786      31.424386      25.856121      101.07441    
-807644.22      3.8547025      33.410416      25.867229      100.65871    
-807656.64      3.741241       32.644153      25.891791      100.24287    
-807655.59      3.4423871      32.135057      25.819077      99.828345    
-807646.11      3.3144532      31.308423      25.842601      99.41369     
-807622.42      3.4165105      32.251787      25.904786      98.998348    
-807613.62      4.4231031      34.604824      25.924034      98.582958    
-807609.27      3.052039       34.951625      25.869028      98.16859     
-807622.21      3.0445613      33.079539      25.873011      97.754382    
-807631.39      3.6890669      33.20413       25.903394      97.33996     
-807651.48      3.0835281      32.68606       25.901543      96.925785    
-807655.94      2.8398019      33.796605      25.871477      96.512244    
-807652.13      3.3113576      33.252527      25.860875      96.099057    
-807636.8       3.9453945      33.290977      25.890836      95.685664    
-807628.45      3.6118298      32.508522      25.898165      95.272378    
-807612.47      3.0551574      34.96993       25.894273      94.859351    
-807608.58      3.3943666      35.323248      25.846165      94.447171    
-807617.21      2.8841572      33.493778      25.876766      94.034775    
-807639.43      2.694893       31.55752       25.875624      93.622589    
-807651.69      3.5399861      33.279836      25.822984      93.211284    
-807651.11      3.2526838      34.05089       25.812724      92.800291    
-807648.6       3.5469873      33.799041      25.837271      92.389157    
-807641.28      3.2120638      31.874648      25.890716      91.977522    
-807627.02      2.8060371      33.02745       25.866696      91.566377    
-807606.97      2.9356093      35.158041      25.903671      91.15495     
-807608.98      3.469939       35.57021       25.878623      90.744019    
-807622.18      3.3744597      33.634589      25.890626      90.33312     
-807643.51      3.2872028      32.226441      25.878763      89.922545    
-807645.67      3.4412848      34.349718      25.863033      89.512335    
-807651.75      4.0149612      34.105047      25.844939      89.102514    
-807650.23      3.396632       33.132178      25.865575      88.692611    
-807641.52      3.1432509      32.714302      25.85157       88.283041    
-807618.48      3.1518321      33.561836      25.874461      87.873364    
-807609.05      2.985128       36.027614      25.879568      87.463793    
-807612.06      3.4198005      35.107182      25.86558       87.054548    
-807628.65      2.9825887      33.041391      25.870828      86.645403    
-807636.56      3.228455       32.719998      25.860119      86.236538    
-807650.65      3.0731999      32.422778      25.863678      85.82779     
-807653.29      2.7763623      33.149999      25.865379      85.419176    
-807650.62      2.6807945      31.57969       25.856476      85.010815    
-807633.15      3.2441516      32.245953      25.8665        84.602493    
-807621.89      3.102186       32.777344      25.8958        84.194002    
-807611.04      4.0423403      34.720085      25.859465      83.786059    
-807616.42      3.0999289      34.209403      25.838073      83.378491    
-807624.77      3.2859388      32.81028       25.873278      82.970689    
-807642.44      3.6251561      31.773805      25.874802      82.563016    
-807654.22      3.2120419      31.952543      25.864944      82.15559     
-807652.92      3.1084083      33.328042      25.85114       81.748449    
-807646.36      3.1992195      31.678329      25.875134      81.341198    
-807633.58      2.81578        32.024772      25.877514      80.934063    
-807623.48      3.7854444      33.596605      25.881228      80.527029    
-807610.42      2.7125097      34.556584      25.883469      80.120111    
-807614.6       2.8699285      33.445545      25.871674      79.713447    
-807629.16      3.2739781      31.571714      25.884335      79.306792    
-807648.65      3.1135722      30.997039      25.875209      78.900361    
-807651.69      3.6476306      32.356355      25.862155      78.494188    
-807652.65      2.9259782      32.283389      25.87519       78.088019    
-807643.76      3.0336368      32.398961      25.88237       77.68191     
-807637.68      2.8494811      31.441969      25.869071      77.276056    
-807616.98      3.1298623      32.984054      25.841202      76.870589    
-807610.5       2.6969894      34.731396      25.875854      76.46492     
-807615.91      2.6981994      33.80652       25.889151      76.059252    
-807637.71      2.7251144      31.306531      25.86958       75.653889    
-807642.85      2.8584811      33.51406       25.847187      75.24885     
-807650.41      2.5429789      33.299269      25.837076      74.844018    
-807649.82      2.9112437      33.705237      25.863958      74.43906     
-807645.91      3.0813318      33.053836      25.857106      74.03428     
-807630.34      2.7972272      32.196403      25.859834      73.62959     
-807613.05      3.4243216      34.625948      25.876443      73.224869    
-807610.19      3.4043437      35.003798      25.893884      72.820113    
-807621.5       2.9455247      33.705336      25.907753      72.415356    
-807633.34      2.490474       31.56052       25.895163      72.010823    
-807641.46      3.3095379      33.282655      25.887934      71.606465    
-807652.05      3.2559237      32.58432       25.874035      71.202336    
-807650.96      3.0535157      33.073538      25.872679      70.798327    
-807642.54      2.7920829      32.464812      25.846963      70.394638    
-807624.46      3.3294417      33.377699      25.886085      69.990734    
-807616.11      3.4840185      35.234755      25.887045      69.586932    
-807610.58      2.8440829      35.923843      25.877168      69.183315    
-807617.94      3.4605562      35.352075      25.86615       68.77989     
-807630.4       3.1342394      33.143134      25.86429       68.376583    
-807646.54      3.1382854      33.201026      25.896947      67.973123    
-807652.25      2.7729092      33.062058      25.868169      67.56999     
-807648.06      3.754895       33.827638      25.85558       67.167053    
-807637.81      2.766201       32.153866      25.869795      66.764105    
-807628.87      2.818035       32.91005       25.855785      66.361362    
-807617.17      3.0912657      34.532433      25.886666      65.958484    
-807610.85      3.318109       35.441358      25.894835      65.555646    
-807618.84      2.9883169      33.96004       25.913769      65.152769    
-807637.23      3.1620178      32.495607      25.886764      64.750188    
-807647.67      3.7457163      32.936805      25.867449      64.347841    
-807650.92      3.7065498      33.180137      25.874222      63.945539    
-807644.88      3.2851534      33.343287      25.879474      63.543293    
-807641.1       2.930174       32.297347      25.885107      63.141101    
-807627.33      3.069959       32.731588      25.872834      62.739086    
-807614.54      3.2847028      34.597508      25.870132      62.33718     
-807610.92      3.4752346      34.891064      25.854352      61.935471    
-807624.33      3.2048145      33.463563      25.839085      61.533951    
-807639.33      3.3222574      32.418619      25.854431      61.132412    
-807645.18      2.8961008      33.212467      25.875097      60.730822    
-807650.3       3.0063301      33.610162      25.898638      60.329166    
-807648.65      2.868917       32.791572      25.880246      59.927718    
-807640.07      3.1440517      32.705932      25.87404       59.526395    
-807624.02      3.1745666      32.859318      25.886572      59.125077    
-807613.82      3.7673254      34.340087      25.902447      58.723745    
-807615.48      2.7814086      33.685173      25.887424      58.322593    
-807627.26      3.1905858      32.70224       25.891632      57.921499    
-807637.29      3.2338049      32.689585      25.876065      57.520584    
-807648.82      4.2328701      32.686936      25.875344      57.119754    
-807650.81      3.0466402      33.503329      25.862225      56.719083    
-807647.83      4.3027174      33.44544       25.85416       56.318538    
-807633.41      3.5113876      33.480673      25.871361      55.917969    
-807622.98      3.9558904      34.301462      25.866229      55.517508    
-807614.92      2.929115       34.271147      25.885664      55.117012    
-807617.11      3.4722587      34.585934      25.876789      54.716644    
-807625.54      2.9121401      33.332328      25.885833      54.316302    
-807640.5       3.0525618      32.756177      25.848167      53.916249    
-807648.85      2.8757637      32.973741      25.852363      53.516243    
-807650.69      2.6405023      33.275872      25.874437      53.116189    
-807640.73      2.7645708      34.039609      25.911268      52.71601     
-807635.32      3.4922641      32.86482       25.872654      52.316115    
-807620.98      2.9312085      34.390423      25.871556      51.916299    
-807614.44      3.0005608      34.619037      25.870508      51.516559    
-807613.57      2.45256        34.782756      25.862191      51.116934    
-807629.56      2.6770716      32.270304      25.859612      50.717392    
-807642.44      2.8317674      31.859421      25.8306        50.318067    
-807647.39      2.8688635      32.682118      25.822009      49.91885     
-807648.25      3.8514785      33.145414      25.839955      49.519608    
-807642.52      3.0952332      33.144556      25.869265      49.120286    
-807633.17      5.0316005      32.830167      25.858216      48.721085    
-807619.31      2.9919846      34.339836      25.881685      48.321838    
-807611.83      3.7308839      35.726994      25.869686      47.922715    
-807614.99      3.1645285      35.003218      25.856656      47.52372     
-807631.44      2.688844       32.937407      25.846845      47.124836    
-807640.8       3.4436982      32.515818      25.860117      46.725952    
-807647.21      2.9848141      32.95279       25.896009      46.326969    
-807647.55      3.308735       33.001582      25.889725      45.928081    
-807643.22      2.6892674      32.474668      25.887665      45.529267    
-807629.95      3.2817075      32.313398      25.861485      45.130634    
-807618.83      2.5444754      33.914865      25.852991      44.7321      
-807611.72      3.1885145      34.968399      25.860589      44.333594    
-807622.33      3.5285949      34.541654      25.847531      43.935204    
-807628.65      3.551          33.726823      25.863111      43.536807    
-807642.51      2.378932       32.444175      25.874917      43.138421    
-807646.47      3.4261289      33.591971      25.888728      42.740039    
-807649.16      3.4754381      33.112294      25.838086      42.341926    
-807637.86      2.8547157      32.933044      25.870901      41.943736    
-807631.08      2.7695108      32.054487      25.876259      41.545584    
-807617.47      3.9712683      33.663711      25.865966      41.147531    
-807618.35      2.6988961      33.135665      25.847802      40.749607    
-807619.86      2.9930906      33.033719      25.873421      40.351639    
-807632.55      2.760509       31.841398      25.863307      39.953768    
-807642.05      3.227638       32.832227      25.877279      39.5559      
-807649.05      2.9779462      33.066745      25.827855      39.158272    
-807645.81      3.189048       32.892657      25.812992      38.760751    
-807639.54      4.0995169      32.57629       25.839629      38.363184    
-807629.59      3.3299634      32.830785      25.860458      37.965594    
-807617.89      2.9184945      34.287979      25.833983      37.568152    
-807617.28      2.823742       33.750579      25.841182      37.170735    
-807620.33      2.9963789      33.85682       25.869461      36.773274    
-807636.05      2.8619148      32.36102       25.856031      36.375911    
-807642.22      3.853864       33.314855      25.831676      35.97868     
-807648.79      2.6749701      32.933885      25.877718      35.581348    
-807642.99      3.8393347      33.779595      25.848945      35.184163    
-807640.72      3.0973693      32.899316      25.86991       34.78696     
-807626.22      3.6696021      33.325733      25.863186      34.38983     
-807619.91      3.3009222      34.414976      25.880913      33.992696    
-807614.46      3.1105869      34.69103       25.902657      33.595547    
-807627.03      2.9874319      32.199865      25.886317      33.198501    
-807635.34      3.1611997      32.140468      25.872785      32.801546    
-807645.1       3.1426532      31.926812      25.875076      32.404635    
-807644.06      4.5188355      34.29081       25.854849      32.007832    
-807647.18      2.9476772      32.249591      25.833937      31.611136    
-807635.28      3.808792       33.261893      25.869527      31.214386    
-807625.93      3.6792187      33.754786      25.855723      30.817722    
-807617.77      4.4960705      34.430285      25.876652      30.421049    
-807618.43      3.7330976      35.580975      25.860584      30.024466    
-807625.64      4.7280682      33.340479      25.887867      29.627859    
-807634.07      3.7626129      33.54022       25.873355      29.231337    
-807645.18      3.4071268      32.455936      25.908994      28.834772    
-807648.07      2.7986385      32.711521      25.888822      28.438306    
-807644.1       4.0352578      33.172035      25.898103      28.041865    
-807633.9       3.2782669      32.504063      25.921747      27.645415    
-807626.27      3.233847       32.853046      25.892497      27.249084    
-807618.01      3.1388809      33.732695      25.880052      26.85283     
-807619.4       3.2466751      33.560217      25.879112      26.456622    
-807623.8       3.348233       33.569114      25.839559      26.06055     
-807638.09      3.8841738      32.978393      25.839135      25.664521    
-807645.39      3.5235399      32.541233      25.877213      25.268449    
-807645.51      3.5408179      32.817196      25.85605       24.872468    
-807640.68      2.890602       32.601725      25.834779      24.476573    
-807635.33      3.0138424      32.942051      25.852425      24.080682    
-807622.62      3.807163       34.426872      25.868095      23.6848      
-807616.19      3.0868382      34.69603       25.882868      23.28893     
-807615.55      4.1521343      35.184555      25.89753       22.893076    
-807629.15      3.6344372      34.440424      25.885563      22.497288    
-807638.16      3.1990568      33.32212       25.89909       22.101517    
-807642.39      3.1449435      33.748317      25.85652       21.705868    
-807642.47      2.9879095      34.320748      25.823061      21.31032     
-807642.06      3.7082064      33.338285      25.894069      20.914683    
-807630.14      2.9825515      33.603253      25.907928      20.519064    
-807621.4       3.3893776      33.900747      25.870591      20.123551    
-807614.42      2.9152097      34.591996      25.893371      19.72804     
-807622.84      2.9817997      33.463388      25.862105      19.332622    
-807628.54      2.7535964      32.974012      25.884309      18.937207    
-807638.85      4.5914951      32.254457      25.873331      18.541849    
-807641.92      3.2893683      33.308651      25.846079      18.146571    
-807645.56      3.1825561      32.960339      25.866544      17.7513      
-807640.18      3.4520323      32.651887      25.874289      17.356056    
-807629.24      2.554316       33.091346      25.90161       16.960812    
-807621.61      2.8970758      33.64711       25.860919      16.565663    
-807618.98      3.44789        33.955133      25.812535      16.170616    
-807623.06      3.6293505      33.536752      25.860671      15.77554     
-807627.43      3.2959891      33.332549      25.875084      15.380482    
-807639.62      4.6991653      32.276489      25.905795      14.985423    
-807645.87      2.8453063      32.472183      25.850535      14.590469    
-807645.41      3.1794814      32.92429       25.841213      14.195561    
-807637.34      3.376042       32.318012      25.872055      13.800653    
-807631.19      2.7638432      32.212109      25.83725       13.405818    
-807622.44      2.6001824      33.172462      25.871774      13.010981    
-807621.08      2.8906         34.178102      25.873424      12.616177    
-807621.25      2.6912707      32.768932      25.85871       12.221423    
-807633.18      2.8821745      32.643956      25.83676       11.826724    
-807641.76      2.9281762      31.88278       25.801609      11.432091    
-807645.12      2.909042       32.542806      25.804208      11.037485    
-807641.76      3.4490289      32.514003      25.851436      10.642868    
-807638.56      2.7554092      32.727522      25.869689      10.248269    
-807630.57      3.1419287      32.759461      25.848132      9.8537216    
-807623.21      2.6078329      32.685163      25.881179      9.4591811    
-807618.25      3.04643        33.323062      25.849653      9.0646975    
-807627.33      3.9914257      32.461947      25.841479      8.6702515    
-807634.4       3.9007142      32.848178      25.849905      8.2758311    
-807641.42      3.1693885      32.046911      25.854008      7.8814398    
-807640.82      4.1140042      33.384625      25.85019       7.4870823    
-807642.48      2.6625122      32.026153      25.891152      7.0927331    
-807638.62      2.6766038      31.938205      25.930778      6.6983968    
-807628.04      3.2857888      32.806801      25.900523      6.3041113    
-807619.5       3.2153118      33.581032      25.862591      5.909877     
-807621.07      2.7518336      33.971578      25.843839      5.5156821    
-807628.81      2.8679445      32.21814       25.868941      5.1215069    
-807634.38      2.5850862      32.026156      25.866927      4.7273636    
-807639.33      3.1595533      32.311584      25.856057      4.3332549    
-807644.18      2.9886232      32.239383      25.888666      3.9391663    
-807643.81      3.0950677      31.9205        25.82422       3.5451271    
-807632.39      3.1167656      32.184708      25.848766      3.1511097    
-807626.71      2.3953423      31.702847      25.823172      2.7571267    
-807621.66      3.1155672      32.921521      25.841582      2.3631676    
-807623.01      2.9193901      33.287684      25.815169      1.9692408    
-807625.72      2.9108934      33.446858      25.839511      1.5753374    
-807635.95      2.8553463      32.129631      25.852094      1.1814607    
-807639.93      2.9460064      33.456848      25.921371      0.78760819   
-807643.54      2.6195466      32.919543      25.863114      0.39378976   
-807635.99      4.5562678      33.948552      25.887931      0            
Loop time of 196.887 on 32 procs for 5000 steps with 1080 atoms

Performance: 4.388 ns/day, 5.469 hours/ns, 25.395 timesteps/s, 27.427 katom-step/s
75.6% CPU use with 32 MPI tasks x 1 OpenMP threads

MPI task timing breakdown:
Section |  min time  |  avg time  |  max time  |%varavg| %total
---------------------------------------------------------------
Pair    | 101.62     | 144.85     | 192.51     | 305.9 | 73.57
Neigh   | 0          | 0          | 0          |   0.0 |  0.00
Comm    | 2.0707     | 49.714     | 92.963     | 522.3 | 25.25
Output  | 0.028473   | 0.032259   | 0.033733   |   0.5 |  0.02
Modify  | 1.9397     | 1.9685     | 1.9922     |   1.2 |  1.00
Other   |            | 0.3202     |            |       |  0.16

Nlocal:          33.75 ave          48 max          21 min
Histogram: 8 8 0 0 0 0 0 8 0 8
Nghost:        1106.25 ave        1119 max        1092 min
Histogram: 8 0 8 0 0 0 0 0 8 8
Neighs:              0 ave           0 max           0 min
Histogram: 32 0 0 0 0 0 0 0 0 0
FullNghs:       5494.5 ave        7896 max        3378 min
Histogram: 8 8 0 0 0 0 0 8 0 8

Total # of neighbors = 175824
Ave neighs/atom = 162.8
Neighbor list builds = 0
Dangerous builds = 0

reset_timestep 0


variable interval equal 1000
thermo 10

variable nintervals equal $(v_PERIOD/v_interval)
variable nintervals equal 100
variable efield equal 1e-2*36.36*cos((step/${PERIOD})*2*3.14)
variable efield equal 1e-2*36.36*cos((step/100000)*2*3.14)
fix born all addbornforce 0.0 0.0 v_efield

variable Px equal f_born[1]+c_polarization[1]
variable Py equal f_born[2]+c_polarization[2]
variable Pz equal (f_born[3]+c_polarization[3])/vol
variable pe equal pe

fix aveP all ave/time 1 $(v_interval/2) ${interval} v_efield v_Pz v_pe f_born file Pz.${MODEL}.${STRUCTURE}.${TEMP}.$L.${ITER}
fix aveP all ave/time 1 500 ${interval} v_efield v_Pz v_pe f_born file Pz.${MODEL}.${STRUCTURE}.${TEMP}.$L.${ITER}
fix aveP all ave/time 1 500 1000 v_efield v_Pz v_pe f_born file Pz.${MODEL}.${STRUCTURE}.${TEMP}.$L.${ITER}
fix aveP all ave/time 1 500 1000 v_efield v_Pz v_pe f_born file Pz.BaTiO3-E0.${STRUCTURE}.${TEMP}.$L.${ITER}
fix aveP all ave/time 1 500 1000 v_efield v_Pz v_pe f_born file Pz.BaTiO3-E0.BaTiO3-sc333.${TEMP}.$L.${ITER}
fix aveP all ave/time 1 500 1000 v_efield v_Pz v_pe f_born file Pz.BaTiO3-E0.BaTiO3-sc333.290.$L.${ITER}
fix aveP all ave/time 1 500 1000 v_efield v_Pz v_pe f_born file Pz.BaTiO3-E0.BaTiO3-sc333.290.2.${ITER}
fix aveP all ave/time 1 500 1000 v_efield v_Pz v_pe f_born file Pz.BaTiO3-E0.BaTiO3-sc333.290.2.0

thermo_style custom step time temp press pe f_born v_efield v_Pz spcpu cpuremain

# dump 4a all custom 1000 dump.hyst.${MODEL}.${STRUCTURE}.${TEMP}.$L.${ITER}.bin id type xu yu zu fx fy fz
# dump_modify 4a sort id

fix nvt all nvt temp ${TEMP} ${TEMP} $(100*dt)
fix nvt all nvt temp 290 ${TEMP} $(100*dt)
fix nvt all nvt temp 290 290 $(100*dt)
fix nvt all nvt temp 290 290 0.2000000000000000111

run $(v_PERIOD)
run 100000
WARNING: non-constant efield is experimental, strongly distrust scalar/vector output (src/fix_addbornforce.cpp:193)
Per MPI rank memory allocation (min/avg/max) = 3.516 | 3.516 | 3.516 Mbytes
   Step          Time           Temp          Press          PotEng         f_born        v_efield         v_Pz          S/CPU         CPULeft    
         0   0              291.60327      129204.09     -807635.99     -298.23778      0.3636         0.05609011     0              0            
        10   0.02           308.57587      131401.4      -807633.16     -303.62093      0.36359993     0.057102541    29.084967      3437.8773    
        20   0.04           302.06558      139320.34     -807624.35     -311.44473      0.36359971     0.058574012    29.053918      3439.363     
        30   0.06           279.34979      140775.37     -807620.45     -312.34703      0.36359935     0.058743768    28.931303      3444.4868    
        40   0.08           308.49304      141994.09     -807622.19     -314.74061      0.36359885     0.059194014    29.012625      3444.4559    
        50   0.1            305.96892      135254.61     -807628.41     -308.35195      0.36359821     0.057992587    29.053434      3443.3316    
        60   0.12           290.59465      131779.38     -807634.47     -300.21553      0.36359742     0.056462471    29.013042      3443.2657    
        70   0.14           288.86789      125737.09     -807642.05     -292.56438      0.36359649     0.055023636    29.016482      3443.0616    
        80   0.16           293.67592      125754.93     -807641.42     -294.00765      0.36359541     0.055295241    29.060959      3442.1637    
        90   0.18           289.60006      128221.31     -807636.76     -298.37464      0.36359419     0.056116748    29.067991      3441.2963    
       100   0.2            303.94732      133040.1      -807633.86     -303.45526      0.36359283     0.057072498    29.065554      3440.5629    
       110   0.22           297.76331      138673.96     -807626.76     -309.94735      0.36359132     0.058293742    29.049697      3440.0706    
       120   0.24           291.70768      141546.85     -807621.26     -314.87213      0.36358968     0.059220245    29.110548      3439.0039    
       130   0.26           293.49041      140115.16     -807623.83     -312.79475      0.36358788     0.058829827    29.04156       3438.675     
       140   0.28           301.14788      134092.11     -807632.39     -305.51448      0.36358595     0.057460874    29.100171      3437.8499    
       150   0.3            286.66109      129955.04     -807636.81     -299.29107      0.36358387     0.056290703    29.049237      3437.4894    
       160   0.32           279.49982      126469.13     -807640.51     -294.79866      0.36358165     0.055446109    29.069797      3436.9794    
       170   0.34           274.64313      127664.58     -807639.23     -295.49023      0.36357928     0.055576541    29.023311      3436.8124    
       180   0.36           294.13839      128441.81     -807640.03     -297.57522      0.36357677     0.055969078    29.077294      3436.271     
       190   0.38           294.01896      134961.74     -807631.64     -306.05141      0.36357412     0.057563733    29.039593      3435.9849    
       200   0.4            275.4425       139086.86     -807623.71     -311.5886       0.36357132     0.058605646    29.00465       3435.9       
       210   0.42           293.13847      142255.99     -807622.65     -315.07043      0.36356838     0.059261012    28.958442      3436.0518    
       220   0.44           287.81895      137598.4      -807627.08     -310.00579      0.3635653      0.058308907    28.973144      3436.0789    
       230   0.46           287.9619       134151.1      -807631.72     -305.32617      0.36356207     0.057429228    28.957639      3436.1538    
       240   0.48           280.82599      127930.03     -807637.68     -298.4509       0.3635587      0.056136569    29.009909      3435.935     
       250   0.5            285.79863      126507.67     -807641.33     -295.37042      0.36355519     0.055557688    28.998176      3435.7618    
       260   0.52           276.75611      124662.98     -807641.91     -293.58951      0.36355153     0.055223263    29.012778      3435.509     
       270   0.54           288.24443      130276.9      -807637.74     -299.25649      0.36354773     0.056289793    29.113715      3434.8077    
       280   0.56           296.75472      134418.65     -807630.86     -307.40647      0.36354379     0.057823423    29.176761      3433.8677    
       290   0.58           280.57736      140544.73     -807622.77     -313.18598      0.3635397      0.058911216    29.13589       3433.1343    
       300   0.6            287.5505       140411.83     -807624.61     -312.29661      0.36353547     0.058744606    29.110578      3432.5261    
       310   0.62           287.69212      138705.01     -807626.74     -310.08994      0.3635311      0.058330221    29.096906      3431.9868    
       320   0.64           291.28794      132872.08     -807632.48     -304.87706      0.36352658     0.057350352    29.110276      3431.4108    
       330   0.66           290.15051      128765.13     -807638.52     -298.54656      0.36352192     0.056160243    29.134989      3430.7606    
       340   0.68           283.39893      125160.03     -807643.6      -292.42038      0.36351712     0.055008561    29.020122      3430.5267    
       350   0.7            283.14165      127279.78     -807641.03     -294.86259      0.36351217     0.055468733    29.045755      3430.1999    
       360   0.72           289.53498      130383.01     -807635.34     -301.49725      0.36350708     0.056717621    29.142271      3429.5566    
       370   0.74           292.23269      136312.72     -807628.98     -308.16489      0.36350185     0.05797277     29.067259      3429.1679    
       380   0.76           288.05855      139968.41     -807625.19     -311.26213      0.36349647     0.058556296    29.089387      3428.713     
       390   0.78           292.23793      140446.52     -807624.11     -312.84088      0.36349095     0.058854194    29.048884      3428.3862    
       400   0.8            286.02382      138424.59     -807625.37     -310.63057      0.36348529     0.058439283    29.02497       3428.1291    
       410   0.82           299.31805      132243.61     -807634.16     -303.55646      0.36347948     0.057109335    29.092053      3427.6751    
       420   0.84           287.82231      127910.69     -807640.12     -295.88595      0.36347353     0.05566716     29.033463      3427.3904    
       430   0.86           277.68975      126426.12     -807640.41     -294.04986      0.36346744     0.055322652    29.090179      3426.9475    
       440   0.88           276.44972      128135.23     -807637.56     -296.65028      0.3634612      0.055812854    29.052909      3426.609     
       450   0.9            295.72104      130775.17     -807636.04     -300.81872      0.36345482     0.056598112    29.049768      3426.2785    
       460   0.92           290.63868      136817.81     -807628.49     -307.50507      0.3634483      0.057857167    29.061407      3425.9175    
       470   0.94           292.86272      139688.2      -807623.69     -312.59009      0.36344163     0.058814993    29.062268      3425.5551    
       480   0.96           287.27662      141259.2      -807621.2      -314.10096      0.36343482     0.059100377    29.040317      3425.2473    
       490   0.98           304.75295      136313.75     -807629.25     -308.37874      0.36342786     0.05802481     29.026317      3424.9718    
       500   1              300.07265      131833.35     -807634.86     -301.97047      0.36342077     0.056820133    28.987756      3424.7848    
       510   1.02           279.43429      127724.59     -807636.15     -9527.0676      0.36341353     0.056021625    28.929433      3424.7272    
       520   1.04           297.92679      126301.85     -807641.54     -9430.5212      0.36340614     0.055455033    28.949659      3424.6123    
       530   1.06           285.95302      127335.43     -807639.61     -9437.9413      0.36339862     0.055499816    28.925114      3424.5438    
       540   1.08           294.28613      133174.38     -807633.62     -9660.5182      0.36339095     0.056809878    29.014695      3424.2684    
       550   1.1            293.01837      137207.46     -807626.07     -9894.407       0.36338313     0.058186542    29.000173      3424.0216    
       560   1.12           293.31581      141556.45     -807621.43     -10037.468      0.36337518     0.059029142    29.009427      3423.7519    
       570   1.14           299.66269      139835.47     -807625.18     -9940.0868      0.36336707     0.058457757    28.927241      3423.6503    
       580   1.16           299.92318      138239.05     -807627.35     -9864.3338      0.36335883     0.058013568    28.934899      3423.5247    
       590   1.18           298.18004      131000.72     -807633.17     -9664.794       0.36335044     0.056841358    28.948658      3423.3639    
       600   1.2            296.97033      128534.67     -807638.71     -9470.8474      0.36334191     0.055702011    28.907221      3423.279     
       610   1.22           294.03503      124425.79     -807642.66     -9325.4644      0.36333324     0.054848262    28.931595      3423.138     
       620   1.24           287.07066      129928.31     -807635.66     -9509.5778      0.36332442     0.055932494    28.941707      3422.9711    
       630   1.26           307.86732      132258.18     -807632.6      -9695.9856      0.36331546     0.057030295    28.940841      3422.8002    
       640   1.28           299.85389      139574.32     -807624.48     -9911.6536      0.36330636     0.058300281    28.914886      3422.6719    
       650   1.3            311.21535      139445.85     -807625.62     -9918.9419      0.36329711     0.058344636    28.923752      3422.5208    
       660   1.32           313.92373      141735.66     -807622.96     -10008.791      0.36328772     0.058874661    28.931987      3422.3489    
       670   1.34           303.17913      135923.82     -807626.89     -9835.3858      0.36327819     0.057856161    28.931455      3422.1728    
       680   1.36           304.8165       132718.36     -807633.55     -9622.6216      0.36326851     0.056606094    28.958852      3421.9439    
       690   1.38           296.07536      126095.12     -807639.4      -9394.4396      0.36325869     0.055265283    28.951099      3421.725     
       700   1.4            291.12151      127746.59     -807637.25     -9440.0286      0.36324873     0.055534996    28.911096      3421.5703    
       710   1.42           299.47775      129354.28     -807635.7      -9529.9169      0.36323863     0.056065362    28.91961       3421.3959    
       720   1.44           305.25055      134443.66     -807630.86     -9710.5341      0.36322838     0.057129561    28.921462      3421.2137    
       730   1.46           317.07331      137729.04     -807627.7      -9868.3824      0.36321798     0.058059884    29.008275      3420.8864    
       740   1.48           307.99968      140575.21     -807621.88     -10018.778      0.36320745     0.058946436    28.963825      3420.6295    
       750   1.5            309.00315      139500.92     -807623.86     -9968.3387      0.36319677     0.058651395    28.98765       3420.3327    
       760   1.52           293.05285      136081.32     -807628.08     -9768.1252      0.36318595     0.057475099    28.91718       3420.1444    
       770   1.54           299.69736      129579.53     -807635.77     -9561.7337      0.36317498     0.056262401    28.987562      3419.8439    
       780   1.56           288.56671      128219.74     -807637.43     -9467.2235      0.36316387     0.055707995    29.006512      3419.5135    
       790   1.58           297.94274      126910.52     -807639.42     -9459.051       0.36315262     0.055661631    28.932046      3419.2942    
       800   1.6            289.98831      130265.94     -807635.97     -9542.8899      0.36314122     0.056156742    28.922531      3419.0858    
       810   1.62           293.99681      133836.14     -807630.93     -9734.2323      0.36312968     0.057284548    29.023787      3418.7263    
       820   1.64           297.91246      139321.89     -807625.65     -9929.9267      0.363118       0.058438062    29.058588      3418.3173    
       830   1.66           295.22084      140900.16     -807622.65     -10020.757      0.36310618     0.058974521    29.109051      3417.8386    
       840   1.68           291.62501      138380.55     -807625.94     -9904.4583      0.36309421     0.058291998    29.057532      3417.435     
       850   1.7            298.89186      134226.46     -807633.01     -9714.3009      0.3630821      0.057174747    29.013795      3417.0932    
       860   1.72           294.76656      129249.19     -807637.18     -9566.6243      0.36306984     0.056307479    29.003616      3416.7654    
       870   1.74           291.17856      126405.27     -807640.54     -9445.1719      0.36305745     0.055594529    29.062386      3416.3578    
       880   1.76           285.7872       126546.65     -807641.22     -9402.3734      0.3630449      0.055344528    29.017058      3416.0121    
       890   1.78           282.08104      130416.58     -807636.41     -9545.2568      0.36303222     0.056187536    28.960609      3415.7412    
       900   1.8            302.01305      134654.75     -807631.63     -9791.3937      0.36301939     0.057638441    28.999492      3415.4178    
       910   1.82           283.61524      139717.27     -807623.25     -9979.0817      0.36300642     0.058745392    29.047634      3415.0316    
       920   1.84           284.97146      139641.77     -807624.47     -9949.3489      0.36299331     0.058572476    28.896358      3414.8404    
       930   1.86           293.95131      138233.47     -807627.1      -9904.6178      0.36298005     0.058311271    28.910764      3414.6275    
       940   1.88           290.1432       132722.57     -807631.78     -9741.1836      0.36296665     0.057351204    28.924179      3414.3949    
       950   1.9            288.92389      129764.81     -807637.12     -9562.867       0.36295311     0.056303467    28.882217      3414.2123    
       960   1.92           280.55086      126203.07     -807641.29     -9393.2564      0.36293942     0.055306933    28.892305      3414.0138    
       970   1.94           275.92603      127548.49     -807640.1      -9411.1987      0.36292559     0.055414688    28.894206      3413.8099    
       980   1.96           283.49674      129937.07     -807635.05     -9608.8671      0.36291162     0.05658077     28.897699      3413.5989    
       990   1.98           295.64827      135053.53     -807630.14     -9820.6611      0.3628975      0.057830145    28.967136      3413.3022    
      1000   2              292.68511      139295.25     -807626.34     -9929.7767      0.36288325     0.058474983    28.988994      3412.9788    
      1010   2.02           280.80349      140646.89     -807623.89     -311.09582      0.36286884     0.058626236    29.05798       3412.5747    
      1020   2.04           289.79717      138157.82     -807626.97     -309.29698      0.3628543      0.05828958     29.048725      3412.1824    
      1030   2.06           287.74679      132463.81     -807632.54     -303.45196      0.36283961     0.057190353    29.062498      3411.7754    
      1040   2.08           290.18475      127926.58     -807639.41     -296.84381      0.36282478     0.055947228    29.051418      3411.3821    
      1050   2.1            269.53389      126288.81     -807640.07     -293.31055      0.3628098      0.055283583    29.03762       3411.005     
      1060   2.12           291.02398      127350.3      -807639.55     -296.80038      0.36279469     0.055943683    29.086781      3410.5743    
      1070   2.14           286.31544      130356.37     -807634.28     -301.45837      0.36277943     0.056824054    29.146055      3410.0806    
      1080   2.16           301.54527      135403.94     -807631.94     -305.84927      0.36276402     0.057654175    29.056648      3409.6863    
      1090   2.18           291.4221       139516.97     -807625.63     -310.69804      0.36274848     0.058570703    29.144074      3409.1993    
      1100   2.2            280.36419      141083.61     -807622.53     -312.22632      0.36273279     0.058861349    29.131829      3408.7279    
      1110   2.22           289.96366      137393        -807627.63     -308.39898      0.36271695     0.058142352    29.121306      3408.2698    
      1120   2.24           286.53187      131947.18     -807634.53     -300.93933      0.36270098     0.056738486    29.030955      3407.9081    
      1130   2.26           282.85859      128347.1      -807639.5      -295.32949      0.36268486     0.055683293    29.087325      3407.4884    
      1140   2.28           282.96646      126097.47     -807640.58     -294.2008       0.3626686      0.05547297     29.106921      3407.0499    
      1150   2.3            289.88851      127427.63     -807639.39     -296.23314      0.36265219     0.055858704    29.259034      3406.4595    
      1160   2.32           288.16956      131636.25     -807634.58     -300.67986      0.36263564     0.056699778    29.248742      3405.8836    
      1170   2.34           300.70172      136814.19     -807630.02     -306.89943      0.36261895     0.05787528     29.170549      3405.3892    
      1180   2.36           290.81873      140176.83     -807623.38     -311.999        0.36260212     0.05883969     29.136141      3404.9312    
      1190   2.38           292.73048      139970.32     -807624.17     -311.28002      0.36258514     0.058706847    29.035679      3404.5738    
      1200   2.4            289.93341      135645.39     -807629.42     -305.43017      0.36256802     0.057606297    29.06823       3404.1849    
      1210   2.42           295.84686      130889.29     -807635.36     -300.04094      0.36255076     0.056592544    28.963804      3403.8979    
      1220   2.44           291.88529      127558.39     -807638.92     -295.72682      0.36253335     0.055781509    28.966863      3403.607     
      1230   2.46           289.60971      126389.33     -807639.7      -294.45169      0.3625158      0.055543677    28.970655      3403.3116    
      1240   2.48           290.77154      128430.09     -807638.66     -295.45331      0.36249811     0.055735336    28.933995      3403.0503    
      1250   2.5            295.10475      132878.8      -807632.79     -301.72063      0.36248028     0.056920425    29.056526      3402.6724    
      1260   2.52           296.82031      137447.01     -807626.11     -308.50429      0.3624623      0.058203069    29.05474       3402.2968    
      1270   2.54           301.1449       140168.73     -807623.35     -311.65301      0.36244418     0.058800052    29.065675      3401.9116    
      1280   2.56           301.58766      139113.95     -807625.73     -309.16438      0.36242592     0.058333458    29.005216      3401.5823    
      1290   2.58           288.40648      136279.82     -807628.07     -304.81599      0.36240751     0.05751592     29.063415      3401.2       
      1300   2.6            300.12158      131181.64     -807634.62     -299.74668      0.36238896     0.056562284    29.063191      3400.8184    
      1310   2.62           292.07044      127561.28     -807637.81     -295.29055      0.36237027     0.055724286    29.110924      3400.3949    
      1320   2.64           297.69912      125768.89     -807640.9      -292.86267      0.36235143     0.055268992    29.085519      3399.9951    
      1330   2.66           294.71955      129790.33     -807637.22     -296.02499      0.36233245     0.055868712    29.14292       3399.5459    
      1340   2.68           304.8543       133850.83     -807631.28     -303.38296      0.36231333     0.057260401    29.144539      3399.0968    
      1350   2.7            307.03043      139006.2      -807626.04     -308.91916      0.36229407     0.058308402    29.182663      3398.6166    
      1360   2.72           302.8889       139914.09     -807624.37     -310.00754      0.36227466     0.058516968    29.085992      3398.221     
      1370   2.74           300.9535       138923.45     -807625.62     -308.43088      0.36225511     0.0582225      29.05734       3397.8506    
      1380   2.76           297.10809      134361.93     -807629.45     -304.1927       0.36223542     0.05742558     29.107296      3397.4383    
      1390   2.78           295.71745      130915.28     -807634.08     -299.36921      0.36221558     0.056518096    29.162709      3396.9807    
      1400   2.8            292.36101      126623.77     -807639.92     -293.2157       0.3621956      0.055359424    29.086707      3396.5878    
      1410   2.82           291.09061      126445.52     -807639.75     -293.33663      0.36217548     0.055385333    29.020001      3396.2509    
      1420   2.84           299.19143      129761.48     -807636.6      -297.87419      0.36215522     0.056245223    29.046146      3395.8924    
      1430   2.86           307.83484      134502.72     -807631.92     -304.13429      0.36213481     0.057430505    29.042175      3395.5373    
      1440   2.88           292.83101      139027.62     -807625.99     -308.27868      0.36211426     0.058216404    29.078537      3395.1529    
      1450   2.9            291.80791      140760.33     -807624.14     -310.34073      0.36209357     0.058609159    29.081656      3394.7665    
      1460   2.92           284.31023      139365.99     -807623.86     -309.90548      0.36207273     0.058530328    29.073453      3394.3873    
      1470   2.94           291.57645      134812.04     -807630.84     -304.27872      0.36205176     0.057470959    29.09098       3393.9946    
      1480   2.96           290.7351       129767.75     -807638.44     -296.80715      0.36203064     0.056063029    29.111918      3393.5862    
      1490   2.98           284.0418       126213.52     -807640.98     -293.48234      0.36200937     0.055438271    29.111664      3393.1788    
      1500   3              293.24488      126174.45     -807641.53     -294.40309      0.36198796     0.055615487    29.103847      3392.7784    
      1510   3.02           286.79988      129956.52     -807637.06     -9541.3391      0.36196642     0.05632985     29.038323      3392.4292    
      1520   3.04           291.49986      132295.74     -807633.65     -9677.2328      0.36194472     0.057135559    29.132495      3392.008     
      1530   3.06           286.44517      138874.3      -807626.52     -9884.268       0.36192289     0.058361441    28.974759      3391.7081    
      1540   3.08           278.59892      139841.62     -807623.47     -9949.7859      0.36190091     0.058751857    29.102356      3391.3108    
      1550   3.1            290.08487      138985.93     -807626.64     -9897.9429      0.36187879     0.058449305    29.059787      3390.9463    
      1560   3.12           290.09061      132219.59     -807634.91     -9635.1459      0.36185653     0.056900937    29.016526      3390.6143    
      1570   3.14           281.74792      129961        -807636.79     -9534.8713      0.36183412     0.056312247    28.955721      3390.3275    
      1580   3.16           287.92743      125214.85     -807641.8      -9403.336       0.36181157     0.05553887     29.059404      3389.9633    
      1590   3.18           279.60097      126729.43     -807640.24     -9413.1869      0.36178888     0.055600539    28.945348      3389.6833    
      1600   3.2            285.60084      129070.49     -807638.43     -9498.4893      0.36176605     0.056107933    28.96313       3389.3893    
      1610   3.22           286.45206      135010.07     -807630.8      -9746.2         0.36174307     0.057574826    28.984988      3389.0789    
      1620   3.24           291.3437       137847.92     -807626.75     -9895.4468      0.36171995     0.058460225    29.017902      3388.7442    
      1630   3.26           290.26646      139732.78     -807625.57     -9924.8489      0.36169669     0.058637697    28.969688      3388.444     
      1640   3.28           286.3892       136769.77     -807629.27     -9787.8807      0.36167329     0.057832208    28.972994      3388.141     
      1650   3.3            298.36909      133173.33     -807633.62     -9697.8109      0.36164974     0.057303757    28.938521      3387.8619    
      1660   3.32           279.775        128263.34     -807636.83     -9508.9319      0.36162605     0.056191363    28.956752      3387.5691    
      1670   3.34           280.97712      126841.49     -807641.06     -9375.5617      0.36160222     0.055406887    28.983398      3387.257     
      1680   3.36           272.99494      127183.88     -807639.16     -9397.4643      0.36157824     0.055540007    28.936258      3386.9774    
      1690   3.38           288.99332      130825.82     -807635.31     -9589.1773      0.36155413     0.056676832    28.950973      3386.6868    
      1700   3.4            292.3001       135757.59     -807629.75     -9775.8236      0.36152987     0.057783882    28.981374      3386.3746    
      1710   3.42           292.67453      137854.19     -807626.89     -9863.7269      0.36150546     0.058307405    28.959135      3386.0773    
      1720   3.44           297.83174      139355.02     -807626.67     -9887.7877      0.36148092     0.058453604    29.063356      3385.7086    
      1730   3.46           292.26488      135934.03     -807628.53     -9797.9633      0.36145623     0.057926546    28.978588      3385.3974    
      1740   3.48           297.83362      132140.41     -807633.53     -9655.7227      0.3614314      0.057089527    28.969893      3385.0917    
      1750   3.5            282.37647      127019.78     -807639.06     -9405.1392      0.36140643     0.055611793    29.015403      3384.7551    
      1760   3.52           287.64137      127973.22     -807640.66     -9368.9419      0.36138131     0.055401611    29.015085      3384.4187    
      1770   3.54           280.2647       126286.39     -807637.86     -9423.5481      0.36135605     0.05572841     28.974513      3384.1089    
      1780   3.56           291.63608      133619.08     -807632.26     -9645.7645      0.36133065     0.05704655     29.114428      3383.7072    
      1790   3.58           302.85178      133919.27     -807631.68     -9712.4371      0.36130511     0.057444923    28.999218      3383.381     
      1800   3.6            304.51087      140049.71     -807625.61     -9903.3779      0.36127942     0.058578421    29.017778      3383.0426    
      1810   3.62           293.19092      136280.98     -807625.66     -9851.3009      0.3612536      0.058274552    29.068436      3382.6715    
      1820   3.64           301.94851      137367.24     -807627.99     -9806.4123      0.36122763     0.058013188    28.954696      3382.3736    
      1830   3.66           294.55091      129591.88     -807635.74     -9523.4123      0.36120151     0.056343078    28.967015      3382.0674    
      1840   3.68           291.81105      129903.56     -807637.12     -9459.0537      0.36117526     0.055966383    29.06951       3381.6957    
      1850   3.7            276.77105      125747.09     -807638.1      -9360.3697      0.36114886     0.055386547    28.92708       3381.4143    
      1860   3.72           290.53213      130736.27     -807635.52     -9496.8467      0.36112232     0.05619823     28.936656      3381.1261    
      1870   3.74           307.53369      130264.35     -807636.44     -9544.2457      0.36109564     0.05648289     28.930663      3380.841     
      1880   3.76           302.54719      138388.28     -807627.43     -9800.8786      0.36106881     0.058005954    28.928798      3380.5565    
      1890   3.78           296.96965      137495        -807624.96     -9855.3613      0.36104184     0.058332763    28.966201      3380.2482    
      1900   3.8            303.07959      140188.99     -807625.03     -9873.0301      0.36101474     0.058441731    29.050472      3379.8877    
      1910   3.82           301.0458       133255.45     -807630.81     -9679.8381      0.36098748     0.05730249     28.931288      3379.6003    
      1920   3.84           297.18307      132447.04     -807633.17     -9580.6207      0.36096009     0.056719449    28.941703      3379.3059    
      1930   3.86           288.7702       127597.16     -807637.55     -9403.201       0.36093255     0.055673331    28.988586      3378.9825    
      1940   3.88           296.03559      128113.37     -807638.54     -9402.1376      0.36090487     0.055671304    29.005945      3378.6485    
      1950   3.9            301.6369       128634.9      -807638.25     -9436.5738      0.36087705     0.055879513    28.971253      3378.3352    
      1960   3.92           299.99523      133402.51     -807632.67     -9610.7638      0.36084909     0.056915405    29.005075      3378.0014    
      1970   3.94           296.07241      136899.58     -807626.17     -9801.4869      0.36082098     0.058049398    28.963464      3377.6922    
      1980   3.96           306.82274      137964.05     -807627.5      -9812.4273      0.36079273     0.058118743    28.944605      3377.3937    
      1990   3.98           295.08627      138261.62     -807626.1      -9808.5768      0.36076434     0.058100508    28.941873      3377.0963    
      2000   4              296.31862      134343.33     -807630.82     -9670.5354      0.36073581     0.057287359    29.016044      3376.7552    
      2010   4.02           290.40015      132013.91     -807633.35     -299.0053       0.36070713     0.05668546     29.180962      3376.3191    
      2020   4.04           295.7747       127198.8      -807639.94     -293.44888      0.36067831     0.055636519    29.138234      3375.9083    
      2030   4.06           288.24         129217.67     -807637.77     -294.70546      0.36064935     0.055879247    29.155779      3375.4882    
      2040   4.08           284.56275      128973.39     -807636.69     -295.69481      0.36062025     0.056071362    29.114002      3375.0924    
      2050   4.1            295.08748      134720.56     -807631.3      -302.71531      0.36059101     0.057407286    29.155506      3374.6739    
      2060   4.12           287.05268      135004.95     -807629.01     -304.2917       0.36056162     0.057710937    29.062689      3374.3081    
      2070   4.14           282.49969      139693.81     -807625.44     -307.32145      0.36053209     0.058290323    29.041162      3373.9547    
      2080   4.16           287.18618      135902.86     -807628.97     -304.76982      0.36050242     0.057811107    29.119117      3373.5579    
      2090   4.18           283.98681      135593.63     -807629.89     -303.4674       0.36047261     0.057568816    29.096672      3373.174     
      2100   4.2            289.17381      127988.76     -807638.32     -295.99382      0.36044265     0.056155718    29.101155      3372.788     
      2110   4.22           282.04902      129335.8      -807639.04     -294.26301      0.36041256     0.055832013    29.102439      3372.4018    
      2120   4.24           291.17528      125905.46     -807641.9      -292.86964      0.36038232     0.055572303    29.140452      3371.9952    
      2130   4.26           283.12056      131179.31     -807635.42     -298.28936      0.36035193     0.056605472    29.073335      3371.6256    
      2140   4.28           290.60469      132160.63     -807634.16     -300.74393      0.36032141     0.057076105    29.095443      3371.2444    
      2150   4.3            287.76215      136990        -807629.2      -305.33834      0.36029075     0.057952977    29.133349      3370.8431    
      2160   4.32           281.30703      137192.61     -807626.94     -306.77718      0.36025994     0.058231046    29.104077      3370.458     
      2170   4.34           278.70913      137094.31     -807627.8      -305.58045      0.36022899     0.058008873    29.125923      3370.0617    
      2180   4.36           284.42411      133322.77     -807632.69     -301.4321       0.36019789     0.057226323    29.191123      3369.6314    
      2190   4.38           284.20684      129180.63     -807638.2      -295.90272      0.36016666     0.056181453    29.123204      3369.2377    
      2200   4.4            281.81475      128783.83     -807639.01     -294.68052      0.36013528     0.055954274    29.087008      3368.8634    
      2210   4.42           274.92888      127475.51     -807638.84     -293.88122      0.36010377     0.055807388    29.040638      3368.5136    
      2220   4.44           290.50306      131479.13     -807637        -297.73654      0.36007211     0.056544475    29.061805      3368.1529    
      2230   4.46           280.6038       132428.15     -807633.61     -299.82185      0.3600403      0.056945536    29.060819      3367.7928    
      2240   4.48           290.0516       137909.52     -807629.44     -305.07589      0.36000836     0.057948583    29.063905      3367.4312    
      2250   4.5            285.20829      135360.82     -807628.88     -304.92482      0.35997627     0.057925051    29.108894      3367.0467    
      2260   4.52           287.44543      137477.23     -807628.63     -305.26047      0.35994404     0.057994003    29.088598      3366.673     
      2270   4.54           286.46101      130357.26     -807634.99     -298.66482      0.35991167     0.056746053    29.014785      3366.3371    
      2280   4.56           289.47023      131807.24     -807636.28     -297.43296      0.35987916     0.056517106    29.049741      3365.9834    
      2290   4.58           276.83504      126338.41     -807639.02     -292.91881      0.35984651     0.055664394    29.089922      3365.6095    
      2300   4.6            284.80578      131368.52     -807636.37     -296.3294       0.35981371     0.056317653    28.993252      3365.2846    
      2310   4.62           284.08087      128563.33     -807637.06     -295.50797      0.35978077     0.056166682    29.00581       3364.9532    
      2320   4.64           288.88322      136772.37     -807630.34     -302.47964      0.35974769     0.057497062    29.105604      3364.5718    
      2330   4.66           284.78338      134972.3      -807628.7      -303.45478      0.35971447     0.057687748    29.041333      3364.2227    
      2340   4.68           289.80928      139238.25     -807626.17     -306.28865      0.35968111     0.058231878    29.070366      3363.8593    
      2350   4.7            289.71071      134310.12     -807630.86     -301.45318      0.3596476      0.057317894    29.101865      3363.4805    
      2360   4.72           302.28965      132971.17     -807633.72     -299.99848      0.35961396     0.057046635    29.016585      3363.1439    
      2370   4.74           291.20394      128516.51     -807636.46     -295.51667      0.35958017     0.056199671    29.106272      3362.7634    
      2380   4.76           292.56112      129307.66     -807637.83     -294.05992      0.35954624     0.055927912    29.078697      3362.3966    
      2390   4.78           289.36874      128859.16     -807637.84     -293.46363      0.35951216     0.055819791    29.029586      3362.0537    
      2400   4.8            300.00257      132191.98     -807634.99     -297.59298      0.35947795     0.056610623    29.041604      3361.7051    
      2410   4.82           294.82932      134792.59     -807629.79     -302.00084      0.35944359     0.057454615    29.082831      3361.3367    
      2420   4.84           295.93259      136260.78     -807627.71     -304.09918      0.35940909     0.05785937     29.077917      3360.9709    
      2430   4.86           289.73934      137569.63     -807626.56     -304.27281      0.35937446     0.057897985    29.04353       3360.6215    
      2440   4.88           281.11711      135139.71     -807627.66     -301.97469      0.35933967     0.057466254    29.032464      3360.2775    
      2450   4.9            301.55574      133062.16     -807632.78     -299.57405      0.35930475     0.057014949    29.069611      3359.9159    
      2460   4.92           290.2618       128898.16     -807636.41     -294.33611      0.35926969     0.056023532    28.953935      3359.609     
      2470   4.94           291.06865      129479.49     -807637.34     -293.37046      0.35923448     0.055845204    29.052947      3359.2553    
      2480   4.96           298.19026      127452.97     -807638.97     -292.80925      0.35919913     0.05574386     29.031399      3358.9117    
      2490   4.98           297.16772      133040.21     -807632.54     -299.09162      0.35916364     0.056945498    29.057829      3358.5559    
      2500   5              301.95173      133518.07     -807631.92     -300.48286      0.35912801     0.057216059    29.100534      3358.1804    
[...]
     98740   197.48         279.19752      133147.25     -807631.21     -9720.7538      0.36236891     0.057325328    28.518284      42.981284    
     98750   197.5          284.86791      134113.28     -807632.78     -9698.6413      0.36238762     0.057191975    28.516881      42.640283    
     98760   197.52         286.29778      131977.58     -807634.49     -9654.4704      0.36240618     0.056928587    28.525482      42.29928     
     98770   197.54         285.14139      132740.74     -807633.56     -9682.7357      0.36242459     0.057092355    28.51846       41.958275    
     98780   197.56         281.7744       132046.82     -807634.92     -9629.1813      0.36244287     0.056773719    28.509851      41.61727     
     98790   197.58         281.33386      132478.89     -807633.77     -9667.63        0.362461       0.056997562    28.519857      41.276261    
     98800   197.6          289.69752      132352.62     -807634.86     -9678.3827      0.36247899     0.057058125    28.512798      40.935252    
     98810   197.62         274.12165      133633.84     -807631.58     -9719.4989      0.36249683     0.057297701    28.516977      40.594239    
     98820   197.64         279.86706      133544.13     -807631.97     -9740.9638      0.36251453     0.057421436    28.5223        40.253225    
     98830   197.66         277.95958      133551.2      -807632.49     -9726.0529      0.36253209     0.057330761    28.520363      39.912208    
     98840   197.68         273.59495      133166.74     -807632.66     -9711.1905      0.36254951     0.057240404    28.503949      39.571192    
     98850   197.7          274.16859      132151.97     -807633.56     -9697.7573      0.36256678     0.057158502    28.517761      39.230172    
     98860   197.72         285.08437      132609.13     -807635.4      -9696.0102      0.36258391     0.057145505    28.527341      38.889148    
     98870   197.74         270.96541      130541.65     -807635.06     -9655.9328      0.3626009      0.056906634    28.516495      38.548124    
     98880   197.76         281.83299      132358.04     -807635.57     -9695.1971      0.36261774     0.057135381    28.52276       38.207098    
     98890   197.78         276.29696      131591.41     -807635.26     -9689.8933      0.36263445     0.057101495    28.510203      37.866071    
     98900   197.8          271.95731      133794.81     -807632.9      -9749.9148      0.362651       0.057452572    28.514922      37.525041    
     98910   197.82         265.8521       132162.47     -807633.89     -9697.7204      0.36266742     0.057142424    28.521266      37.184009    
     98920   197.84         273.77637      134278.88     -807633.51     -9744.8467      0.36268369     0.057417532    28.522374      36.842975    
     98930   197.86         269.70096      131892.71     -807634.26     -9705.9785      0.36269982     0.057185974    28.509959      36.50194     
     98940   197.88         260.00009      133358.09     -807631.54     -9747.3118      0.36271581     0.057426972    28.512923      36.160903    
     98950   197.9          275.76699      130325.61     -807637.32     -9633.2091      0.36273165     0.056752249    28.515739      35.819864    
     98960   197.92         274.93814      133554.77     -807634.12     -9724.5308      0.36274735     0.057287774    28.522652      35.478822    
     98970   197.94         272.69466      130894.61     -807634.99     -9686.4942      0.36276291     0.057061251    28.511861      35.137779    
     98980   197.96         277.67483      133820.49     -807634.08     -9727.6344      0.36277832     0.057301165    28.532747      34.796732    
     98990   197.98         273.49646      131592.93     -807634.55     -9689.2706      0.36279359     0.057072779    28.513649      34.455685    
     99000   198            270.71207      134593.83     -807631.92     -9751.6812      0.36280872     0.057438001    28.51026       34.114636    
     99010   198.02         274.92161      132064.6      -807633.46     -303.59779      0.3628237      0.057220344    28.551768      33.773581    
     99020   198.04         282.91967      133122.33     -807633.39     -304.40097      0.36283855     0.057369376    28.56051       33.432523    
     99030   198.06         278.52494      131887.76     -807634.73     -302.27397      0.36285324     0.056966201    28.560561      33.091462    
     99040   198.08         276.44481      132644.91     -807633.17     -303.26876      0.3628678      0.057151385    28.577337      32.750398    
     99050   198.1          282.6345       132449.09     -807633.9      -303.1752       0.36288221     0.057131484    28.534169      32.409338    
     99060   198.12         281.45228      133016.09     -807633.76     -302.88895      0.36289648     0.057075299    28.516455      32.068277    
     99070   198.14         284.34931      132722.8      -807633.87     -303.0313       0.36291061     0.057099899    28.553669      31.72721     
     99080   198.16         288.02634      132982.32     -807633.39     -303.83804      0.36292459     0.057249706    28.551865      31.386142    
     99090   198.18         280.39828      133703.97     -807631.31     -304.67318      0.36293843     0.057404877    28.517761      31.045075    
     99100   198.2          286.71591      132315.9      -807633.26     -303.45952      0.36295213     0.057174047    28.565536      30.704002    
     99110   198.22         288.62648      133691.69     -807633.06     -303.73175      0.36296568     0.057223201    28.652946      30.362917    
     99120   198.24         291.69125      132196.32     -807633.77     -303.36415      0.36297909     0.057151833    28.620786      30.021834    
     99130   198.26         275.18639      134448.53     -807630.91     -303.73916      0.36299236     0.057220391    28.640325      29.680747    
     99140   198.28         291.09807      131508.38     -807635.68     -301.07872      0.36300548     0.056717149    28.614265      29.339661    
     99150   198.3          286.83529      133682.28     -807632.59     -303.38619      0.36301846     0.057149786    28.64201       28.99857     
     99160   198.32         285.2333       132183.96     -807633.27     -302.4695       0.3630313      0.056975092    28.6302        28.657479    
     99170   198.34         283.13463      135433.76     -807631.03     -304.17264      0.36304399     0.057293902    28.497061      28.316401    
     99180   198.36         297.56775      131580.61     -807634.18     -302.98188      0.36305655     0.057067639    28.651753      27.975304    
     99190   198.38         291.32652      134323.13     -807631.19     -304.9003       0.36306895     0.057427016    28.746097      27.634197    
     99200   198.4          283.36715      133290.4      -807631.09     -303.87239      0.36308122     0.05723148     28.685655      27.293094    
     99210   198.42         288.18452      134352.95     -807631.1      -304.35841      0.36309334     0.057321103    28.664223      26.951991    
     99220   198.44         295.71884      131082.34     -807634.41     -301.99242      0.36310532     0.05687363     28.594247      26.610894    
     99230   198.46         293.74938      132895.71     -807632.86     -303.12457      0.36311715     0.057084985    28.649408      26.26979     
     99240   198.48         300.77662      132074.89     -807634.66     -302.28043      0.36312885     0.056924181    28.676807      25.928682    
     99250   198.5          291.29105      133389.17     -807632.15     -303.34538      0.3631404      0.057122912    28.726989      25.587567    
     99260   198.52         292.99383      132392.29     -807633.29     -302.36401      0.3631518      0.056936323    28.678639      25.246456    
     99270   198.54         290.39952      134338.2      -807630.83     -304.36423      0.36316306     0.057311194    28.660786      24.905344    
     99280   198.56         299.73844      133736.71     -807631.9      -304.58658      0.36317418     0.057351306    28.609766      24.564236    
     99290   198.58         290.07947      134194.21     -807630.86     -304.1878       0.36318516     0.057274488    28.521988      24.223134    
     99300   198.6          297.8806       133266.52     -807633.47     -302.6373       0.36319599     0.05698085     28.496228      23.882031    
     99310   198.62         298.21913      132431.8      -807633.21     -302.84648      0.36320668     0.057018556    28.522027      23.540925    
     99320   198.64         298.71733      132824.34     -807632.35     -303.70129      0.36321723     0.057177836    28.594573      23.199811    
     99330   198.66         294.86698      132259.69     -807633.35     -302.20337      0.36322763     0.056894194    28.526386      22.8587      
     99340   198.68         288.06041      135639.56     -807631.47     -303.04755      0.36323789     0.057051511    28.580007      22.517584    
     99350   198.7          296.55045      133840.37     -807631.86     -303.88929      0.36324801     0.057208383    28.549428      22.176468    
     99360   198.72         292.814        136036.69     -807629.44     -305.69079      0.36325798     0.057545943    28.523692      21.835352    
     99370   198.74         309.28665      133160.47     -807633.89     -303.62821      0.36326781     0.057156117    28.499342      21.494236    
     99380   198.76         293.50823      134883.14     -807630.73     -304.51658      0.3632775      0.05732182     28.502581      21.153118    
     99390   198.78         301.20624      131580.15     -807633.78     -302.73228      0.36328704     0.056984449    28.524709      20.811996    
     99400   198.8          293.18852      133818.88     -807631.42     -303.93108      0.36329644     0.057208622    28.542086      20.470871    
     99410   198.82         291.41672      131524.13     -807633.66     -301.68971      0.3633057      0.056785284    28.495366      20.129748    
     99420   198.84         291.32254      134805.75     -807631.28     -304.03424      0.36331481     0.057225146    28.507053      19.788622    
     99430   198.86         288.19948      132278.21     -807632.48     -302.65259      0.36332378     0.056963687    28.517409      19.447493    
     99440   198.88         297.77649      134797.75     -807631.58     -304.90636      0.36333261     0.057386486    28.552121      19.10636     
     99450   198.9          297.02286      132384.34     -807632.67     -304.0479       0.36334129     0.057223547    28.502916      18.765228    
     99460   198.92         287.05971      136069.13     -807629.99     -305.46823      0.36334983     0.057489509    28.525153      18.424093    
     99470   198.94         295.14803      132371.17     -807634.02     -302.90533      0.36335823     0.057005851    28.516483      18.082957    
     99480   198.96         295.3963       133429.03     -807633.11     -304.02866      0.36336648     0.057215958    28.573488      17.741815    
     99490   198.98         276.16951      131647.08     -807632.16     -302.71038      0.3633746      0.056966597    28.534618      17.400674    
     99500   199            285.30553      133862.79     -807632.82     -303.53673      0.36338256     0.057120853    28.532855      17.059531    
     99510   199.02         282.11798      131770.23     -807633.98     -9670.8303      0.36339039     0.056870607    28.479626      16.718389    
     99520   199.04         298.56952      134302.11     -807634.34     -9737.7978      0.36339807     0.057263209    28.521448      16.377243    
     99530   199.06         282.54176      133032.59     -807633.01     -9721.4476      0.3634056      0.057165875    28.516199      16.036095    
     99540   199.08         288.94111      134392.04     -807632.84     -9758.8181      0.363413       0.057384461    28.517068      15.694945    
     99550   199.1          287.36427      133544.05     -807634.17     -9716.0801      0.36342025     0.05713201     28.518573      15.353794    
     99560   199.12         280.97818      133634.77     -807632.61     -9741.4366      0.36342736     0.05727999     28.507285      15.012641    
     99570   199.14         286.26179      132633.75     -807633.83     -9730.5245      0.36343432     0.05721473     28.524488      14.671485    
     99580   199.16         279.51337      132843.85     -807634        -9698.973       0.36344114     0.057028139    28.513263      14.330328    
     99590   199.18         282.92838      132657.03     -807634.52     -9698.272       0.36344782     0.05702297     28.520158      13.989168    
     99600   199.2          277.66467      132682.87     -807633.72     -9703.0003      0.36345435     0.057049745    28.518846      13.648007    
     99610   199.22         284.78552      134056.56     -807633.21     -9749.2193      0.36346074     0.057320486    28.509931      13.306844    
     99620   199.24         278.14082      132909.89     -807633.71     -9704.613       0.36346699     0.057057243    28.525028      12.965679    
     99630   199.26         292.32259      134087.09     -807634.61     -9736.7516      0.3634731      0.057245237    28.523306      12.624512    
     99640   199.28         273.77594      132870.38     -807632.31     -9728.9314      0.36347906     0.057198322    28.514444      12.283343    
     99650   199.3          283.97103      134591.19     -807632.39     -9765.8976      0.36348487     0.057414735    28.504675      11.942173    
     99660   199.32         287.17319      130998.36     -807635.48     -9679.8894      0.36349055     0.056908196    28.530865      11.600999    
     99670   199.34         283.37929      133679.9      -807632.64     -9746.3985      0.36349608     0.057298331    28.515529      11.259825    
     99680   199.36         282.65007      130982.22     -807634.64     -9680.4187      0.36350147     0.056909598    28.523499      10.918648    
     99690   199.38         287.16891      134531.07     -807632.64     -9756.5364      0.36350671     0.057356254    28.517097      10.57747     
     99700   199.4          286.64597      132117.53     -807634.66     -9688.9214      0.36351181     0.056957962    28.521942      10.236289    
     99710   199.42         282.58515      134047.58     -807631.61     -9760.0705      0.36351677     0.057375442    28.510237      9.8951076    
     99720   199.44         285.31624      131856        -807633.11     -9722.7412      0.36352158     0.057155242    28.520573      9.5539234    
     99730   199.46         291.14016      134592.79     -807632.48     -9761.4553      0.36352625     0.057382086    28.508988      9.2127377    
     99740   199.48         285.37059      132029.03     -807633.54     -9698.2913      0.36353078     0.057010071    28.522419      8.8715497    
     99750   199.5          290.89566      133303.9      -807633.16     -9728.3921      0.36353516     0.057186324    28.525204      8.5303597    
     99760   199.52         291.50333      131453.97     -807634.5      -9686.7285      0.3635394      0.056940749    28.517409      8.189168     
     99770   199.54         290.93645      133501.93     -807632.74     -9734.4787      0.3635435      0.057220791    28.497975      7.847975     
     99780   199.56         291.14049      132344.39     -807633.4      -9713.1214      0.36354745     0.057094628    28.522965      7.5067794    
     99790   199.58         283.68319      134300.08     -807631.58     -9734.8857      0.36355126     0.057221961    28.521596      7.1655819    
     99800   199.6          285.82476      134229.07     -807631.53     -9744.0362      0.36355493     0.05727517     28.517574      6.8243827    
     99810   199.62         289.49335      133314.99     -807631.55     -9756.9131      0.36355845     0.057350305    28.520176      6.4831814    
     99820   199.64         293.17103      133284.09     -807632.79     -9729.8502      0.36356183     0.0571907      28.519539      6.1419783    
     99830   199.66         280.8474       132458.45     -807632.19     -9693.9281      0.36356507     0.056979047    28.518273      5.8007734    
     99840   199.68         295.76549      133389.76     -807633.1      -9727.8636      0.36356816     0.057178027    28.509925      5.4595667    
     99850   199.7          280.32874      132728.79     -807631.28     -9717.3365      0.36357111     0.057115688    28.520124      5.1183579    
     99860   199.72         295.24173      133780.24     -807632.97     -9726.4662      0.36357392     0.057168908    28.514337      4.7771473    
     99870   199.74         298.09057      131831.87     -807634.07     -9703.7595      0.36357658     0.057035028    28.518085      4.4359348    
     99880   199.76         286.29395      135159.41     -807629.81     -9786.3504      0.3635791      0.057520067    28.515666      4.0947204    
     99890   199.78         293.77208      133352.07     -807632.88     -9724.2675      0.36358148     0.057154796    28.521107      3.753504     
     99900   199.8          287.11052      134722.13     -807630.9      -9755.3465      0.36358371     0.057337113    28.518551      3.4122858    
     99910   199.82         287.02256      132797.11     -807633.17     -9682.8039      0.3635858      0.056910416    28.512088      3.0710658    
     99920   199.84         289.80176      134400.84     -807631.64     -9742.5368      0.36358775     0.057261188    28.520869      2.7298438    
     99930   199.86         291.79485      132375.54     -807633.4      -9696.5602      0.36358955     0.056990681    28.525755      2.3886199    
     99940   199.88         284.24352      134735.5      -807631.42     -9723.9624      0.36359121     0.057151474    28.509863      2.0473942    
     99950   199.9          293.35492      132462.81     -807633.81     -9690.6471      0.36359273     0.056955429    28.51892       1.7061665    
     99960   199.92         294.38216      134873.48     -807631.41     -9771.4092      0.3635941      0.057429881    28.51704       1.364937     
     99970   199.94         280.22033      133340.66     -807629.99     -9755.6118      0.36359533     0.05733684     28.521943      1.0237056    
     99980   199.96         300.29107      133740.5      -807633.28     -9736.9532      0.36359641     0.057227007    28.506979      0.68247228   
     99990   199.98         279.66874      132270.21     -807631.32     -9710.4028      0.36359736     0.057070814    28.527585      0.34123707   
    100000   200            295.46824      133697.55     -807632.35     -9746.6002      0.36359816     0.057283431    28.508722      0            
Loop time of 3412.38 on 32 procs for 100000 steps with 1080 atoms

Performance: 5.064 ns/day, 4.739 hours/ns, 29.305 timesteps/s, 31.649 katom-step/s
70.6% CPU use with 32 MPI tasks x 1 OpenMP threads

MPI task timing breakdown:
Section |  min time  |  avg time  |  max time  |%varavg| %total
---------------------------------------------------------------
Pair    | 2557.9     | 2807.7     | 3062.3     | 244.4 | 82.28
Neigh   | 0.0012209  | 0.0013106  | 0.0014336  |   0.1 |  0.00
Comm    | 274.82     | 529.97     | 780.13     | 562.9 | 15.53
Output  | 2.4353     | 2.4653     | 2.478      |   0.5 |  0.07
Modify  | 64.779     | 65.846     | 66.608     |   6.8 |  1.93
Other   |            | 6.427      |            |       |  0.19

Nlocal:          33.75 ave          43 max          27 min
Histogram: 3 3 5 7 2 4 4 1 1 2
Nghost:        1035.88 ave        1051 max        1021 min
Histogram: 1 2 4 2 5 5 8 3 1 1
Neighs:              0 ave           0 max           0 min
Histogram: 32 0 0 0 0 0 0 0 0 0
FullNghs:      5389.31 ave        6858 max        4292 min
Histogram: 3 3 5 6 3 4 4 1 1 2

Total # of neighbors = 172458
Ave neighs/atom = 159.68333
Neighbor list builds = 3
Dangerous builds = 0

Total wall time: 1:00:24
