
units		metal
atom_style	atomic

read_data ${STRUCTURE}.data
read_data BaTiO3-sc333.data
Reading data file ...
  orthogonal box = (0 0 0) to (11.898253 11.898253 12.912076)
  2 by 4 by 4 MPI processor grid
  reading atoms ...
  135 atoms
  read_data CPU = 0.009 seconds
replicate $L $L $L
replicate 2 $L $L
replicate 2 2 $L
replicate 2 2 2
Replication is creating a 2x2x2 = 8 times larger system...
  orthogonal box = (0 0 0) to (23.796507 23.796507 25.824152)
  2 by 4 by 4 MPI processor grid
  1080 atoms
  replicate CPU = 0.003 seconds

pair_style allegro
pair_coeff	* * ${MODEL}.pth Ba Ti O
pair_coeff	* * BaTiO3-E0.pth Ba Ti O
mass 1 137.3
mass 2 47.9
mass 3 15.9994

timestep 0.002
compute polarization all allegro polarization 3
compute allegro will evaluate the quantity polarization of length 3 (src/compute_allegro.cpp:53)
compute polarizability all allegro polarizability 9
compute allegro will evaluate the quantity polarizability of length 9 (src/compute_allegro.cpp:53)

thermo_style custom pe fmax fnorm spcpu cpuremain

variable efield equal 1e-2*36.36
fix born all addbornforce 0.0 0.0 ${efield}
fix born all addbornforce 0.0 0.0 0.3636

thermo 10
min_style fire
#minimize 0.0 1e-6 100 100
velocity all create ${TEMP} ${SEED} dist gaussian rot yes mom yes
velocity all create 320 ${SEED} dist gaussian rot yes mom yes
velocity all create 320 9061 dist gaussian rot yes mom yes
fix nvt all nvt temp ${TEMP} ${TEMP} $(100*dt)
fix nvt all nvt temp 320 ${TEMP} $(100*dt)
fix nvt all nvt temp 320 320 $(100*dt)
fix nvt all nvt temp 320 320 0.2000000000000000111
run 5000
Neighbor list info ...
  update: every = 1 steps, delay = 0 steps, check = yes
  max neighbors/atom: 2000, page size: 100000
  master list distance cutoff = 8
  ghost atom cutoff = 8
  binsize = 8, bins = 3 3 4
  1 neighbor lists, perpetual/occasional/extra = 1 0 0
  (1) pair allegro/kk, perpetual
      attributes: full, newton on, kokkos_device
      pair build: full/bin/kk/device
      stencil: full/bin/3d
      bin: kk/device
Per MPI rank memory allocation (min/avg/max) = 3.516 | 3.516 | 3.516 Mbytes
    PotEng          Fmax          Fnorm          S/CPU         CPULeft    
-807708.3       1.5955962      37.043446      0              0            
-807647.39      3.544496       44.057987      2.1648494      2305.0114    
-807634.12      2.3591755      35.085836      25.835161      1246.5762    
-807605.56      3.050014       36.816051      25.877843      893.4008     
-807601.67      3.898442       50.168867      25.847689      716.67574    
-807571.28      4.0060301      39.754732      25.801888      610.55396    
-807602.68      3.0539599      38.106022      25.884594      539.57495    
-807646.67      3.6372418      33.638161      25.894181      488.7552     
-807683.44      2.4882687      34.177312      25.860816      450.57448    
-807669.35      3.6090187      33.809424      25.855012      420.7972     
-807650.71      3.5322887      35.203117      25.896232      396.86781    
-807658.11      2.163928       27.763997      25.892495      377.22151    
-807626.31      3.0414941      31.29549       25.854008      360.8086     
-807587.63      3.2064657      40.686427      25.862003      346.85677    
-807566.51      3.2682155      38.469211      25.929013      334.80813    
-807631.52      3.415944       34.150273      25.917851      324.31992    
-807653.24      3.4170192      32.391218      25.87992       315.11162    
-807665.32      3.0278306      35.186766      25.878484      306.9418     
-807642.77      5.5036159      47.284539      25.925754      299.61794    
-807677.2       3.2066044      37.14414       25.903124      293.03293    
-807641.03      5.1739886      40.102575      25.870596      287.07948    
-807616.75      3.4964985      39.356584      25.933399      281.63484    
-807558.8       5.8179228      46.584246      25.92674       276.65227    
-807604.3       4.5645651      48.718688      25.905753      272.07591    
-807615.1       5.1397922      38.444522      25.865834      267.86056    
-807643.37      3.128568       35.129299      25.933493      263.93235    
-807641.37      4.5367594      44.677306      25.92245       260.27964    
-807680.16      3.1852514      37.847636      25.888305      256.87784    
-807663         3.0172008      34.559597      25.821356      253.70832    
-807637.11      2.87475        32.670581      25.925261      250.70547    
-807604.94      3.8350741      34.559096      25.930605      247.87585    
-807602.88      4.0905466      42.334495      25.883565      245.2145     
-807597.95      3.3719212      37.105815      25.811214      242.71118    
-807610.16      3.6239943      33.038147      25.913203      240.31453    
-807641.59      2.7521271      30.48445       25.922638      238.03422    
-807672.14      2.8916364      32.621728      25.922281      235.86224    
-807676.23      3.1391058      33.767414      25.831461      233.80698    
-807642.79      4.7380403      39.293108      25.915994      231.82609    
-807644.1       2.931175       32.29094       25.899127      229.9322     
-807619.93      3.7737199      35.134874      25.920127      228.11194    
-807600.33      3.7563135      44.591838      25.8323        226.37848    
-807568.65      4.320469       42.317428      25.925445      224.69513    
-807622.21      3.2312455      36.11162       25.921859      223.07415    
-807648.9       4.4615238      36.895256      25.907553      221.51289    
-807673.06      2.9922269      35.76415       25.83898       220.01566    
-807640.74      4.9889159      46.910897      25.894279      218.55943    
-807664.91      2.8286793      35.608276      25.91424       217.14677    
-807645.38      3.8458593      36.509189      25.873537      215.78366    
-807624.02      3.6585351      37.981859      25.909283      214.45623    
-807563.02      3.8677157      43.581822      25.940414      213.16295    
-807599.08      3.9293859      42.767054      25.930041      211.90738    
-807624.49      4.2731209      34.860442      25.880505      210.69242    
-807655.31      2.8039134      32.044389      25.928407      209.50317    
-807642.71      4.454913       40.178122      25.936452      208.34325    
-807669.8       2.731168       34.422688      25.905106      207.21585    
-807667.36      3.1794858      32.870051      25.831032      206.12438    
-807642.81      3.5794445      31.008542      25.886986      205.05142    
-807598.93      2.8137772      35.821638      25.936979      203.99677    
-807594.48      3.5105807      38.690975      25.916421      202.96752    
-807605.58      3.9784009      40.325847      25.853709      201.96707    
-807618.68      3.4043652      33.02685       25.86653       200.98568    
-807635.27      4.0083326      33.158669      25.920671      200.01798    
-807661.66      3.6366515      34.33342       25.916518      199.06948    
-807675.48      3.1839176      36.205128      25.822817      198.14856    
-807646.96      3.9234184      37.861287      25.824499      197.24414    
-807632.52      2.9273872      33.764988      25.902823      196.3478     
-807613.25      3.417414       35.09091       25.937513      195.46353    
-807603.59      4.187363       45.542969      25.87024       194.60063    
-807580.2       3.9718746      40.124664      25.893168      193.74956    
-807613.37      2.829648       36.832626      25.926842      192.90883    
-807643.74      3.8008943      37.187649      25.929645      192.08085    
-807673.15      3.8520426      37.34792       25.886601      191.2692     
-807648.88      4.6543375      41.848024      25.841497      190.47338    
-807650.39      3.4370052      36.328858      25.89676       189.68392    
-807641.21      4.1030144      35.080281      25.866533      188.90797    
-807624.33      3.9682955      38.160594      25.88998       188.14041    
-807575.71      4.0070049      40.068049      25.891413      187.38277    
-807586.07      3.052183       39.711899      25.924143      186.63209    
-807626.25      3.0977912      32.46179       25.924824      185.89072    
-807658.7       2.8200506      32.495772      25.894002      185.1608     
-807649.46      3.6611796      37.157282      25.921684      184.43731    
-807655.45      3.5987505      36.534284      25.788219      183.73248    
-807664.04      2.644252       33.584753      25.818101      183.0331     
-807643.6       3.2542412      32.53951       25.902659      182.33489    
-807602.13      3.0058486      36.620508      25.932891      181.64187    
-807580.5       3.6598162      40.839226      25.922721      180.95684    
-807603.45      3.6845041      41.496138      25.862557      180.28308    
-807625.86      3.9220454      34.801544      25.877917      179.61483    
-807637.88      3.1110491      34.97365       25.896952      178.95165    
-807648.16      4.7330988      38.737875      25.919979      178.29312    
-807670.65      3.2613419      36.428212      25.82619       177.64703    
-807651.87      3.2137612      36.451055      25.799771      177.00841    
-807630.83      2.9828896      34.703207      25.919164      176.36734    
-807602.05      4.0214849      37.115728      25.930378      175.73102    
-807604.14      3.904842       43.42124       25.898297      175.10209    
-807596.08      4.2758402      38.06344       25.859526      174.48075    
-807614         3.4681309      36.424077      25.914435      173.86085    
-807637.77      4.3522715      36.290136      25.928654      173.24489    
-807668.2       2.8272628      35.823235      25.859054      172.63789    
-807657.83      3.9351705      37.24548       25.789901      172.03954    
-807645.73      3.2554678      34.990432      25.849736      171.44182    
-807633.74      3.7283862      33.773677      25.896995      170.84548    
-807623.6       3.1106046      36.379086      25.911926      170.25239    
-807593.96      3.511842       37.842951      25.893684      169.66437    
-807589.46      2.8408352      38.05943       25.933111      169.078      
-807623.27      3.4886166      33.000501      25.929965      168.49563    
-807655.16      3.5139539      33.597063      25.911171      167.91801    
-807659.86      3.5608831      34.353052      25.869305      167.34627    
-807649.44      4.524641       37.835198      25.888211      166.77693    
-807655.44      3.4183531      33.286475      25.917386      166.2094     
-807641.43      4.2754964      33.387947      25.873358      165.64749    
-807613.52      3.251638       35.437378      25.889474      165.0879     
-807579.58      3.763413       39.309192      25.922355      164.52971    
-807604.89      3.6912093      38.307485      25.916044      163.97489    
-807631.71      3.4510377      33.48331       25.92957       163.42235    
-807650.42      2.8476628      33.473199      25.884415      162.87497    
-807645.02      4.0688905      38.807817      25.89595       162.3298     
-807665.13      3.5190645      34.656831      25.80423       161.79183    
-807652.28      3.562959       35.833102      25.798386      161.25671    
-807635.45      3.3524652      33.226132      25.85848       160.72117    
-807594.14      4.9326239      38.664803      25.908757      160.18574    
-807601.23      4.1272938      40.868528      25.893829      159.65348    
-807606.01      4.4806029      37.391746      25.818343      159.12711    
-807629.74      2.594744       33.353983      25.893075      158.59958    
-807635.85      3.8312752      36.904872      25.928579      158.07271    
-807664.19      2.6907794      34.097614      25.890294      157.54983    
-807661.15      2.7524501      34.972189      25.807751      157.03277    
-807648.7       3.4355032      32.97029       25.868823      156.51507    
-807620.66      3.4572606      34.899878      25.898189      155.99815    
-807616.33      3.1767601      35.930787      25.918751      155.48237    
-807599.46      3.7912264      39.375306      25.850641      154.97148    
-807601.32      3.587887       36.600135      25.842817      154.46282    
-807620.58      3.1807232      33.447284      25.918319      153.95286    
-807654.02      3.324273       32.817717      25.914285      153.44494    
-807662.98      4.0416775      34.432911      25.853773      152.9413     
-807650.89      3.2571917      35.868804      25.832923      152.44023    
-807643.58      3.5155695      34.412154      25.895323      151.93835    
-807635.54      2.7266929      32.747532      25.861329      151.4395     
-807615.03      3.385392       37.558598      25.901141      150.94071    
-807582.93      3.9753633      40.224217      25.877473      150.44447    
-807602.64      3.5765795      37.959585      25.90197       149.94885    
-807632.51      3.9122422      34.823218      25.815689      149.45808    
-807655.63      2.847941       34.308587      25.845602      148.96763    
-807646.7       3.6789339      38.574384      25.859489      148.4781     
-807653.11      3.4347936      36.167564      25.859176      147.99002    
-807648.84      2.9935877      34.769179      25.829661      147.50442    
-807634.05      2.7981316      33.973952      25.851379      147.01938    
-807594.02      3.02307        37.156342      25.833692      146.53631    
-807593.43      3.5220991      40.045414      25.864225      146.05345    
-807610.33      3.1728266      36.935467      25.837351      145.57283    
-807638.28      2.9676991      33.504598      25.822033      145.09399    
-807639.61      3.8941791      36.426192      25.910944      144.6133     
-807654.92      3.8134152      36.155983      25.914973      144.13371    
-807656.2       2.8285466      35.557441      25.800369      143.65924    
-807647.78      3.2703512      33.876921      25.838762      143.1846     
-807616.4       3.0648022      34.540206      25.85147       142.71067    
-807603.71      3.311082       36.186317      25.920692      142.23557    
-807600.31      4.1450167      39.389936      25.849375      141.76394    
-807614.12      3.5130436      34.594623      25.810527      141.29465    
-807625.17      3.78508        34.206256      25.910307      140.82318    
-807647.38      4.2001197      33.916521      25.891584      140.35337    
-807661.69      2.8752382      34.424784      25.833546      139.88643    
-807653.67      3.9611347      34.778031      25.846444      139.42008    
-807637.66      3.3048175      33.496706      25.886014      138.95347    
-807624.91      3.6839282      33.27339       25.898529      138.48746    
-807613.15      4.0117211      37.609363      25.910649      138.02206    
-807595.91      4.1267207      38.00748       25.863368      137.55903    
-807607.55      3.3468836      36.081767      25.868172      137.09677    
-807632.53      3.8253293      33.617414      25.921654      136.63384    
-807657.76      3.0061345      33.58009       25.881222      136.173      
-807652.16      3.7804552      35.383734      25.89518       135.71263    
-807649.69      3.237954       34.374939      25.893508      135.25318    
-807641.99      3.5350831      33.388598      25.856638      134.79563    
-807633.15      3.1953268      33.333855      25.853216      134.33899    
-807603.09      2.960879       36.09477       25.870172      133.88268    
-807595.32      3.2012384      37.479697      25.851512      133.42769    
-807614.15      3.2129707      34.655878      25.836478      132.97389    
-807642.96      2.5614122      32.790861      25.852133      132.52041    
-807647.44      3.2165918      34.3012        25.908661      132.06616    
-807652.08      2.7612914      34.83315       25.899794      131.61291    
-807652.85      2.7975682      34.309926      25.876021      131.16103    
-807647.53      3.266824       31.557378      25.874076      130.70993    
-807621.32      3.4720039      33.247779      25.898768      130.25889    
-807599.35      3.0959515      35.716272      25.886926      129.80887    
-807601.44      3.0184701      37.460546      25.910555      129.35893    
-807619.89      3.6239867      35.312024      25.860379      128.91097    
-807633.77      3.4049555      33.540423      25.904517      128.46255    
-807644.58      3.6008148      35.279347      25.928587      128.01419    
-807657.98      2.7542258      34.253834      25.881063      127.56768    
-807651.81      2.6552219      34.567311      25.821158      127.12328    
-807638.76      2.9430689      33.367219      25.858034      126.67858    
-807614.88      3.1328404      34.788068      25.875792      126.23406    
-807609.47      3.2700307      36.841216      25.892895      125.78973    
-807602.21      3.195503       37.170353      25.875568      125.34642    
-807616.22      2.9778208      35.505299      25.902362      124.90306    
-807629.87      3.6167387      35.122406      25.925615      124.45975    
-807653.45      2.7209156      33.681422      25.888227      124.01789    
-807653.01      3.7499688      35.574552      25.828312      123.57798    
-807647.6       2.9802091      34.365196      25.799049      123.13926    
-807629.81      3.3960423      35.779049      25.802833      122.70097    
-807624.47      3.3432958      35.113669      25.895012      122.26113    
-807604.79      3.2510839      37.504336      25.92041       121.82125    
-807601.67      3.6955339      37.447621      25.895827      121.38245    
-807614.1       3.8439682      36.270577      25.852609      120.94511    
-807640.75      3.638652       33.926863      25.811471      120.50916    
-807649.23      3.1443265      34.890821      25.836263      120.07315    
-807646.82      4.0899432      36.307946      25.854738      119.63722    
-807643.43      3.9711899      35.26098       25.815092      119.2026     
-807639.97      3.2992656      33.775118      25.860356      118.76749    
-807619.89      4.1084821      35.515906      25.902198      118.33197    
-807599.86      3.1335945      36.63658       25.933579      117.89628    
-807603.72      4.6267796      37.495856      25.894548      117.46186    
-807623.48      3.9146062      34.234383      25.87959       117.0282     
-807639.04      4.5482935      34.046927      25.873304      116.5951     
-807643.25      3.618504       35.236931      25.875764      116.1624     
-807652.1       4.5962797      34.440741      25.829608      115.73104    
-807648.21      4.7489268      34.756677      25.833625      115.3        
-807637.07      3.2481548      34.46557       25.869518      114.86868    
-807609.81      3.4966192      36.342202      25.909557      114.43699    
-807606.62      3.4998593      37.271906      25.905853      114.00579    
-807606.35      3.2703538      37.160503      25.850499      113.57605    
-807623.74      2.8395157      34.034949      25.858459      113.14655    
-807631.95      3.6684565      34.739403      25.913027      112.71642    
-807650.94      3.6516777      34.17659       25.873627      112.28741    
-807651.71      2.9188586      34.431692      25.814082      111.85988    
-807647.03      3.2903226      33.275459      25.863798      111.4318     
-807627.08      3.1594041      34.745758      25.829342      111.00471    
-807616.93      3.2078158      35.470753      25.908408      110.57655    
-807605.28      4.3382161      38.449688      25.882252      110.14923    
-807608.62      3.518876       36.643197      25.879819      109.72231    
-807621.06      3.5222085      34.683233      25.876255      109.2958     
-807639.01      3.0504814      34.283947      25.858333      108.86995    
-807651.68      3.8360124      34.4427        25.850182      108.44458    
-807648.67      3.8278979      34.755603      25.83081       108.01987    
-807640.76      3.4386118      34.659814      25.846878      107.59521    
-807630.95      3.4707912      33.398009      25.839704      107.17099    
-807618.64      3.3248834      34.88556       25.920837      106.74573    
-807604.09      3.3918568      36.252111      25.898117      106.32118    
-807610.32      2.8819492      35.325881      25.936121      105.89633    
-807626.96      3.0972963      34.29898       25.907953      105.47227    
-807643.42      2.9187873      34.292874      25.927587      105.04821    
-807644.23      3.4976076      35.555917      25.887001      104.62511    
-807647.94      3.7774406      34.797336      25.850695      104.2029     
-807640.41      4.8069134      35.353308      25.862574      103.7808     
-807632.65      3.3054803      34.001106      25.896955      103.35844    
-807610.73      4.5087368      35.851908      25.883262      102.93659    
-807605.35      4.091496       36.574923      25.898169      102.5148     
-807612.09      3.6304712      35.867467      25.92762       102.09285    
-807631.45      2.9474006      34.06149       25.919749      101.67132    
-807640.35      4.5929597      34.918013      25.92769       101.24995    
-807647.87      3.5874606      35.185642      25.926127      100.82889    
-807649.68      3.8979668      35.666917      25.891547      100.40862    
-807643.55      2.8458796      34.645409      25.875352      99.988857    
-807626.22      3.9089984      34.729559      25.907958      99.568884    
-807609.99      3.1238603      36.568707      25.93279       99.148822    
-807607.82      2.9945292      36.867534      25.916071      98.729269    
-807615.62      2.8663718      35.493589      25.864798      98.310708    
-807628.03      3.163439       34.13196       25.918036      97.891645    
-807641.06      3.0168277      34.612132      25.907242      97.47299     
-807651.6       2.5910617      34.520282      25.860997      97.055229    
-807649.81      2.9326666      34.568084      25.872395      96.637551    
-807639.04      3.7403739      34.56332       25.886137      96.219923    
-807624.79      3.294749       33.74842       25.92228       95.802045    
-807615.38      3.027826       35.55566       25.898184      95.384735    
-807607.29      3.0633212      37.011716      25.890715      94.967761    
-807614.82      3.2183185      35.252569      25.920051      94.550631    
-807628.86      2.8507314      34.660234      25.931495      94.133586    
-807645.91      3.4062873      34.347799      25.908958      93.71707     
-807647.35      3.7865143      35.878124      25.865431      93.301344    
-807647.45      3.79079        35.223565      25.896072      92.885441    
-807636.26      3.7500225      35.707464      25.927053      92.469366    
-807628.29      5.5478435      35.506759      25.886366      92.054027    
-807609.87      3.7301531      37.391325      25.900325      91.638727    
-807606.32      4.266567       37.934258      25.926758      91.223314    
-807615.24      3.1344177      36.400164      25.927284      90.808112    
-807633.52      3.1918577      35.797139      25.918427      90.393231    
-807643.09      3.1095876      35.335762      25.905864      89.978713    
-807647.55      3.569147       35.944245      25.903432      89.564431    
-807643.99      3.2752455      35.632838      25.89182       89.150489    
-807638.54      3.6751308      34.55965       25.855869      88.737171    
-807621.66      3.1963683      35.60602       25.869968      88.323878    
-807607.7       3.8359702      36.772966      25.925021      87.910135    
-807607.12      3.2751535      36.700468      25.903019      87.496845    
-807619.33      2.8792194      35.653584      25.893829      87.083851    
-807635.08      2.5752042      33.664248      25.899365      86.670984    
-807642.61      3.1592854      35.109741      25.884607      86.258471    
-807648.52      3.4018334      35.751206      25.894611      85.846029    
-807643.41      2.8293627      36.027999      25.874124      85.433997    
-807635.5       3.3433072      34.55844       25.880564      85.022071    
-807615.61      3.5077566      37.040627      25.927396      84.609813    
-807610         3.5815426      37.302856      25.925706      84.197756    
-807609.54      3.7819879      36.99541       25.924744      83.78589     
-807620.46      4.1079232      36.358365      25.920051      83.374253    
-807631.4       3.4708735      35.649474      25.897683      82.963028    
-807645.84      4.3506542      34.660721      25.925443      82.551685    
-807646.72      3.0996819      35.445268      25.926683      82.140501    
-807644.2       3.0396877      34.589647      25.893721      81.729828    
-807629.92      3.5832991      35.416951      25.926593      81.318986    
-807620.39      3.035461       35.588246      25.915913      80.90842     
-807610.59      3.7013966      37.003721      25.858723      80.498593    
-807612.75      3.5531288      36.201671      25.92052       80.088305    
-807620.27      3.364426       35.301675      25.93174       79.67807     
-807636.86      3.8033719      34.077427      25.93522       79.267964    
-807644.16      3.7226845      35.599598      25.906975      78.858292    
-807646.32      4.0783626      35.676134      25.874246      78.449092    
-807640.21      4.5425823      35.478664      25.887644      78.039913    
-807633.09      3.493358       34.618703      25.885253      77.630905    
-807619.88      4.1410211      36.333014      25.905611      77.221855    
-807608.91      3.6611096      36.764888      25.840653      76.813559    
-807612.02      3.3875832      35.955849      25.875719      76.405077    
-807625.66      3.2979499      34.215461      25.872904      75.996763    
-807638.68      3.9114368      33.774795      25.873451      75.588584    
-807646.01      3.5424628      34.423151      25.911668      75.180201    
-807646.27      3.2133392      33.958094      25.923002      74.77186     
-807642.8       3.185719       34.263179      25.918723      74.363701    
-807633.16      2.8799682      33.931586      25.902064      73.95583     
-807615.98      3.7814669      35.97938       25.927518      73.547875    
-807609.55      3.3484749      37.134823      25.896662      73.140327    
-807616.09      5.0437392      36.210073      25.920853      72.732707    
-807627.78      4.2472732      35.329574      25.914173      72.32528     
-807637.72      3.9110178      35.218204      25.896817      71.918133    
-807646.83      3.4061504      34.873276      25.882061      71.51124     
-807645.58      3.5334169      35.513342      25.860507      71.104652    
-807641.58      3.2237754      34.898439      25.898002      70.697881    
-807627         3.4458933      34.768155      25.904229      70.291186    
-807617.62      4.3271458      35.809351      25.922876      69.88447     
-807612.74      3.3675851      36.93254       25.9118        69.47797     
-807617.5       3.6120021      36.349562      25.891047      69.071759    
-807626.94      2.9911587      34.522576      25.926485      68.665394    
-807639.19      3.3031685      33.862583      25.928091      68.259141    
-807646.41      3.4948669      34.481267      25.925931      67.85303     
-807645.2       3.6631276      35.2099        25.887125      67.447337    
-807637.2       3.5244385      34.072012      25.930735      67.041432    
-807627.68      3.1691002      34.753476      25.930772      66.635649    
-807618.47      3.733188       35.301045      25.916659      66.230091    
-807611.58      3.3884519      37.461684      25.921407      65.824615    
-807616.86      3.9300907      35.706107      25.933581      65.419169    
-807628.7       4.2239119      35.562016      25.919821      65.013939    
-807641.64      3.2684793      34.915317      25.92911       64.608758    
-807643.15      4.0997067      35.926582      25.908166      64.20384     
-807644.24      3.3766277      34.882853      25.89839       63.799102    
-807636.73      3.8547224      35.336152      25.900522      63.394458    
-807627.16      3.0263773      35.095898      25.884345      62.990034    
-807615.19      3.7718658      36.924744      25.867674      62.58583     
-807610.34      3.3048516      36.349779      25.879807      62.181646    
-807618.11      3.818826       35.304646      25.897683      61.777446    
-807631.93      3.5298393      33.667078      25.877515      61.373483    
-807640.92      3.5378399      34.317515      25.905452      60.969438    
-807644.44      4.4620616      35.162869      25.9212        60.565394    
-807643.37      3.6763656      34.730491      25.888482      60.161666    
-807637.93      4.9685575      34.684238      25.931031      59.757766    
-807626         3.6373044      35.726325      25.924307      59.354012    
-807611.91      3.2306863      37.004437      25.912269      58.950436    
-807609.84      3.5680174      37.91005       25.898732      58.547044    
-807618.29      3.6335602      36.011042      25.884218      58.143839    
-807631.78      3.6029921      34.923416      25.874555      57.740788    
-807636.98      3.9295189      35.831757      25.918057      57.337568    
-807644.59      3.8053416      35.254683      25.926828      56.934393    
-807643.36      4.1547011      35.118938      25.918774      56.531363    
-807636.48      3.3678093      35.285616      25.933553      56.128342    
-807621.56      3.724002       35.863292      25.921562      55.725488    
-807612.84      3.9569188      37.17389       25.918657      55.322745    
-807613.33      4.5450047      36.75952       25.928819      54.920037    
-807618.91      4.1354512      37.42547       25.928692      54.517425    
-807629.14      3.7790953      35.867571      25.925086      54.114925    
-807640.67      4.328684       34.309827      25.928575      53.712498    
-807643.46      3.4002969      35.523151      25.905278      53.31029     
-807639.75      3.5628222      35.673653      25.901684      52.908189    
-807631.55      4.4809491      34.561408      25.889203      52.506242    
-807623.25      3.0820574      34.508156      25.898344      52.104332    
-807612.5       4.4495069      37.07055       25.927185      51.702356    
-807613.69      3.734561       36.21885       25.914581      51.300533    
-807621.49      3.344782       35.031743      25.891792      50.898913    
-807632.59      3.8104593      34.6685        25.902495      50.497321    
-807641.27      2.8321181      34.842746      25.912512      50.095761    
-807642.48      3.8615091      35.181878      25.899777      49.694349    
-807638.42      3.3115851      34.926694      25.907927      49.292977    
-807631.6       2.9037208      34.902024      25.871735      48.891864    
-807622.26      3.1535455      35.177511      25.93127       48.490541    
-807614.56      2.8770776      34.922982      25.912447      48.089391    
-807613.71      2.6800628      35.732372      25.907655      47.688343    
-807624.76      2.7982364      34.869847      25.927931      47.28728     
-807634.38      3.5731368      34.350323      25.921932      46.886325    
-807641.79      3.0783362      33.84021       25.916546      46.485474    
-807639.83      3.3784774      34.792608      25.883273      46.084851    
-807640.56      2.9719845      34.376147      25.895374      45.684248    
-807633.98      2.6594155      33.523436      25.867585      45.283842    
-807622.53      3.2270822      33.667482      25.903558      44.883352    
-807615.08      3.6337557      35.010632      25.909844      44.482908    
-807617.22      3.6189873      34.962775      25.92228       44.082486    
-807627         2.8734931      33.616032      25.927584      43.682117    
-807634.27      3.159565       33.970673      25.93344       43.281799    
-807640.9       2.9293086      33.80051       25.921491      42.881605    
-807643.09      3.1938978      34.289561      25.881299      42.481647    
-807640.94      2.8863552      33.666657      25.891726      42.081717    
-807629.81      3.3254983      34.318625      25.9093        41.681786    
-807620.55      3.1812795      34.702826      25.911335      41.281918    
-807614.29      3.3472553      35.87112       25.919755      40.882087    
-807619.89      3.6964566      35.403709      25.894269      40.482424    
-807623.74      2.9733443      35.302231      25.93912       40.08266     
-807634.85      3.0566353      34.156803      25.921576      39.683032    
-807643.21      3.74229        35.087579      25.896981      39.283564    
-807644.1       2.9134066      33.97874       25.860922      38.884293    
-807635.82      3.696877       33.9235        25.901192      38.48494     
-807628.55      3.332055       34.226418      25.897393      38.085667    
-807621.3       3.7221354      34.586705      25.932242      37.686336    
-807616.05      3.8636931      35.863179      25.916823      37.287126    
-807617.38      3.1536663      34.629659      25.931768      36.887931    
-807625.9       3.5045689      34.698884      25.918105      36.488848    
-807637.98      2.6093243      34.425904      25.932686      36.089782    
-807641.08      2.8887088      35.20336       25.907024      35.690865    
-807638.87      3.961986       35.061075      25.900332      35.292033    
-807635.31      3.241394       35.368898      25.895596      34.893277    
-807629.18      3.7271866      34.244169      25.90723       34.494546    
-807619.05      3.2397528      35.702189      25.853355      34.096044    
-807613.63      4.6627432      35.692292      25.851646      33.697603    
-807620.59      3.429642       34.932873      25.92193       33.299006    
-807628.67      4.2758725      35.139259      25.919086      32.90048     
-807637.85      2.8824369      34.317575      25.906194      32.502052    
-807638.26      3.9282431      35.766187      25.900163      32.1037      
-807640.93      3.9762878      34.554099      25.912772      31.705371    
-807635.18      3.7338461      34.980338      25.929187      31.307055    
-807625.59      3.243429       34.939731      25.920902      30.908822    
-807617.23      3.1705191      36.092714      25.930901      30.510621    
-807615.31      3.3249476      36.185462      25.92783       30.112487    
-807622.85      3.4781207      35.411983      25.927454      29.714412    
-807629.27      3.658134       35.257244      25.910173      29.316441    
-807635.9       3.2593845      34.821013      25.935621      28.918461    
-807640.13      3.5368527      35.848833      25.918494      28.520582    
-807642.23      2.8447773      34.271677      25.912049      28.122775    
-807632.55      3.2773235      34.718749      25.881024      27.725098    
-807623.72      3.3507514      34.783914      25.905739      27.327415    
-807616.14      3.298657       35.907711      25.922436      26.929747    
-807619.77      3.0531673      35.566948      25.855978      26.532287    
-807620.19      3.0032957      34.994428      25.893792      26.134791    
-807628.86      3.8125396      34.812707      25.926163      25.737275    
-807638.27      3.4817741      34.85616       25.929952      25.339804    
-807641.56      3.0953751      35.772854      25.912804      24.942424    
-807637.45      3.5355082      35.193656      25.905125      24.545113    
-807631.79      4.2049064      35.238551      25.931252      24.1478      
-807622.9       3.5346119      36.040568      25.926618      23.750548    
-807618.94      4.1617111      36.871555      25.892776      23.353417    
-807616.01      3.3256724      36.29431       25.902585      22.956316    
-807621.11      4.1385294      35.942659      25.905969      22.559258    
-807632.23      3.5908815      34.699162      25.9269        22.162211    
-807638.1       3.825199       35.264024      25.922332      21.765223    
-807640.54      3.1362784      34.284633      25.923816      21.368282    
-807636.36      4.4322709      35.123292      25.920033      20.971399    
-807632.04      2.850666       34.092367      25.887486      20.574621    
-807624.9       4.2876433      35.319429      25.897459      20.177873    
-807617.83      3.7221849      35.42667       25.933427      19.781112    
-807616.97      3.9798347      35.679539      25.921643      19.384421    
-807624.82      3.4401127      34.051042      25.922943      18.987775    
-807634.57      2.8556574      34.671565      25.923656      18.591177    
-807637.18      3.8326394      35.214031      25.899891      18.194662    
-807638.79      3.6610464      34.763712      25.841246      17.798279    
-807637.33      3.1941286      34.955897      25.888132      17.40187     
-807631.3       3.0243096      34.575259      25.894289      17.005497    
-807621.61      3.000369       35.280163      25.904145      16.609155    
-807616.56      3.4499424      35.082733      25.916974      16.21284     
-807621.97      2.977016       34.259487      25.882105      15.816617    
-807625.3       3.101742       34.986076      25.881188      15.420437    
-807634.14      3.0241931      34.02755       25.889134      15.02429     
-807638.07      4.0235065      34.628547      25.903517      14.628169    
-807641.03      3.1245308      34.339693      25.901554      14.232093    
-807636.74      3.3717523      34.110883      25.918715      13.836041    
-807628.99      3.0255628      34.809055      25.898279      13.440055    
-807621.5       2.6586006      34.137516      25.882348      13.044128    
-807619.55      3.0596189      34.496827      25.90962       12.648214    
-807620.14      3.41662        34.912289      25.921736      12.252331    
-807627.8       3.905444       34.807064      25.907708      11.856504    
-807632.84      2.9229975      33.798036      25.906564      11.46072     
-807638.61      4.5808686      35.055996      25.923018      11.064962    
-807639.15      2.9533113      35.23719       25.919719      10.66925     
-807636         3.4647124      34.930674      25.901934      10.273595    
-807627.08      3.3200818      34.783499      25.925609      9.8779605    
-807621.73      3.839484       35.60688       25.9223        9.4823707    
-807618.15      2.9338893      35.531566      25.92443       9.0868205    
-807620.24      3.3155012      35.198473      25.928792      8.6913084    
-807628.67      3.1129025      33.774907      25.930393      8.2958363    
-807633.34      3.2823204      34.746282      25.952238      7.9003916    
-807638.5       3.0429863      33.355613      25.955155      7.5049873    
-807638.79      3.7491211      34.480576      25.941175      7.1096327    
-807632.69      3.7333379      34.610408      25.945984      6.7143165    
-807627.88      3.4128244      34.1328        25.974748      6.3190271    
-807620.99      2.597258       35.099035      25.99503       5.9237709    
-807617.02      2.8399515      35.18986       25.970046      5.5285689    
-807621.33      3.6731248      36.220426      25.956223      5.1334139    
-807628.63      3.4161349      34.989933      25.945011      4.7383036    
-807634.28      3.561072       35.633177      25.894809      4.3432497    
-807637.02      3.1617908      34.991428      25.908397      3.9482279    
-807636.31      3.8458471      35.167962      25.933657      3.553236     
-807630.48      3.3120584      35.089923      25.983289      3.1582704    
-807624.72      3.8374483      35.942277      25.953405      2.763352     
-807619.26      2.9653587      35.127861      25.970333      2.3684695    
-807618.94      2.9749969      35.939029      25.957131      1.9736287    
-807621.07      2.6288573      34.67797       26.014796      1.5788196    
-807631.48      3.8952767      34.899188      25.948899      1.1840584    
-807633.46      3.1905617      34.818072      25.939666      0.78933542   
-807636.78      3.5362237      34.907929      25.951011      0.39464902   
-807634.86      3.5872409      35.353716      25.938947      0            
Loop time of 197.315 on 32 procs for 5000 steps with 1080 atoms

Performance: 4.379 ns/day, 5.481 hours/ns, 25.340 timesteps/s, 27.367 katom-step/s
69.7% CPU use with 32 MPI tasks x 1 OpenMP threads

MPI task timing breakdown:
Section |  min time  |  avg time  |  max time  |%varavg| %total
---------------------------------------------------------------
Pair    | 102.11     | 144.79     | 192.98     | 310.1 | 73.38
Neigh   | 0          | 0          | 0          |   0.0 |  0.00
Comm    | 2.0625     | 50.254     | 92.92      | 526.4 | 25.47
Output  | 0.025203   | 0.026481   | 0.027924   |   0.3 |  0.01
Modify  | 1.9233     | 1.9372     | 1.9473     |   0.4 |  0.98
Other   |            | 0.3113     |            |       |  0.16

Nlocal:          33.75 ave          48 max          21 min
Histogram: 8 8 0 0 0 0 0 8 0 8
Nghost:        1106.25 ave        1119 max        1092 min
Histogram: 8 0 8 0 0 0 0 0 8 8
Neighs:              0 ave           0 max           0 min
Histogram: 32 0 0 0 0 0 0 0 0 0
FullNghs:       5494.5 ave        7896 max        3378 min
Histogram: 8 8 0 0 0 0 0 8 0 8

Total # of neighbors = 175824
Ave neighs/atom = 162.8
Neighbor list builds = 0
Dangerous builds = 0

reset_timestep 0


variable interval equal 1000
thermo 10

variable nintervals equal $(v_PERIOD/v_interval)
variable nintervals equal 100
variable efield equal 1e-2*36.36*cos((step/${PERIOD})*2*3.14)
variable efield equal 1e-2*36.36*cos((step/100000)*2*3.14)
fix born all addbornforce 0.0 0.0 v_efield

variable Px equal f_born[1]+c_polarization[1]
variable Py equal f_born[2]+c_polarization[2]
variable Pz equal (f_born[3]+c_polarization[3])/vol
variable pe equal pe

fix aveP all ave/time 1 $(v_interval/2) ${interval} v_efield v_Pz v_pe f_born file Pz.${MODEL}.${STRUCTURE}.${TEMP}.$L.${ITER}
fix aveP all ave/time 1 500 ${interval} v_efield v_Pz v_pe f_born file Pz.${MODEL}.${STRUCTURE}.${TEMP}.$L.${ITER}
fix aveP all ave/time 1 500 1000 v_efield v_Pz v_pe f_born file Pz.${MODEL}.${STRUCTURE}.${TEMP}.$L.${ITER}
fix aveP all ave/time 1 500 1000 v_efield v_Pz v_pe f_born file Pz.BaTiO3-E0.${STRUCTURE}.${TEMP}.$L.${ITER}
fix aveP all ave/time 1 500 1000 v_efield v_Pz v_pe f_born file Pz.BaTiO3-E0.BaTiO3-sc333.${TEMP}.$L.${ITER}
fix aveP all ave/time 1 500 1000 v_efield v_Pz v_pe f_born file Pz.BaTiO3-E0.BaTiO3-sc333.320.$L.${ITER}
fix aveP all ave/time 1 500 1000 v_efield v_Pz v_pe f_born file Pz.BaTiO3-E0.BaTiO3-sc333.320.2.${ITER}
fix aveP all ave/time 1 500 1000 v_efield v_Pz v_pe f_born file Pz.BaTiO3-E0.BaTiO3-sc333.320.2.7

thermo_style custom step time temp press pe f_born v_efield v_Pz spcpu cpuremain

# dump 4a all custom 1000 dump.hyst.${MODEL}.${STRUCTURE}.${TEMP}.$L.${ITER}.bin id type xu yu zu fx fy fz
# dump_modify 4a sort id

fix nvt all nvt temp ${TEMP} ${TEMP} $(100*dt)
fix nvt all nvt temp 320 ${TEMP} $(100*dt)
fix nvt all nvt temp 320 320 $(100*dt)
fix nvt all nvt temp 320 320 0.2000000000000000111

run $(v_PERIOD)
run 100000
WARNING: non-constant efield is experimental, strongly distrust scalar/vector output (src/fix_addbornforce.cpp:193)
Per MPI rank memory allocation (min/avg/max) = 3.516 | 3.516 | 3.516 Mbytes
   Step          Time           Temp          Press          PotEng         f_born        v_efield         v_Pz          S/CPU         CPULeft    
         0   0              324.16135      130494.9      -807634.86     -296.22129      0.3636         0.055710866    0              0            
        10   0.02           324.52507      131167        -807630.78     -300.52013      0.36359993     0.056519368    27.562675      3627.7517    
        20   0.04           327.36584      140482.07     -807622.46     -309.15813      0.36359971     0.058143967    27.566925      3627.0994    
        30   0.06           328.89995      140675.94     -807620.53     -311.5027       0.36359935     0.058584973    27.564696      3626.7377    
        40   0.08           331.70889      143836.32     -807618.44     -313.95399      0.36359885     0.059046073    27.61957       3624.5746    
        50   0.1            324.17918      137828.97     -807623.18     -308.35055      0.36359821     0.057992325    27.606225      3623.4815    
        60   0.12           324.6369       133735.96     -807629.01     -302.63993      0.36359742     0.056918435    27.597557      3622.8218    
        70   0.14           314.00807      128190.23     -807635.67     -294.66323      0.36359649     0.055418374    27.606198      3622.085     
        80   0.16           313.33854      127988.46     -807636.49     -293.85578      0.36359541     0.055266679    27.649598      3620.7316    
        90   0.18           325.45067      128411.07     -807635.87     -296.43969      0.36359419     0.055752832    27.693578      3618.9611    
       100   0.2            331.46682      134188.2      -807630.27     -303.03649      0.36359283     0.056993738    27.661178      3617.8949    
       110   0.22           322.56144      138794.81     -807623.93     -308.37243      0.36359132     0.057997537    27.648802      3617.1039    
       120   0.24           320.62181      142404.52     -807619.39     -312.84607      0.36358968     0.05883919     27.623763      3616.6572    
       130   0.26           323.95526      141958.06     -807619.69     -313.28668      0.36358788     0.058922349    27.619996      3616.2616    
       140   0.28           316.83009      137284.92     -807625.43     -306.8282       0.36358595     0.057707957    27.679391      3615.3166    
       150   0.3            316.0728       132784.63     -807632.08     -300.17785      0.36358387     0.056457489    27.667683      3614.5511    
       160   0.32           302.90296      126923.64     -807636.06     -294.6217       0.36358165     0.055412826    27.606475      3614.3365    
       170   0.34           320.38194      126669.43     -807638.13     -295.15987      0.36357928     0.055514407    27.615574      3614.0339    
       180   0.36           308.39225      128083.7      -807635.9      -295.98774      0.36357677     0.055670498    27.660638      3613.3978    
       190   0.38           326.75535      135223.2      -807631.02     -303.59634      0.36357412     0.057101971    27.54772       3613.569     
       200   0.4            304.4389       138860.8      -807621.91     -309.93981      0.36357132     0.058295531    27.605618      3613.3069    
       210   0.42           300.87673      144484.02     -807616.69     -314.6932       0.36356838     0.059190059    27.61917       3612.9509    
       220   0.44           314.86894      139636.75     -807622.44     -311.12873      0.3635653      0.05852012     27.601797      3612.6976    
       230   0.46           295.60089      138078.65     -807623.27     -307.59266      0.36356207     0.057855535    27.587768      3612.5147    
       240   0.48           323.42355      130187.71     -807635.05     -299.75713      0.3635587      0.056382262    27.601244      3612.2436    
       250   0.5            311.04445      128376.49     -807636.85     -296.15464      0.36355519     0.055705196    27.625138      3611.8397    
       260   0.52           302.46152      126071.84     -807639.14     -292.76327      0.36355153     0.05506785     27.628848      3611.4206    
       270   0.54           318.05989      130160.4      -807636.78     -297.17665      0.36354773     0.055898578    27.631312      3610.9938    
       280   0.56           324.43951      133336.67     -807630.61     -304.35403      0.36354379     0.057249256    27.626402      3610.5945    
       290   0.58           316.806        139969.39     -807622.43     -311.40655      0.3635397      0.0585765      27.615521      3610.2469    
       300   0.6            312.61376      141611.24     -807620.47     -312.76745      0.36353547     0.058833172    27.583707      3610.0371    
       310   0.62           304.52683      140987.79     -807620.87     -311.15447      0.3635311      0.058530467    27.614291      3609.6883    
       320   0.64           318.29799      136407.31     -807627.02     -306.84942      0.36352658     0.057721373    27.629339      3609.2772    
       330   0.66           312.92824      130079.82     -807633.55     -299.48514      0.36352192     0.056336802    27.620209      3608.9053    
       340   0.68           298.18175      127630.61     -807636.79     -294.02741      0.36351712     0.055310866    27.611676      3608.5667    
       350   0.7            316.35166      126288.71     -807640.17     -293.10939      0.36351217     0.055138924    27.662696      3608.0366    
       360   0.72           317.96376      130697.58     -807634.36     -299.03626      0.36350708     0.056254659    27.694703      3607.4002    
       370   0.74           320.64597      134285.25     -807628.9      -304.88902      0.36350185     0.057356505    27.730135      3606.6545    
       380   0.76           320.45457      140421.55     -807623        -310.58052      0.36349647     0.058428068    27.668656      3606.1391    
       390   0.78           315.94436      140873.47     -807620.92     -312.04685      0.36349095     0.058704815    27.622479      3605.7859    
       400   0.8            318.09501      142298.01     -807621.33     -311.81667      0.36348529     0.058662425    27.643432      3605.3639    
       410   0.82           315.20848      135068.44     -807627.56     -305.16655      0.36347948     0.057412247    27.688651      3604.8015    
       420   0.84           307.85521      132206.42     -807632.64     -298.80573      0.36347353     0.056216481    27.675159      3604.2903    
       430   0.86           310.42466      126384.52     -807639.02     -292.806        0.36346744     0.055088631    27.679702      3603.7725    
       440   0.88           315.72847      128554.95     -807636.56     -295.85587      0.3634612      0.055663391    27.69601       3603.2134    
       450   0.9            319.43033      129216.25     -807634.61     -298.32955      0.36345482     0.056129783    27.632698      3602.8463    
       460   0.92           313.36213      137927.82     -807625.74     -306.17417      0.3634483      0.057606758    27.605682      3602.556     
       470   0.94           324.95303      138429.47     -807624.37     -309.18491      0.36344163     0.058174295    27.59344       3602.2967    
       480   0.96           323.27517      143203.98     -807619.35     -313.67343      0.36343482     0.059019933    27.598791      3602.0185    
       490   0.98           326.53633      137355.33     -807624.62     -308.92045      0.36342786     0.058126738    27.607795      3601.713     
       500   1              321.97406      137316.63     -807627.91     -304.71133      0.36342077     0.057335867    27.594259      3601.4404    
       510   1.02           317.04558      128617.96     -807635.99     -9469.3286      0.36341353     0.055682104    27.541621      3601.2995    
       520   1.04           316.93509      128654.41     -807635.95     -9462.6063      0.36340614     0.055643706    27.547959      3601.134     
       530   1.06           315.97447      126778.67     -807637.61     -9404.4765      0.36339862     0.055303026    27.597583      3600.8386    
       540   1.08           320.35242      132381.6      -807631.62     -9611.1198      0.36339095     0.056519385    27.573529      3600.5989    
       550   1.1            321.89199      135599.01     -807626.79     -9771.466       0.36338313     0.057463557    27.57534       3600.3506    
       560   1.12           323.84757      142264.11     -807620.24     -9984.1902      0.36337518     0.05871582     27.536547      3600.1887    
       570   1.14           327.05319      140140.92     -807620.83     -9977.5383      0.36336707     0.058678009    27.562468      3599.9602    
       580   1.16           325.3215       140105.59     -807623.76     -9870.1801      0.36335883     0.058047951    27.550222      3599.7549    
       590   1.18           324.91799      133946.73     -807630.15     -9661.1107      0.36335044     0.056819695    27.500445      3599.6547    
       600   1.2            328.70476      129521.53     -807635.32     -9505.2816      0.36334191     0.055904533    27.505268      3599.5353    
       610   1.22           309.23565      127941.75     -807635.22     -9418.7653      0.36333324     0.055397017    27.537691      3599.3382    
       620   1.24           318.09559      128966.59     -807636.09     -9426.2395      0.36332442     0.055442323    27.569319      3599.0689    
       630   1.26           333.2111       132653.76     -807631.57     -9635.4371      0.36331546     0.056674158    27.558781      3598.8184    
       640   1.28           324.41494      137648.03     -807624.09     -9835.3976      0.36330636     0.057851745    27.542246      3598.5983    
       650   1.3            328.52796      142276.57     -807619.69     -9989.8109      0.36329711     0.058761498    27.586476      3598.2849    
       660   1.32           322.58126      140163.36     -807621.09     -9917.4254      0.36328772     0.058337224    27.571867      3597.9988    
       670   1.34           322.15522      139702.26     -807622.77     -9857.7047      0.36327819     0.057987451    27.60499       3597.646     
       680   1.36           332.25264      131984        -807630.89     -9642.7643      0.36326851     0.056724586    27.607012      3597.289     
       690   1.38           316.78759      130845.29     -807632.33     -9521.1551      0.36325869     0.056010721    27.635989      3596.8771    
       700   1.4            316.94676      126468.21     -807637.17     -9368.5175      0.36324873     0.055114301    27.619799      3596.4968    
       710   1.42           326.19755      130975.95     -807633.48     -9524.1376      0.36323863     0.056031362    27.575956      3596.1976    
       720   1.44           327.01821      133569.29     -807628.83     -9678.827       0.36322838     0.05694302     27.535017      3595.9709    
       730   1.46           329.93586      140746.83     -807622.68     -9886.2505      0.36321798     0.05816501     27.550169      3595.7133    
       740   1.48           329.96258      139945.13     -807621.76     -9917.4875      0.36320745     0.058350483    27.538448      3595.4735    
       750   1.5            323.52255      142923.62     -807619.72     -9952.4427      0.36319677     0.058557867    27.538983      3595.2296    
       760   1.52           335.9033       135917.28     -807626.07     -9808.6021      0.36318595     0.057713262    27.609498      3594.8614    
       770   1.54           327.12788      133095.04     -807629.85     -9646.7233      0.36317498     0.05676249     27.602345      3594.5055    
       780   1.56           310.378        128452.24     -807634.87     -9416.4894      0.36316387     0.055409461    27.554098      3594.2301    
       790   1.58           313.06801      128763.69     -807635.02     -9426.2825      0.36315262     0.055468805    27.547794      3593.9629    
       800   1.6            324.18114      129925.52     -807633.66     -9526.6746      0.36314122     0.05606132     27.547307      3593.6941    
       810   1.62           319.83663      135302.88     -807627.37     -9712.7494      0.36312968     0.057158125    27.564054      3593.3959    
       820   1.64           326.88527      138463.37     -807624.44     -9846.5148      0.363118       0.057947179    27.534021      3593.1441    
       830   1.66           321.44624      141256.14     -807620.77     -9946.494       0.36310618     0.058537467    27.532263      3592.8923    
       840   1.68           325.12654      141389.32     -807621.19     -9956.0847      0.36309421     0.058595842    27.559879      3592.595     
       850   1.7            325.69256      135976.54     -807626.45     -9799.9391      0.3630821      0.057678782    27.600206      3592.2342    
       860   1.72           312.70216      132107.31     -807631.77     -9578.1847      0.36306984     0.056375521    27.531458      3591.9778    
       870   1.74           310.90905      128249.91     -807637.13     -9406.9944      0.36305745     0.055369816    27.534543      3591.7141    
       880   1.76           314.84724      129299.98     -807635.61     -9479.382       0.3630449      0.055797818    27.548746      3591.4272    
       890   1.78           311.78065      129831        -807633.5      -9542.2245      0.36303222     0.056169687    27.539399      3591.1523    
       900   1.8            304.89098      135616.71     -807626.91     -9725.9637      0.36301939     0.057253278    27.568919      3590.8326    
       910   1.82           328.27729      137124.66     -807626.34     -9856.4796      0.36300642     0.058023652    27.593683      3590.4765    
       920   1.84           314.45805      142241.49     -807619.82     -10006.458      0.36299331     0.058908679    27.637566      3590.0583    
       930   1.86           309.4561       138849.57     -807623.22     -9883.1987      0.36298005     0.05818517     27.644988      3589.631     
       940   1.88           312.2779       137164.61     -807627.69     -9751.9547      0.36296665     0.057414619    27.622866      3589.2356    
       950   1.9            314.38531      129929.61     -807634.73     -9540.0748      0.36295311     0.056169273    27.56722       3588.917     
       960   1.92           310.34402      129501.94     -807635.79     -9486.7607      0.36293942     0.055857481    27.595119      3588.5598    
       970   1.94           299.70746      126978.58     -807636.27     -9426.6506      0.36292559     0.055505671    27.624257      3588.1634    
       980   1.96           314.68966      131126.83     -807634.48     -9548.0953      0.36291162     0.056222922    27.553496      3587.8616    
       990   1.98           315.20297      134095.57     -807629.36     -9717.4882      0.3628975      0.057222599    27.552484      3587.5599    
      1000   2              319.17408      139907.5      -807623.24     -9929.8419      0.36288325     0.058475367    27.465365      3587.3711    
      1010   2.02           310.82241      140811.86     -807621.93     -310.42899      0.36286884     0.058500572    27.69023       3586.8888    
      1020   2.04           314.77797      139113.87     -807624.89     -307.89674      0.3628543      0.058025693    27.661498      3586.4454    
      1030   2.06           317.92497      134394.42     -807629.93     -303.23179      0.36283961     0.057148858    27.61894       3586.0571    
      1040   2.08           324.27163      130402.18     -807635.16     -298.74184      0.36282478     0.056304956    27.595626      3585.6985    
      1050   2.1            306.1104       128240.26     -807636.47     -294.68393      0.3628098      0.05554244     27.595966      3585.3393    
      1060   2.12           319.01443      127934.34     -807639.32     -293.50329      0.36279469     0.055322216    27.619644      3584.9511    
      1070   2.14           307.73766      131556.57     -807630.91     -300.18565      0.36277943     0.05658415     27.615819      3584.568     
      1080   2.16           318.83927      135489.94     -807626.43     -306.06283      0.36276402     0.057694432    27.636239      3584.1607    
      1090   2.18           312.51036      140396.05     -807621.39     -309.92564      0.36274848     0.058425094    27.661413      3583.7245    
      1100   2.2            315.02558      139918.31     -807621.73     -309.64744      0.36273279     0.058375176    27.663454      3583.2872    
      1110   2.22           326.04404      139081.25     -807623.94     -308.71756      0.36271695     0.058202413    27.695967      3582.8134    
      1120   2.24           319.15178      133770.21     -807627.69     -303.69966      0.36270098     0.057258912    27.658159      3582.3853    
      1130   2.26           319.08652      131330.13     -807633.96     -297.04606      0.36268486     0.056006946    27.584934      3582.0423    
      1140   2.28           305.36743      128483.9      -807636.4      -292.46316      0.3626686      0.055145328    27.593084      3581.6896    
      1150   2.3            321.16414      129444.38     -807634.85     -295.9071       0.36265219     0.055797224    27.662594      3581.2586    
      1160   2.32           316.33742      132172.62     -807628.98     -300.90091      0.36263564     0.056741463    27.608795      3580.8887    
      1170   2.34           333.35497      136851.66     -807626.17     -305.81348      0.36261895     0.057670491    27.66393       3580.458     
      1180   2.36           327.93696      139555.66     -807623.06     -307.97027      0.36260212     0.058079914    27.684229      3580.0062    
      1190   2.38           339.88641      140299.22     -807622.1      -310.4143       0.36258514     0.058543574    27.662198      3579.58      
      1200   2.4            338.1528       137156.31     -807624.01     -308.11365      0.36256802     0.05811242     27.661552      3579.1554    
      1210   2.42           334.58447      133776.42     -807630.6      -300.88026      0.36255076     0.056750852    27.599801      3578.7979    
      1220   2.44           314.69702      130265.25     -807633.4      -295.29351      0.36253335     0.055699776    27.543083      3578.5008    
      1230   2.46           331.8207       128269.32     -807636.3      -294.77399      0.3625158      0.055604474    27.59936       3578.1432    
      1240   2.48           323.87787      129893.15     -807633.33     -296.60906      0.36249811     0.055953361    27.671072      3577.7106    
      1250   2.5            319.22304      132662.57     -807628.86     -300.40119      0.36248028     0.056671511    27.706551      3577.2427    
      1260   2.52           331.01681      137250.33     -807626.11     -304.75767      0.3624623      0.057496224    27.677031      3576.8066    
      1270   2.54           327.5225       139791.35     -807621.44     -309.03142      0.36244418     0.058305432    27.651535      3576.3976    
      1280   2.56           325.58553      141483.48     -807619.69     -310.46913      0.36242592     0.058579639    27.686878      3575.9538    
      1290   2.58           331.73097      136368.38     -807625.62     -305.50793      0.36240751     0.057646484    27.674768      3575.5233    
      1300   2.6            325.88525      134094.92     -807630.53     -299.73496      0.36238896     0.056560072    27.645988      3575.1225    
      1310   2.62           326.45715      128975.8      -807635.09     -295.37712      0.36237027     0.055740623    27.639797      3574.7283    
      1320   2.64           323.22447      129815.03     -807634.11     -295.92745      0.36235143     0.055847377    27.668415      3574.3066    
      1330   2.66           310.18516      129818.38     -807633.05     -295.32434      0.36233245     0.055736478    27.694536      3573.8605    
      1340   2.68           317.53706      134506.46     -807629.22     -300.16901      0.36231333     0.056653802    27.64752       3573.461     
      1350   2.7            332.86616      135857.67     -807626.13     -305.5853       0.36229407     0.057679136    27.66005       3573.0501    
      1360   2.72           327.78017      141423.62     -807619.62     -311.42098      0.36227466     0.05878377     27.590234      3572.7062    
      1370   2.74           324.20459      139213.22     -807622.66     -307.99817      0.36225511     0.058140817    27.59595       3572.3566    
      1380   2.76           327.93122      138441.18     -807626.25     -304.90212      0.36223542     0.057559505    27.582075      3572.0199    
      1390   2.78           325.0623       132305.03     -807630.64     -300.31476      0.36221558     0.056696606    27.561104      3571.7024    
      1400   2.8            315.95826      132080.91     -807631.85     -297.82256      0.3621956      0.056229204    27.60028       3571.3479    
      1410   2.82           318.65185      127499.95     -807637.3      -292.94692      0.36217548     0.055311751    27.615712      3570.9792    
      1420   2.84           318.82939      130958.05     -807633.92     -296.35505      0.36215522     0.055958376    27.631108      3570.5966    
      1430   2.86           318.13824      132599.18     -807629.88     -300.48906      0.36213481     0.056742165    27.5808        3570.2598    
      1440   2.88           327.14903      138049.37     -807624.27     -307.38295      0.36211426     0.058047252    27.606703      3569.8993    
      1450   2.9            326.24519      138221.49     -807624.36     -307.31718      0.36209357     0.058038149    27.605894      3569.5395    
      1460   2.92           327.23265      139990.07     -807624.67     -307.21422      0.36207273     0.058022043    27.587406      3569.1961    
      1470   2.94           313.86089      136330.81     -807625        -305.16684      0.36205176     0.057638702    27.561576      3568.8752    
      1480   2.96           325.7475       132709.37     -807630.47     -301.37579      0.36203064     0.056925985    27.609354      3568.5119    
      1490   2.98           312.02818      129528.07     -807634.14     -295.88473      0.36200937     0.055892079    27.632783      3568.1284    
      1500   3              303.85378      130146.12     -807634.46     -294.46031      0.36198796     0.055626297    27.635338      3567.7429    
      1510   3.02           320.94966      130093.05     -807634.16     -9510.5285      0.36196642     0.056147951    27.548043      3567.4325    
      1520   3.04           320.81398      134096.09     -807628.61     -9689.2973      0.36194472     0.057206789    27.546326      3567.1229    
      1530   3.06           325.77548      136683.18     -807626.9      -9767.887       0.36192289     0.057674271    27.564133      3566.7976    
      1540   3.08           320.27248      138305.22     -807623.92     -9838.845       0.36190091     0.058096769    27.544832      3566.4879    
      1550   3.1            312.03533      139395.78     -807622.46     -9848.3327      0.36187879     0.058156347    27.547052      3566.1758    
      1560   3.12           318.35616      135612.58     -807626.31     -9756.3211      0.36185653     0.057616545    27.595876      3565.8224    
      1570   3.14           320.71554      133076.5      -807632.3      -9572.4201      0.36183412     0.056534007    27.574044      3565.487     
      1580   3.16           307.72503      128493.18     -807635.03     -9429.6669      0.36181157     0.055694388    27.551696      3565.1695    
      1590   3.18           304.46053      130753.92     -807632.98     -9479.8178      0.36178888     0.055994105    27.593456      3564.8174    
      1600   3.2            309.05262      129853.49     -807632.71     -9511.3793      0.36176605     0.056184075    27.615851      3564.4471    
      1610   3.22           326.66246      134708.25     -807631.08     -9638.6962      0.36174307     0.056939757    27.618349      3564.075     
      1620   3.24           318.86921      135942.34     -807627.17     -9731.8957      0.36171995     0.057493999    27.622691      3563.6995    
      1630   3.26           320.09983      140952.45     -807621.65     -9911.1142      0.36169669     0.05855655     27.61658       3563.329     
      1640   3.28           314.78144      136794.93     -807624.52     -9797.8413      0.36167329     0.05789106     27.608258      3562.9651    
      1650   3.3            317.78665      136988.15     -807627.6      -9706.5185      0.36164974     0.057355209    27.549008      3562.6477    
      1660   3.32           319.52431      130227.87     -807634.43     -9499.7679      0.36162605     0.05613721     27.532639      3562.3426    
      1670   3.34           309.97303      132336.1      -807631.3      -9549.4984      0.36160222     0.056434803    27.560228      3562.0153    
      1680   3.36           312.70167      127664.25     -807635.46     -9429.9503      0.36157824     0.055732003    27.534937      3561.7071    
      1690   3.38           319.12619      133108.95     -807633.1      -9526.2811      0.36155413     0.056305084    27.470671      3561.4477    
      1700   3.4            316.5785       133583.49     -807630.03     -9614.1923      0.36152987     0.056828496    27.489822      3561.1724    
      1710   3.42           326.14051      139882.99     -807623.05     -9871.6065      0.36150546     0.058353983    27.53786       3560.8596    
      1720   3.44           319.86335      137547.29     -807624.01     -9812.4435      0.36148092     0.058008192    27.552682      3560.535     
      1730   3.46           316.58549      139017.86     -807624.32     -9777.4369      0.36145623     0.057805192    27.541542      3560.2183    
      1740   3.48           317.2392       133563.88     -807628.45     -9643.8938      0.3614314      0.057019588    27.545183      3559.8984    
      1750   3.5            321.82645      133220.63     -807629.85     -9609.3247      0.36140643     0.056819124    27.62207       3559.5213    
      1760   3.52           327.63186      128175.58     -807636.09     -9429.9864      0.36138131     0.055762587    27.637228      3559.1332    
      1770   3.54           310.17696      130718.94     -807633.84     -9415.2572      0.36135605     0.05567938     27.60463       3558.7692    
      1780   3.56           319.02731      132026.94     -807631.51     -9526.6223      0.36133065     0.056341925    27.561636      3558.4364    
      1790   3.58           331.88943      135525.79     -807627.47     -9708.4335      0.36130511     0.057421244    27.549174      3558.1122    
      1800   3.6            323.57748      138594.69     -807623.52     -9790.8543      0.36127942     0.057912845    27.545968      3557.7899    
      1810   3.62           320.74831      139771.82     -807623.12     -9784.6591      0.3612536      0.057880338    27.594777      3557.4323    
      1820   3.64           328.54174      138913.9      -807624.64     -9765.6856      0.36122763     0.057772255    27.57566       3557.0882    
      1830   3.66           326.96697      134590.02     -807627.95     -9649.4324      0.36120151     0.057088647    27.579692      3556.7411    
      1840   3.68           322.25541      132364.25     -807630.79     -9530.2752      0.36117526     0.056387779    27.558777      3556.4085    
      1850   3.7            324.81517      128655.59     -807634.93     -9404.8765      0.36114886     0.0556499      27.577402      3556.0626    
      1860   3.72           314.4252       131573.61     -807631.52     -9464.18        0.36112232     0.056004922    27.603422      3555.6984    
      1870   3.74           330.55533      131440.59     -807630.83     -9557.0722      0.36109564     0.056558797    27.563817      3555.3616    
      1880   3.76           331.20728      136376.84     -807625.76     -9719.2656      0.36106881     0.057522932    27.552212      3555.0324    
      1890   3.78           326.0197       137102.74     -807624.62     -9732.5854      0.36104184     0.057606067    27.524289      3554.7221    
      1900   3.8            319.05548      140283.52     -807621.26     -9804.8212      0.36101474     0.05803798     27.544367      3554.3975    
      1910   3.82           330.17708      135718.42     -807625.62     -9717.1753      0.36098748     0.057523517    27.589247      3554.0422    
      1920   3.84           339.29896      135502.13     -807628.6      -9659.1809      0.36096009     0.057184543    27.614181      3553.67      
      1930   3.86           322.16537      130432.4      -807631.84     -9481.1315      0.36093255     0.056134733    27.585659      3553.317     
      1940   3.88           328.05645      131580.74     -807633.53     -9452.1185      0.36090487     0.055967248    27.544272      3552.9915    
      1950   3.9            315.38834      129941.87     -807632.31     -9439.6765      0.36087705     0.055897886    27.543202      3552.6662    
      1960   3.92           327.09403      133365.57     -807629.59     -9581.7616      0.36084909     0.056743653    27.539133      3552.3433    
      1970   3.94           335.26446      133461.94     -807629        -9642.4303      0.36082098     0.057107384    27.481514      3552.0578    
      1980   3.96           315.43933      138322.27     -807622.32     -9772.177       0.36079273     0.057880341    27.482579      3551.7709    
      1990   3.98           323.7967       138357.61     -807623.03     -9791.5378      0.36076434     0.057999579    27.523548      3551.4565    
      2000   4              321.12387      137311.11     -807624.5      -9739.152       0.36073581     0.057693838    27.571508      3551.1106    
      2010   4.02           331.46287      133213.75     -807629.59     -300.78794      0.36070713     0.057023413    27.678424      3550.6963    
      2020   4.04           325.33817      131242.85     -807633.34     -296.41793      0.36067831     0.056199435    27.663403      3550.292     
      2030   4.06           314.17542      130457.59     -807633.13     -295.31826      0.36064935     0.055995439    27.633985      3549.9067    
      2040   4.08           316.7515       130466.22     -807633.67     -295.34237      0.36062025     0.05600453     27.675648      3549.4955    
      2050   4.1            316.70006      132906.08     -807630.45     -298.82691      0.36059101     0.056669884    27.669428      3549.0886    
      2060   4.12           320.07887      135077.44     -807628.4      -301.57519      0.36056162     0.057195732    27.671936      3548.6807    
      2070   4.14           319.48633      138294.32     -807625.06     -304.9563       0.36053209     0.057841719    27.688353      3548.263     
      2080   4.16           315.64792      137400.4      -807624.4      -305.34359      0.36050242     0.057919944    27.687341      3547.8465    
      2090   4.18           316.8608       136518.82     -807626.25     -303.75309      0.36047261     0.057623011    27.660923      3547.4467    
      2100   4.2            315.52188      132242.49     -807631.13     -298.83438      0.36044265     0.056694627    27.662024      3547.0466    
      2110   4.22           304.47662      131694.63     -807631.32     -297.16676      0.36041256     0.056382956    27.696392      3546.6261    
      2120   4.24           306.57127      128126.1      -807634.53     -294.37997      0.36038232     0.05585889     27.648926      3546.2347    
      2130   4.26           308.3854       130951.01     -807633.21     -295.96667      0.36035193     0.056164704    27.580414      3545.8849    
      2140   4.28           317.93583      131346.3      -807632.54     -298.06203      0.36032141     0.056567125    27.549757      3545.5534    
      2150   4.3            312.10695      136357.38     -807626.42     -303.33454      0.36029075     0.057572658    27.590576      3545.1972    
      2160   4.32           319.97354      137001.28     -807626.67     -304.20356      0.36025994     0.057742534    27.588662      3544.8421    
      2170   4.34           321.97586      138626.25     -807626.53     -304.55157      0.36022899     0.057813559    27.589906      3544.4861    
      2180   4.36           324.06254      134534.01     -807628.65     -302.69812      0.36019789     0.057466676    27.642553      3544.0991    
      2190   4.38           303.80868      134590.46     -807628.65     -299.86252      0.36016666     0.056933278    27.665878      3543.6988    
      2200   4.4            304.40325      130267.72     -807632.91     -295.62792      0.36013528     0.056134167    27.683348      3543.2886    
      2210   4.42           302.11151      130722        -807633.71     -294.34318      0.36010377     0.055895112    27.644378      3542.9014    
      2220   4.44           308.15037      130215.6      -807632.87     -296.04265      0.36007211     0.056222781    27.618756      3542.5293    
      2230   4.46           316.12525      133888.89     -807629.25     -300.62215      0.3600403      0.057097536    27.683979      3542.1198    
      2240   4.48           325.04164      135849.55     -807628.78     -302.17649      0.36000836     0.057397847    27.640819      3541.7353    
      2250   4.5            311.8435       137859.22     -807624.4      -304.53496      0.35997627     0.057850991    27.655602      3541.3427    
      2260   4.52           321.84071      137193.7      -807626.23     -303.9636       0.35994404     0.057747623    27.656948      3540.9496    
      2270   4.54           315.56215      135444.44     -807626.67     -302.56647      0.35991167     0.057487363    27.66745       3540.5508    
      2280   4.56           308.91924      132503.62     -807629.9      -298.2286       0.35987916     0.056668291    27.635009      3540.1706    
      2290   4.58           307.48414      130370.83     -807633.55     -294.19976      0.35984651     0.055907817    27.612876      3539.8029    
      2300   4.6            310.74086      130856.75     -807632.95     -295.05776      0.35981371     0.056075977    27.642099      3539.419     
      2310   4.62           329.98995      130397.18     -807633.98     -296.5723       0.35978077     0.056368976    27.666845      3539.0216    
      2320   4.64           319.73803      133804.62     -807628.43     -300.46289      0.35974769     0.057113707    27.615049      3538.653     
      2330   4.66           325.82726      134823.27     -807628.25     -301.4129       0.35971447     0.057299581    27.609463      3538.2876    
      2340   4.68           316.68264      139308.76     -807623.28     -304.9213       0.35968111     0.057971915    27.600506      3537.9271    
      2350   4.7            323.17873      135188.02     -807626.13     -302.91959      0.3596476      0.057596714    27.601697      3537.566     
      2360   4.72           307.36443      136927.22     -807625.27     -301.36267      0.35961396     0.057306044    27.692         3537.1559    
      2370   4.74           316.24576      131541.52     -807632.16     -295.65168      0.35958017     0.056225346    27.712458      3536.7353    
      2380   4.76           321.18648      130938.19     -807632.92     -295.34805      0.35954624     0.056172905    27.730309      3536.3057    
      2390   4.78           330.81153      128122.22     -807634.97     -294.59704      0.35951216     0.056035378    27.701193      3535.8921    
      2400   4.8            313.81347      132126.46     -807630.79     -296.32181      0.35947795     0.056368812    27.63382       3535.5147    
      2410   4.82           329.75253      132969.98     -807631.32     -297.98801      0.35944359     0.056691187    27.613206      3535.1484    
      2420   4.84           323.376        136992.13     -807625.16     -303.18976      0.35940909     0.057686339    27.628226      3534.7743    
      2430   4.86           311.01245      137030.87     -807621.95     -304.73188      0.35937446     0.057985339    27.661773      3534.3825    
      2440   4.88           322.83129      137090.93     -807625.05     -303.18183      0.35933967     0.057695976    27.668428      3533.9876    
      2450   4.9            325.37977      133954.05     -807629.61     -298.94503      0.35930475     0.056895235    27.625556      3533.6153    
      2460   4.92           318.55797      132235.43     -807630.24     -297.30767      0.35926969     0.056589135    27.610874      3533.2506    
      2470   4.94           313.42951      130824.68     -807631.9      -294.92858      0.35923448     0.056141804    27.612029      3532.8854    
      2480   4.96           315.65269      130526.11     -807633.35     -293.70459      0.35919913     0.055914311    27.609548      3532.5215    
      2490   4.98           320.13627      131584.16     -807632.76     -294.87792      0.35916364     0.056143231    27.589087      3532.1682    
      2500   5              314.13609      133900.74     -807627.13     -299.67879      0.35912801     0.057062954    27.571503      3531.8237    
[...]
     98740   197.48         327.73604      133999.19     -807629.97     -9696.2673      0.36236891     0.057180926    29.943439      43.8953      
     98750   197.5          324.05756      133956.59     -807630.32     -9660.8698      0.36238762     0.05696924     29.956764      43.54674     
     98760   197.52         320.61781      133695.07     -807629.82     -9656.2477      0.36240618     0.056939067    29.995699      43.198178    
     98770   197.54         321.16898      133249.93     -807630.99     -9617.2132      0.36242459     0.056706014    30.066484      42.849609    
     98780   197.56         304.69357      134168.31     -807627.64     -9646.0908      0.36244287     0.056873418    29.963315      42.501058    
     98790   197.58         327.93307      133554.3      -807630.62     -9652.2336      0.362461       0.056906789    29.985604      42.152506    
     98800   197.6          331.98243      134091.72     -807630.2      -9681.0325      0.36247899     0.057073747    30.067886      41.803947    
     98810   197.62         323.59499      134389.97     -807628.58     -9694.9227      0.36249683     0.057152821    30.072616      41.45539     
     98820   197.64         312.13471      135772.54     -807626.3      -9715.5554      0.36251453     0.057271657    29.962826      41.10685     
     98830   197.66         327.20928      135114.65     -807628.42     -9714.2666      0.36253209     0.057261286    29.935814      40.758318    
     98840   197.68         319.08774      134875.74     -807628.35     -9678.6938      0.36254951     0.05704886     29.881074      40.409795    
     98850   197.7          318.3356       134121.32     -807628.95     -9656.4157      0.36256678     0.056914835    29.885889      40.061275    
     98860   197.72         314.72103      132857.46     -807629.3      -9629.8075      0.36258391     0.056755325    29.931008      39.712752    
     98870   197.74         328.05653      133749.99     -807630.81     -9639.8995      0.3626009      0.056812142    29.931071      39.364231    
     98880   197.76         319.2417       133601.14     -807629.76     -9634.3102      0.36261774     0.056776565    29.898689      39.015718    
     98890   197.78         322.27396      134822.05     -807628.49     -9686.4008      0.36263445     0.057080914    29.906932      38.667206    
     98900   197.8          324.23003      134548.15     -807628.03     -9712.0715      0.362651       0.057229575    29.924496      38.318695    
     98910   197.82         323.3324       136179.44     -807627.24     -9733.451       0.36266742     0.057352961    29.904571      37.97019     
     98920   197.84         310.21307      134667.05     -807625.63     -9728.0085      0.36268369     0.05731832     29.909088      37.621687    
     98930   197.86         318.50118      135216.51     -807627.64     -9699.5818      0.36269982     0.057148286    29.850649      37.273193    
     98940   197.88         323.62901      133432.71     -807630.46     -9635.3114      0.36271581     0.056767114    29.914112      36.924695    
     98950   197.9          316.32964      135027.48     -807628.01     -9679.4026      0.36273165     0.057024389    30.034842      36.576186    
     98960   197.92         319.75956      133180.57     -807630.23     -9626.9918      0.36274735     0.056713166    30.000306      36.227683    
     98970   197.94         322.25598      134705.85     -807629.48     -9662.4213      0.36276291     0.056919443    29.998112      35.879184    
     98980   197.96         321.2623       134238.31     -807628.44     -9693.9047      0.36277832     0.057102478    30.067854      35.53068     
     98990   197.98         311.16514      135770.91     -807625.21     -9753.1433      0.36279359     0.057449009    30.049252      35.182181    
     99000   198            324.15485      134709.32     -807628.63     -9703.5046      0.36280872     0.057154238    29.891567      34.833704    
     99010   198.02         324.33334      134834.35     -807628.99     -302.90857      0.3628237      0.057090444    29.985498      34.485218    
     99020   198.04         319.95213      135418.18     -807628        -303.38545      0.36283855     0.057177985    30.008958      34.136733    
     99030   198.06         316.93776      133525.48     -807628.74     -302.32656      0.36285324     0.056976112    30.028858      33.788249    
     99040   198.08         326.56082      133504.26     -807631.25     -301.1487       0.3628678      0.056751856    30.040766      33.439767    
     99050   198.1          324.0966       132547.9      -807630.54     -301.63072      0.36288221     0.056840437    30.103584      33.091281    
     99060   198.12         311.73263      134955.62     -807627.07     -303.4769       0.36289648     0.057186089    30.10485       32.742798    
     99070   198.14         312.33823      134927.05     -807627.39     -303.39296      0.36291061     0.057168046    30.118763      32.394318    
     99080   198.16         317.74044      135675.35     -807627.51     -304.06073      0.36292459     0.057291667    30.062709      32.045846    
     99090   198.18         321.37412      134115.08     -807629        -303.2199       0.36293843     0.057131057    29.960507      31.697388    
     99100   198.2          312.26027      135994.04     -807626.62     -304.40006      0.36295213     0.057351253    29.934594      31.348936    
     99110   198.22         312.4706       133490.3      -807628.89     -302.33495      0.36296568     0.056960043    29.992947      31.00048     
     99120   198.24         316.79974      134408.22     -807629.33     -302.53595      0.36297909     0.056995806    30.015557      30.652026    
     99130   198.26         317.40708      131661.85     -807631.21     -300.98193      0.36299236     0.056700966    30.030754      30.303573    
     99140   198.28         319.83367      135408.47     -807628.87     -303.73161      0.36300548     0.057216901    30.080494      29.955118    
     99150   198.3          319.67165      133352.4      -807630.3      -302.4809       0.36301846     0.056979254    30.091412      29.606665    
     99160   198.32         315.17447      136151.65     -807627.6      -304.56261      0.3630313      0.057369364    30.067318      29.258219    
     99170   198.34         316.45312      133496.57     -807629.97     -302.68707      0.36304399     0.057014082    30.047965      28.909777    
     99180   198.36         309.79175      136458.78     -807626.54     -305.26796      0.36305655     0.05749823     30.012216      28.561341    
     99190   198.38         313.02715      132937.3      -807630.05     -302.37767      0.36306895     0.056951886    29.983664      28.212911    
     99200   198.4          310.227        135159.02     -807629.24     -302.83254      0.36308122     0.057035633    30.039047      27.864479    
     99210   198.42         310.16921      132055.89     -807630.92     -301.33463      0.36309334     0.056751622    30.114792      27.516044    
     99220   198.44         322.48536      134469.32     -807630.97     -303.05155      0.36310532     0.057073093    30.145854      27.167609    
     99230   198.46         313.30077      132813        -807630.37     -302.55224      0.36311715     0.056977202    30.120697      26.81918     
     99240   198.48         315.15224      135938.7      -807629.67     -303.52753      0.36312885     0.057159031    30.128734      26.470754    
     99250   198.5          308.42924      133862.04     -807629.46     -302.97419      0.3631404      0.057053014    30.130002      26.12233     
     99260   198.52         309.52186      135938.8      -807627.41     -305.18444      0.3631518      0.057467421    30.012519      25.77392     
     99270   198.54         312.56479      134224.5      -807629.51     -303.59558      0.36316306     0.057166459    29.942169      25.425518    
     99280   198.56         313.07387      135324.02     -807629.67     -303.49154      0.36317418     0.057145118    29.944029      25.07712     
     99290   198.58         317.04941      132682.88     -807631.8      -301.95565      0.36318516     0.056854204    30.007481      24.728719    
     99300   198.6          318.71284      134133.31     -807630.73     -303.19328      0.36319599     0.057085531    29.959292      24.380325    
     99310   198.62         309.11937      132763.32     -807630.94     -301.69633      0.36320668     0.056802012    30.042538      24.031927    
     99320   198.64         318.01524      134187.61     -807631.25     -302.48221      0.36321723     0.056948319    30.03807       23.683533    
     99330   198.66         299.3873       134656.32     -807628.03     -303.05871      0.36322763     0.057055223    30.069504      23.33514     
     99340   198.68         320.77036      135061.49     -807629.27     -304.64099      0.36323789     0.057351491    30.018384      22.986753    
     99350   198.7          318.47296      134822.53     -807628.82     -304.60281      0.36324801     0.057342706    30.013456      22.63837     
     99360   198.72         320.88468      134740.75     -807629.96     -303.5423       0.36325798     0.057141492    30.072447      22.289986    
     99370   198.74         315.52997      134239.54     -807628.93     -303.55413      0.36326781     0.057142173    30.039261      21.941608    
     99380   198.76         318.68291      133853.28     -807629.83     -302.89291      0.3632775      0.057016181    30.011682      21.593234    
     99390   198.78         318.11684      134298.78     -807629.25     -303.00015      0.36328704     0.057034869    30.04692       21.244861    
     99400   198.8          314.29443      133206.53     -807629.63     -301.84667      0.36329644     0.056816275    30.000081      20.896495    
     99410   198.82         334.94698      134688.42     -807631.09     -302.92253      0.3633057      0.057017332    30.014532      20.54813     
     99420   198.84         310.70765      134190.36     -807626.83     -303.61489      0.36331481     0.057146217    29.989562      20.19977     
     99430   198.86         339.55211      135845.37     -807628.88     -305.23301      0.36332378     0.05744936     30.005984      19.851412    
     99440   198.88         321.14908      134171.25     -807628.33     -303.06469      0.36333261     0.057039864    30.03005       19.503056    
     99450   198.9          326.97785      136101.89     -807627.91     -304.02627      0.36334129     0.057219474    29.993652      19.154705    
     99460   198.92         308.96091      134086.94     -807626.7      -302.68139      0.36334983     0.056965022    29.971489      18.806358    
     99470   198.94         327.8321       134293.43     -807629.09     -302.69173      0.36335823     0.056965653    30.007827      18.458012    
     99480   198.96         325.66639      131996        -807631.7      -299.73651      0.36336648     0.056408207    30.003287      18.10967     
     99490   198.98         326.00281      134443.42     -807629.16     -302.19568      0.3633746      0.056869736    30.015596      17.761329    
     99500   199            321.7658       133580.54     -807627.43     -303.3063       0.36338256     0.057077489    30.032935      17.412991    
     99510   199.02         330.77045      136119.84     -807627.07     -9753.9011      0.36339039     0.057359117    30.008217      17.064657    
     99520   199.04         322.7216       136128        -807626.81     -9728.1865      0.36339807     0.057206689    29.985078      16.716328    
     99530   199.06         320.31122      136536.63     -807625        -9772.2137      0.3634056      0.0574644      29.947098      16.368003    
     99540   199.08         333.62998      134459.24     -807628.23     -9730.0737      0.363413       0.057215436    29.931942      16.019682    
     99550   199.1          322.35862      135209.79     -807627.88     -9689.468       0.36342025     0.056975527    29.947347      15.671364    
     99560   199.12         324.53813      132696.51     -807629.71     -9642.4927      0.36342736     0.056698196    29.960695      15.323047    
     99570   199.14         326.45464      133665.35     -807629.96     -9643.7157      0.36343432     0.056704301    30.026314      14.97473     
     99580   199.16         326.608        133329.65     -807629.39     -9666.8568      0.36344114     0.056839302    29.999495      14.626418    
     99590   199.18         328.7639       134619.88     -807627.72     -9730.0026      0.36344782     0.057209537    29.949815      14.278111    
     99600   199.2          326.92921      135245.81     -807627.96     -9718.5231      0.36345435     0.057141013    29.920194      13.929808    
     99610   199.22         332.74016      135691.88     -807627.23     -9770.8726      0.36346074     0.057447797    29.917593      13.581508    
     99620   199.24         336.4046       135761.3      -807628.07     -9765.5275      0.36346699     0.057415384    29.951281      13.233209    
     99630   199.26         315.92105      135013.84     -807626.6      -9726.2738      0.3634731      0.057183635    29.91213       12.884915    
     99640   199.28         322.04526      134663.71     -807629.13     -9677.5577      0.36347906     0.056896286    29.905845      12.536624    
     99650   199.3          323.02137      133060.25     -807630.53     -9644.2151      0.36348487     0.05669935     29.983099      12.188333    
     99660   199.32         321.91046      133671.55     -807628.94     -9694.0555      0.36349055     0.056991478    29.947497      11.840046    
     99670   199.34         324.1958       133319.74     -807630.53     -9660.8785      0.36349608     0.056795566    29.973069      11.491761    
     99680   199.36         316.06112      135920.83     -807628.09     -9708.9644      0.36350147     0.057077413    29.890344      11.143482    
     99690   199.38         321.23947      135382.03     -807628.02     -9742.5671      0.36350671     0.057274132    29.886956      10.795206    
     99700   199.4          322.07577      136562.24     -807626.16     -9811.447       0.36351181     0.05767825     29.89181       10.446932    
     99710   199.42         322.52218      134970.19     -807629.1      -9729.2691      0.36351677     0.057194373    29.933104      10.09866     
     99720   199.44         302.93606      135924.67     -807626.35     -9734.8206      0.36352158     0.057226251    29.960099      9.7503896    
     99730   199.46         312.14157      132475.08     -807630.08     -9663.6939      0.36352625     0.056807402    29.964563      9.4021222    
     99740   199.48         316.62226      133517.75     -807630.27     -9682.64        0.36353078     0.056918067    29.983017      9.0538571    
     99750   199.5          319.42561      132408.44     -807632.42     -9634.8176      0.36353516     0.056636266    29.935883      8.7055963    
     99760   199.52         313.04982      134964.2      -807629.51     -9702.0691      0.3635394      0.057030925    29.934418      8.3573384    
     99770   199.54         315.10657      133406.97     -807629.9      -9708.3872      0.3635435      0.057067421    29.993921      8.0090818    
     99780   199.56         307.72247      135629.87     -807626.74     -9778.6149      0.36354745     0.057479605    29.975096      7.6608286    
     99790   199.58         321.75378      134168.24     -807630.12     -9739.6961      0.36355126     0.057250237    30.0505        7.3125766    
     99800   199.6          320.70923      134961.89     -807629.64     -9753.0838      0.36355493     0.057328352    29.981159      6.9643293    
     99810   199.62         305.88367      133214.74     -807629.15     -9707.6974      0.36355845     0.057061019    29.992356      6.6160846    
     99820   199.64         302.09974      133863.23     -807629.58     -9677.9915      0.36356183     0.056885881    30.033733      6.2678421    
     99830   199.66         310.78874      132048.75     -807632.21     -9634.5757      0.36356507     0.056630185    30.041711      5.9196026    
     99840   199.68         314.21875      132491.39     -807631.45     -9673.7567      0.36356816     0.05686        30.079913      5.5713654    
     99850   199.7          310.62305      133378.52     -807629.8      -9709.9018      0.36357111     0.057071989    30.063763      5.2231316    
     99860   199.72         310.33897      134616.56     -807628.87     -9738.3182      0.36357392     0.05723857     30.00631       4.8749019    
     99870   199.74         325.51218      134826.78     -807630.03     -9765.3452      0.36357658     0.057397006    29.994819      4.5266753    
     99880   199.76         316.7165       135858.14     -807628.37     -9776.9188      0.3635791      0.057464632    29.96193       4.1784522    
     99890   199.78         312.24171      135290.88     -807627.71     -9774.9162      0.36358148     0.057452486    29.954308      3.830232     
     99900   199.8          308.68258      133950.85     -807629.43     -9695.6948      0.36358371     0.056986509    29.893339      3.4820154    
     99910   199.82         301.88192      133616.63     -807629.11     -9665.0494      0.3635858      0.056806065    29.940678      3.1338011    
     99920   199.84         311.94545      133007.29     -807630.06     -9666.8179      0.36358775     0.056816155    29.968263      2.7855893    
     99930   199.86         319.05467      133848.96     -807629.21     -9706.9573      0.36358955     0.057051789    29.973075      2.4373805    
     99940   199.88         320.79263      133838.4      -807629.28     -9691.3069      0.36359121     0.056959545    29.960651      2.0891746    
     99950   199.9          326.07754      135634.79     -807628.34     -9725.8291      0.36359273     0.057162207    29.946301      1.7409717    
     99960   199.92         334.16974      135418.2      -807627.6      -9770.556       0.3635941      0.057424866    29.981083      1.3927715    
     99970   199.94         321.12659      136960.25     -807625.13     -9779.7903      0.36359533     0.057478945    29.962312      1.0445743    
     99980   199.96         323.01113      135431.27     -807627.13     -9716.6499      0.36359641     0.057107678    29.946645      0.69638      
     99990   199.98         329.75611      134491.57     -807628.67     -9688.7571      0.36359736     0.056943596    29.939438      0.34818858   
    100000   200            322.23549      133431.87     -807628        -9673.6327      0.36359816     0.056854581    29.960845      0            
Loop time of 3481.87 on 32 procs for 100000 steps with 1080 atoms

Performance: 4.963 ns/day, 4.836 hours/ns, 28.720 timesteps/s, 31.018 katom-step/s
67.5% CPU use with 32 MPI tasks x 1 OpenMP threads

MPI task timing breakdown:
Section |  min time  |  avg time  |  max time  |%varavg| %total
---------------------------------------------------------------
Pair    | 2374.6     | 2793.7     | 3089.1     | 252.1 | 80.24
Neigh   | 0.001655   | 0.0017726  | 0.0019449  |   0.2 |  0.00
Comm    | 320.4      | 615.81     | 1034.9     | 536.8 | 17.69
Output  | 2.3294     | 2.3371     | 2.3421     |   0.2 |  0.07
Modify  | 63.158     | 64.01      | 64.375     |   3.4 |  1.84
Other   |            | 6.031      |            |       |  0.17

Nlocal:          33.75 ave          40 max          26 min
Histogram: 2 2 3 1 3 7 3 4 3 4
Nghost:        1039.72 ave        1057 max        1026 min
Histogram: 2 6 3 3 5 6 2 0 3 2
Neighs:              0 ave           0 max           0 min
Histogram: 32 0 0 0 0 0 0 0 0 0
FullNghs:      5313.38 ave        6316 max        4039 min
Histogram: 2 2 3 1 5 4 4 4 3 4

Total # of neighbors = 170028
Ave neighs/atom = 157.43333
Neighbor list builds = 4
Dangerous builds = 0

Total wall time: 1:01:44
