
units		metal
atom_style	atomic

read_data ${STRUCTURE}.data
read_data BaTiO3-sc333.data
Reading data file ...
  orthogonal box = (0 0 0) to (11.898253 11.898253 12.912076)
  2 by 4 by 4 MPI processor grid
  reading atoms ...
  135 atoms
  read_data CPU = 0.004 seconds
replicate $L $L $L
replicate 2 $L $L
replicate 2 2 $L
replicate 2 2 2
Replication is creating a 2x2x2 = 8 times larger system...
  orthogonal box = (0 0 0) to (23.796507 23.796507 25.824152)
  2 by 4 by 4 MPI processor grid
  1080 atoms
  replicate CPU = 0.003 seconds

pair_style allegro
pair_coeff	* * ${MODEL}.pth Ba Ti O
pair_coeff	* * BaTiO3-E0.pth Ba Ti O
mass 1 137.3
mass 2 47.9
mass 3 15.9994

timestep 0.002
compute polarization all allegro polarization 3
compute allegro will evaluate the quantity polarization of length 3 (src/compute_allegro.cpp:53)
compute polarizability all allegro polarizability 9
compute allegro will evaluate the quantity polarizability of length 9 (src/compute_allegro.cpp:53)

thermo_style custom pe fmax fnorm spcpu cpuremain

variable efield equal 1e-2*36.36
fix born all addbornforce 0.0 0.0 ${efield}
fix born all addbornforce 0.0 0.0 0.3636

thermo 10
min_style fire
#minimize 0.0 1e-6 100 100
velocity all create ${TEMP} ${SEED} dist gaussian rot yes mom yes
velocity all create 340 ${SEED} dist gaussian rot yes mom yes
velocity all create 340 18671 dist gaussian rot yes mom yes
fix nvt all nvt temp ${TEMP} ${TEMP} $(100*dt)
fix nvt all nvt temp 340 ${TEMP} $(100*dt)
fix nvt all nvt temp 340 340 $(100*dt)
fix nvt all nvt temp 340 340 0.2000000000000000111
run 5000
Neighbor list info ...
  update: every = 1 steps, delay = 0 steps, check = yes
  max neighbors/atom: 2000, page size: 100000
  master list distance cutoff = 8
  ghost atom cutoff = 8
  binsize = 8, bins = 3 3 4
  1 neighbor lists, perpetual/occasional/extra = 1 0 0
  (1) pair allegro/kk, perpetual
      attributes: full, newton on, kokkos_device
      pair build: full/bin/kk/device
      stencil: full/bin/3d
      bin: kk/device
Per MPI rank memory allocation (min/avg/max) = 3.516 | 3.516 | 3.516 Mbytes
    PotEng          Fmax          Fnorm          S/CPU         CPULeft    
-807708.29      1.5956939      37.044279      0              0            
-807644.65      3.5474058      45.081366      2.6640911      1873.0601    
-807633.91      2.4877475      35.987933      25.948527      1030.6124    
-807608.56      3.5595573      36.512701      25.967822      749.49218    
-807600.95      4.3981077      50.03142       25.905471      608.85444    
-807567.51      3.9586135      40.922473      25.882994      524.35063    
-807600.65      3.1543578      39.027435      25.951043      467.80249    
-807647.36      3.7732571      34.200826      25.948466      427.30358    
-807681.28      2.3331974      35.005985      25.918311      396.86063    
-807666.52      3.3510237      35.251052      25.89656       373.11475    
-807649.01      3.4094299      36.757814      25.959173      353.99513    
-807660.37      2.3688859      29.75253       25.927064      338.30299    
-807623.78      3.0053133      33.054106      25.996016      325.12032    
-807582.33      3.4679902      42.927309      25.98691       313.91163    
-807565.57      3.6217991      39.887411      25.993222      304.24596    
-807632.62      3.4063078      36.664195      25.956054      295.83556    
-807650.29      2.9970616      33.419594      25.915393      288.44659    
-807660.35      2.8535462      36.586298      25.952125      281.866      
-807644.28      4.6234568      46.717994      25.989632      275.95888    
-807677.8       2.7363592      38.115103      25.925444      270.65717    
-807639.33      3.9941599      40.714814      25.884892      265.86157    
-807613.49      3.3214838      39.839213      25.919535      261.47412    
-807559.63      4.1739917      46.794192      25.998786      257.4249     
-807603.17      4.6030373      50.181677      25.873021      253.73312    
-807611.81      5.1290589      39.779072      25.894377      250.31046    
-807638.33      3.4855055      35.97559       25.945306      247.11631    
-807642.49      4.4628889      44.848179      25.922665      244.14435    
-807679.77      3.6296163      38.198445      25.908011      241.36779    
-807662.3       3.7074887      34.981994      25.842719      238.77842    
-807633.89      4.2281022      33.453202      25.9573        236.3132     
-807607.14      3.4060012      34.264736      25.953837      233.98745    
-807600.81      4.2368906      42.64916       25.916912      231.79519    
-807594.6       3.6385118      38.387561      25.898405      229.71987    
-807603.35      3.7183972      34.98365       25.932792      227.73968    
-807641.32      2.8689802      31.562084      25.983953      225.84288    
-807668.83      3.6691892      34.600651      25.971321      224.03497    
-807674.71      2.9448072      34.789645      25.929824      222.31404    
-807638.62      5.0754779      42.314277      25.989131      220.65428    
-807645.58      3.2380218      34.179714      25.97707       219.0638     
-807617.51      3.9383638      37.308757      25.966074      217.53706    
-807597.46      3.9460332      45.864534      25.896213      216.07935    
-807562.05      3.7133467      44.686596      25.912653      214.67117    
-807620.12      3.4964194      38.192247      25.990844      213.29902    
-807645.16      4.0596875      38.069466      25.934751      211.98163    
-807668.56      3.5090841      36.885773      25.918746      210.70906    
-807638.86      5.119955       47.547742      26.025524      209.4599     
-807663.43      3.0142222      36.927748      25.965721      208.25708    
-807644.71      3.800781       36.992765      25.971783      207.08818    
-807619.81      3.3993993      38.57089       26.017953      205.94552    
-807563.62      3.9533037      43.808851      26.111972      204.82107    
-807594.37      3.6702994      44.189507      26.089762      203.72921    
-807622.84      3.5625111      35.905632      25.997653      202.67709    
-807648.46      3.2933351      34.14204       26.04023       201.64523    
-807641.27      4.5085171      40.514148      26.095273      200.63098    
-807667.28      3.1208038      35.703654      26.05685       199.64478    
-807665.61      3.1107164      34.981373      25.979408      198.68973    
-807638.39      4.329719       33.503631      26.062835      197.74528    
-807598.02      3.4042792      37.619338      26.152703      196.81025    
-807592.85      3.4825679      39.531162      26.119089      195.89804    
-807601.98      3.9284082      43.008723      26.057115      195.01057    
-807611.84      3.9894583      35.564606      26.078524      194.13758    
-807632.71      3.6007992      35.36649       26.120037      193.27626    
-807658.84      3.5130252      36.842414      26.12415       192.42995    
-807671.62      2.8602229      37.728319      26.005133      191.6105     
-807644.1       4.5078966      39.772114      26.044849      190.80065    
-807630.63      3.0616494      35.474397      26.032144      190.00516    
-807612.94      4.0980219      36.586686      26.151848      189.21057    
-807603.72      4.0435168      45.385777      26.00534       188.44221    
-807577.66      4.3396372      41.666085      26.047066      187.68122    
-807610.35      3.192619       37.648614      26.074682      186.92862    
-807641.9       4.3321854      38.0406        26.044318      186.18932    
-807669.25      2.8277058      37.981343      26.007178      185.46334    
-807647.27      4.8358705      42.615791      26.057072      184.74246    
-807648.54      4.6892431      37.68217       26.070903      184.02964    
-807641.85      3.6736594      35.67917       26.080377      183.3249     
-807623.75      4.4059278      38.285582      26.090309      182.62791    
-807578.47      3.5142566      40.759092      26.129265      181.93599    
-807587.13      3.9088733      40.584241      26.132503      181.25183    
-807625.44      3.5943465      34.84243       26.057969      180.58133    
-807654.29      3.1675134      33.089737      26.091136      179.91549    
-807647.8       4.7441745      37.313563      26.043655      179.26038    
-807653.05      4.4037029      37.608526      25.933163      178.62043    
-807663.89      3.2311883      34.760756      25.976749      177.98339    
-807641.89      3.972441       33.86938       26.067988      177.34565    
-807603.4       3.0205763      37.095028      26.048464      176.71538    
-807582.96      3.7264195      40.240172      26.113334      176.08625    
-807606.29      3.8028281      42.003482      26.091683      175.46438    
-807622.99      3.9294712      35.719282      26.052474      174.85074    
-807635.58      3.5592779      35.775316      26.109387      174.23839    
-807647.76      5.9254887      40.147209      26.076752      173.63342    
-807669.21      2.902771       37.299585      25.914281      173.04432    
-807649.76      5.1043686      37.601295      25.924049      172.45903    
-807627.14      3.3062202      35.811611      25.956279      171.87596    
-807602.81      4.0518773      38.097776      25.973677      171.29601    
-807604.56      4.7619496      43.580123      25.94445       170.72209    
-807593.78      3.9588765      39.067931      25.978663      170.14996    
-807612.7       3.4811785      36.250723      25.986725      169.58124    
-807637.27      3.6656883      36.959822      25.946486      169.01878    
-807665.96      2.9744619      36.692316      25.897266      168.46295    
-807655.59      4.1173625      38.557065      25.928251      167.90867    
-807641.67      4.48432        37.854199      25.940375      167.35704    
-807632.14      4.2187933      36.228457      25.978272      166.80648    
-807620.25      3.711563       38.319523      25.924307      166.2623     
-807590.14      3.6748371      40.322563      25.932628      165.72071    
-807585.01      3.4960759      40.273602      25.934816      165.182      
-807621.74      3.3482571      34.966505      25.907425      164.64775    
-807650.97      3.2094069      34.413437      25.877421      164.11795    
-807655.89      3.4025794      35.995183      25.854483      163.59209    
-807644.89      4.1176741      38.654801      25.937748      163.0643     
-807653.91      3.5757469      34.403477      25.903774      162.54093    
-807636.72      3.7934454      35.688534      25.898166      162.02036    
-807608.96      3.6444468      37.522763      25.903877      161.50191    
-807577.65      3.3190521      41.03996       25.96405       160.98273    
-807604.62      3.323322       39.540925      25.932923      160.4675     
-807626.8       3.8726183      35.17269       25.925871      159.9549     
-807644.87      3.1400206      34.356971      25.90999       159.4453     
-807641.14      4.7837249      40.36069       25.946345      158.93604    
-807661.82      3.0684612      35.950193      25.929378      158.42972    
-807648.76      4.2578523      37.087302      25.930796      157.92538    
-807629.81      3.4046917      35.175183      25.977075      157.42084    
-807594.92      3.5622396      39.465595      25.986994      156.91782    
-807600.72      3.545244       40.942184      25.941752      156.41886    
-807604.72      3.7222197      38.804712      25.89825       155.92376    
-807620.9       2.7630003      35.187666      25.920741      155.42941    
-807632.9       4.1634805      36.384469      25.932308      154.93629    
-807659.22      2.6727862      34.993031      25.942236      154.44445    
-807657.36      3.9195867      35.5584        25.862231      153.95784    
-807642.34      4.1788928      34.77089       25.890472      153.47156    
-807622.9       3.403286       35.200345      25.936292      152.98486    
-807615.7       4.5978444      36.207354      25.87976       152.50215    
-807599.3       4.404391       39.98074       25.882609      152.0208     
-807596.14      4.7405909      38.282938      25.839403      151.54272    
-807617.88      3.9495073      35.555646      25.895384      151.06369    
-807649         3.033125       33.503381      25.836876      150.58846    
-807657.09      3.1492738      35.505522      25.736175      150.1187     
-807644.89      4.6742308      37.365297      25.862772      149.64499    
-807642.46      3.9102588      34.717025      25.899693      149.17108    
-807633.81      3.2753201      34.018164      25.905288      148.69824    
-807613.93      3.7113374      36.794336      25.897786      148.22695    
-807586.76      3.322255       38.438454      25.866702      147.75809    
-807603.27      3.7833757      37.607801      25.958246      147.2869     
-807629.94      3.9650427      34.304998      25.91349       146.81862    
-807649.89      2.9630728      33.909692      25.828214      146.35471    
-807644.1       5.4137233      38.267245      25.9405        145.8877     
-807650.26      2.7700147      36.244116      25.912853      145.42283    
-807647.7       3.2631288      34.968835      25.925009      144.95861    
-807630.85      3.0097671      34.456432      25.880179      144.49708    
-807598.79      3.7221457      37.393208      25.85668       144.03742    
-807595.89      4.4516291      39.668311      26.016773      143.57308    
-807610.37      4.0353724      36.960217      25.896576      143.11402    
-807632.06      3.1063755      33.81217       25.952588      142.65399    
-807637.72      4.5525337      36.417738      4.7676496      146.15217    
-807651.39      3.5637459      36.106676      19.331678      145.95894    
-807654.64      3.4819228      35.727168      15.076711      146.09257    
-807644.62      3.201233       34.65253       16.711005      146.07011    
-807618.34      3.8159683      35.677105      25.978647      145.56506    
-807607.09      4.5628427      37.166874      25.944133      145.06268    
-807603.25      3.7182831      39.579239      25.880693      144.56385    
-807609.86      4.1405872      37.267065      24.792255      144.10317    
-807623.1       3.0221619      35.316811      17.964442      143.97199    
-807643.91      3.0735235      35.176919      13.205941      144.26172    
-807658.06      3.1736206      35.130492      17.776789      144.12848    
-807647.81      4.2622737      36.184815      19.6188        143.87975    
-807636.59      3.549888       34.753404      25.912032      143.37186    
-807625.26      2.9973927      34.146753      13.239431      143.62229    
-807613.81      4.0524948      37.98132       20.749093      143.3055     
-807596.14      3.9636817      39.228226      25.892834      142.79408    
-807606.69      3.088578       37.097237      25.884516      142.2844     
-807629.88      3.654138       35.422409      25.899007      141.77577    
-807652.44      3.1087606      34.322986      25.850667      141.27001    
-807646.67      3.8381175      37.432673      25.93255       140.76327    
-807646.41      3.3805482      35.630313      25.94875       140.25748    
-807640.61      3.5065069      35.164571      25.920204      139.75391    
-807628         2.9791964      35.006853      25.862808      139.25331    
-807603.48      3.7270039      36.927975      25.905605      138.75283    
-807595         3.8154502      39.272443      25.928845      138.25301    
-807612.48      2.9403283      36.907284      25.905497      137.75513    
-807636.13      3.811952       36.053386      25.867835      137.25954    
-807642.16      3.3004112      36.406539      25.926915      136.76358    
-807644.94      4.0236883      38.094848      25.926704      136.26886    
-807650.23      3.6240554      36.372807      25.945158      135.77486    
-807639.92      3.211291       35.850992      25.932085      135.2824     
-807617.86      3.8553491      36.608555      25.965568      134.79025    
-807597.94      3.7352652      38.391265      25.934387      134.30007    
-807602.66      3.4764886      38.647747      25.927854      133.8112     
-807616.63      3.1721099      36.316075      25.860556      133.32514    
-807628.25      3.445579       35.648678      25.908525      132.83895    
-807639.98      4.7023517      36.795754      25.93155       132.35326    
-807650.59      2.9938575      36.082596      25.908839      131.86919    
-807648.05      4.1628148      36.028352      25.890802      131.38661    
-807631.28      3.2503302      35.633449      25.903941      130.90471    
-807615.94      3.7720115      35.711994      25.927479      130.42326    
-807607.43      3.344797       38.431309      25.909763      129.94322    
-807604.06      3.1301929      37.796577      25.887305      129.46469    
-807612.87      3.3923501      37.074663      25.900028      128.98682    
-807629.1       3.6072281      35.472588      25.893667      128.51003    
-807645.81      3.5579049      35.710814      25.845618      128.03528    
-807647.68      3.5915241      36.760786      25.838408      127.56159    
-807639.67      4.3163781      36.735527      25.895953      127.08747    
-807629.45      3.4956598      36.158818      25.962579      126.61272    
-807620.78      3.7459387      36.297392      25.940251      126.13937    
-807606.33      3.9432244      38.328278      25.939405      125.66692    
-807601.7       4.3092654      38.62927       25.916816      125.19582    
-807614.3       3.2564694      36.376199      25.952743      124.72478    
-807637.06      4.0652269      34.706576      25.890615      124.25592    
-807643.57      3.7411237      36.653816      25.907686      123.7875     
-807643         4.5832629      36.648458      25.930982      123.31939    
-807640.22      3.9016193      36.005847      25.918514      122.85233    
-807635.05      2.9313903      34.666838      25.918641      122.38606    
-807617.38      3.6298255      36.332339      25.932813      121.92026    
-807602.48      3.1336954      38.239409      25.950392      121.45486    
-807602.71      3.2009591      37.618242      25.956427      120.9901     
-807621.94      3.196123       35.811575      25.927737      120.52667    
-807634.55      3.4668512      35.900208      25.871878      120.06509    
-807641.72      4.0158663      36.12627       25.857404      119.6045     
-807646.59      4.4573213      35.482724      25.882527      119.1441     
-807645.03      2.9955912      34.984683      25.841271      118.6852     
-807633.06      3.8337642      34.725419      25.851335      118.22676    
-807614.47      2.9942547      35.81815       25.861247      117.76879    
-807604.32      3.2339302      37.641672      25.899752      117.31073    
-807610.52      3.3520462      38.085606      25.868204      116.85393    
-807621.68      3.7470894      35.879442      25.867845      116.39777    
-807633.38      3.1408504      35.357889      25.883501      115.94194    
-807643.46      3.303083       36.188599      25.886748      115.48667    
-807649.82      3.3819028      36.165741      25.860332      115.03251    
-807641.46      2.8279801      35.628981      25.930559      114.57767    
-807628.21      3.0454076      35.426757      25.922404      114.12358    
-807612.28      3.8341068      37.482458      25.934232      113.66989    
-807610.04      3.4037498      37.017235      25.912773      113.21717    
-807610.5       3.2096481      37.243846      25.881578      112.76559    
-807621.3       2.983073       35.084782      25.976422      112.31292    
-807636.95      2.9378284      34.944313      25.922827      111.86176    
-807647.94      3.4501506      34.862189      25.931531      111.41102    
-807646.19      3.1063808      35.01601       25.857768      110.9621     
-807635.68      4.188159       35.965703      25.875895      110.5134     
-807629.1       3.8787239      35.218266      25.960037      110.06381    
-807616.06      3.2422099      36.653827      25.941021      109.61509    
-807605.06      3.1785065      37.255282      25.911221      109.1674     
-807607.94      3.9055031      37.476385      25.823663      108.72166    
-807625.73      3.5472068      35.805514      25.901054      108.27515    
-807638.41      3.0647364      36.170902      25.869948      107.82965    
-807642.78      4.2278626      37.269067      25.825801      107.38534    
-807641.14      3.5790349      37.025721      25.756399      106.94262    
-807637.08      3.8273664      36.901466      25.902882      106.49803    
-807625.43      3.5341617      36.394653      25.91957       106.05365    
-807610.6       3.6477137      38.187565      25.85994       105.61068    
-807601.9       3.7993483      38.403297      25.874043      105.16795    
-807612.86      4.1395012      37.821401      25.843986      104.72613    
-807628.84      4.261352       35.520605      25.896328      104.28397    
-807636.78      3.4389405      36.133548      25.91418       103.84198    
-807641.98      4.2695566      36.654371      25.897372      103.40069    
-807643.26      3.2317917      36.186553      25.827432      102.96089    
-807637.81      4.3057145      36.302044      25.857446      102.52105    
-807622.01      3.700892       36.940841      25.890952      102.08115    
-807610.38      4.6421646      37.594755      25.884736      101.64176    
-807606.52      3.3220454      38.753078      25.947702      101.20188    
-807614.39      4.0979949      38.149605      25.827054      100.76415    
-807624.32      3.4047982      37.008288      25.857408      100.32638    
-807635.11      4.0766956      37.551385      25.863653      99.888914    
-807643.32      3.3743156      36.379187      25.901818      99.451314    
-807643.13      3.3630052      36.154107      25.922024      99.013833    
-807634.34      3.2624749      35.424524      25.882729      98.577284    
-807620.95      3.4835883      36.311443      25.9041        98.140829    
-807611.59      3.9500465      36.908016      25.863252      97.705306    
-807610.74      3.2124196      36.837104      25.844933      97.270399    
-807614.95      3.6670888      36.132119      25.89385       96.835206    
-807625.64      3.2555188      35.923617      25.937384      96.399811    
-807640.34      3.8192413      36.259662      25.919584      95.96502     
-807643.54      3.6434146      36.469857      25.923658      95.530543    
-807640.51      3.9187307      36.37685       25.926192      95.096395    
-807630.49      3.922094       36.830363      25.917928      94.662711    
-807621.83      3.8289196      36.934316      25.920114      94.229353    
-807609.41      4.4932075      38.605048      25.904916      93.796534    
-807608.11      3.9945252      38.475731      25.877648      93.364396    
-807616.57      3.0937622      37.619182      25.930061      92.931947    
-807631.09      3.3796837      36.86071       25.909945      92.500084    
-807639.89      3.5152745      35.984356      25.906814      92.068591    
-807642.6       4.2670797      36.215313      25.886524      91.63767     
-807640.62      3.3806532      35.701372      25.847639      91.207535    
-807629.98      3.0701635      36.672862      25.834193      90.777869    
-807620.38      2.8905196      36.34554       25.763059      90.349347    
-807608.3       2.8898907      37.382713      25.82875       89.920342    
-807610.4       3.1831649      37.116448      25.885569      89.490977    
-807620.79      2.9707053      36.754231      25.920049      89.061523    
-807633.6       2.997596       35.483507      25.903088      88.632569    
-807639.34      3.9765235      36.729752      25.881147      88.204162    
-807643.11      2.6616292      36.047226      25.853776      87.776355    
-807639.62      4.3289192      36.02257       25.877976      87.348566    
-807630.65      2.9956654      35.618208      25.818611      86.921718    
-807617.76      3.2685375      36.703308      25.855429      86.49474     
-807608.95      3.276826       38.266372      25.885007      86.067721    
-807612.18      3.136831       37.302975      25.908037      85.640733    
-807621.44      3.4129773      36.62162       25.920297      85.213897    
-807633.01      3.7513911      35.808156      25.929465      84.787245    
-807639.67      3.5079223      36.695572      25.926882      84.360898    
-807643.66      3.3957536      36.804677      25.931029      83.934785    
-807637.61      3.0485005      36.287074      25.910527      83.509155    
-807628.79      3.4684177      36.02741       25.881419      83.084088    
-807615.97      3.3052339      36.796481      25.90859       82.659007    
-807610.76      3.9285306      38.81765       25.923282      82.234041    
-807612.57      3.5478268      37.859697      25.925423      81.809314    
-807620.65      4.2411322      37.853093      25.920049      81.3849      
-807634.36      4.3264936      36.174352      25.93          80.960644    
-807640.92      3.6651207      36.923672      25.888649      80.537043    
-807640.08      3.1012175      37.739963      25.858343      80.11398     
-807634.21      3.3888148      37.298441      25.910696      79.690656    
-807625.62      3.2921261      36.733036      25.903285      79.267646    
-807615.68      3.7894963      37.81936       25.868621      78.845202    
-807608.11      3.9034598      38.097505      25.84386       78.423222    
-807612.12      3.6957024      37.736998      25.883478      78.001103    
-807623.04      2.8790337      36.971697      25.922991      77.578853    
-807634.7       2.850071       36.311295      25.860295      77.157407    
-807640.68      2.9052339      36.857884      25.8615        76.736172    
-807637.8       3.7644186      37.300541      25.909144      76.314734    
-807636.28      3.6199349      35.914119      25.935717      75.893287    
-807625.21      4.9356823      37.356992      25.915376      75.472245    
-807613.01      3.6059578      38.103279      25.950589      75.051122    
-807607.59      4.1376313      37.444971      25.95297       74.630203    
-807613.37      3.1069468      37.51107       25.86385       74.210269    
-807624.83      3.0888392      36.985801      25.871271      73.79048     
-807635.21      3.8383797      36.211363      25.864854      73.370953    
-807637.61      3.0676141      37.022431      25.90681       72.951282    
-807639.94      3.0377166      37.068851      25.919631      72.531715    
-807637         3.8235925      36.367953      25.932302      72.112253    
-807621.83      3.6143623      37.086252      25.921532      71.693087    
-807610.72      3.2205755      37.976624      25.954019      71.273867    
-807609.99      3.4777064      38.785635      25.968267      70.854742    
-807617.29      4.081537       37.021082      25.940152      70.436046    
-807625.6       5.4056845      36.911807      25.902025      70.01785     
-807635.7       3.3206146      35.813748      25.935726      69.599588    
-807642.81      3.7552004      35.844436      25.911029      69.181714    
-807640.75      3.0953797      35.113897      25.888401      68.764205    
-807632.25      3.6354877      35.292283      25.869757      68.347026    
-807620.78      2.983713       35.962213      25.887231      67.929899    
-807615.49      3.5895288      36.728226      25.882336      67.512993    
-807611.2       4.0688974      37.774377      25.957646      67.095717    
-807616.96      3.822819       36.895299      25.941294      66.678751    
-807629.95      3.2806332      35.673044      25.922137      66.26211     
-807637.24      3.8329391      37.009435      25.910232      65.845735    
-807642.27      3.7748809      36.3002        25.926756      65.429424    
-807639.45      2.8819216      35.638391      25.913542      65.013385    
-807629.44      3.3955799      35.939016      25.890727      64.597682    
-807623.52      2.7318313      34.895305      25.865387      64.182325    
-807614.33      3.1757456      35.84599       25.860701      63.767169    
-807611.32      3.3153873      36.571541      25.855499      63.352213    
-807619.18      3.1464514      35.777186      25.855957      62.937417    
-807632.23      3.3415108      35.061027      25.868121      62.522703    
-807639.35      3.1484183      35.47933       25.854635      62.10824     
-807640.69      3.8074618      35.524336      25.902873      61.693621    
-807639.39      3.8606791      35.000761      25.878453      61.279323    
-807631.27      3.2322758      35.35879       25.906055      60.865008    
-807618.95      3.5981255      36.453497      25.924301      60.45074     
-807610.55      3.1400803      37.18788       25.886599      60.036869    
-807612.39      3.0875431      36.911934      25.903177      59.623052    
-807621.88      3.3889162      36.235706      25.88607       59.209497    
-807632.87      3.4800087      34.936456      25.913486      58.795928    
-807637.03      3.7082612      36.621209      25.942939      58.382338    
-807642.81      3.4927739      35.390173      25.900797      57.969157    
-807636.49      3.7396363      36.165427      25.866808      57.556328    
-807629.71      4.8372883      35.233727      25.897892      57.143463    
-807617.86      4.4912911      36.761681      25.825788      56.731166    
-807611.24      3.3250777      37.483673      25.849249      56.318872    
-807613.78      3.2967626      37.725715      25.847415      55.906729    
-807623.56      3.2343387      36.196039      25.866826      55.494616    
-807631.99      3.5331821      35.331328      25.901945      55.082448    
-807637.57      3.4089413      36.165756      25.863327      54.670635    
-807640.82      3.1298649      35.827955      25.790313      54.259361    
-807634.27      3.1959694      36.031765      25.845969      53.847913    
-807627.13      3.5598914      36.266057      25.887329      53.436376    
-807616.48      2.9534693      36.896827      25.922104      53.024792    
-807613.06      3.3655236      37.61811       25.898009      52.613473    
-807613.92      3.5963254      37.966994      25.881274      52.202378    
-807622.66      3.7899249      37.810399      25.868583      51.79148     
-807631.47      3.0921904      37.07968       25.894932      51.380579    
-807638.32      4.0993131      36.590738      25.887877      50.969845    
-807637.4       2.922025       36.520183      25.893654      50.559214    
-807633.4       3.9310894      36.255318      25.878725      50.148785    
-807624.29      3.0432425      36.522834      25.871019      49.738522    
-807616.13      3.2973148      36.773113      25.897218      49.328258    
-807610.51      3.4914885      37.342505      25.880329      48.918202    
-807616.13      3.5187047      36.697632      25.872103      48.508309    
-807624.54      3.2234806      36.474465      25.870308      48.098547    
-807632.84      3.9095498      36.697978      25.875797      47.688881    
-807637.8       3.7789298      35.953373      25.921034      47.279131    
-807637.08      3.4927286      36.276026      25.887474      46.869656    
-807632.28      3.0350059      35.645824      25.92019       46.460156    
-807623.54      3.7782375      36.454158      25.897255      46.05088     
-807612.76      4.0196149      38.180704      25.88075       45.641795    
-807610.25      3.6259915      37.589379      25.857414      45.232929    
-807616.75      3.4117403      37.098984      25.878023      44.824087    
-807624.65      4.2524226      37.295596      25.90756       44.415237    
-807634.09      3.567584       36.949971      25.861958      44.006693    
-807637.26      3.9585968      36.963339      25.912928      43.598052    
-807637.18      3.5880374      36.334754      25.857801      43.18975     
-807631.75      3.6597326      36.076993      25.848516      42.781595    
-807622.48      3.4444108      37.100535      25.845857      42.373558    
-807614.49      3.9510751      37.076227      25.865107      41.965552    
-807610.2       3.2439995      37.428789      25.870934      41.557632    
-807617.55      3.4364819      36.723243      25.855298      41.149879    
-807626.63      4.1425874      36.386976      25.854841      40.742232    
-807634.4       3.2077862      35.686283      25.923597      40.334434    
-807638.08      3.8346456      36.597325      25.910424      39.926794    
-807638.13      3.3510646      35.432041      25.884142      39.519358    
-807632.59      3.9684244      35.323381      25.86122       39.112108    
-807623.44      3.1501799      34.889994      25.923799      38.704739    
-807613.79      5.1935253      37.150973      25.909088      38.297528    
-807614.42      3.0747167      36.490698      25.845567      37.890641    
-807619.8       3.6076098      36.094996      25.832847      37.483896    
-807628.18      2.6390986      34.906382      25.886795      37.077065    
-807634.99      3.6040734      34.874234      25.888555      36.670329    
-807638.6       2.7360484      34.771279      25.855681      36.2638      
-807637.41      3.1796728      34.741672      25.85344       35.857375    
-807631.81      3.0772433      34.722867      25.910499      35.450863    
-807622.06      3.4269316      35.183375      25.878551      35.044551    
-807615.4       2.8852997      35.23153       25.822821      34.638509    
-807616.11      3.3554212      35.978949      25.861472      34.232438    
-807620.77      3.3484645      35.358177      25.892876      33.826367    
-807630.02      3.1108718      35.189686      25.898267      33.420374    
-807636.62      4.0199864      35.809079      25.855336      33.014602    
-807640         3.0733531      35.301322      25.801708      32.609076    
-807634.3       4.028024       36.080211      25.82175       32.203579    
-807630.37      3.5546163      35.507872      25.894497      31.797964    
-807620.12      3.8986274      36.468328      25.793184      31.392721    
-807615.88      3.0313847      36.74593       25.784819      30.987584    
-807613.93      3.4148252      36.88733       25.85782       30.582333    
-807622.66      3.2752397      36.46373       25.877901      30.177116    
-807630.17      3.7310323      36.174175      25.850654      29.772057    
-807638.35      4.1376949      35.533969      25.844163      29.367101    
-807637.68      3.8297708      35.96686       25.869448      28.962166    
-807635         3.4344094      35.916844      25.847214      28.557371    
-807628.29      4.0794899      36.341575      25.862841      28.152621    
-807619.51      3.2926924      36.399039      25.848824      27.747989    
-807609.94      3.3694382      37.515085      25.880034      27.343365    
-807613.17      3.4246834      37.307124      25.85379       26.938887    
-807623.33      3.7447078      35.483578      25.883978      26.534421    
-807629.19      3.8159781      35.99708       25.905155      26.129992    
-807634.71      4.1492363      36.16469       25.896482      25.725666    
-807635.33      3.4711283      37.2574        25.884816      25.321448    
-807635.12      3.4671544      35.838882      25.896735      24.917287    
-807625.54      3.4720843      36.877352      25.884764      24.513232    
-807619.11      3.3411609      36.44105       25.912614      24.109202    
-807611.86      3.6522139      37.277773      25.907611      23.705264    
-807616.32      3.6899295      36.573278      25.914251      23.301394    
-807619.66      3.5218167      36.71239       25.911643      22.89761     
-807633.6       3.1510924      34.744192      25.918458      22.493893    
-807633.94      3.4688076      36.66085       25.888312      22.090313    
-807634.57      3.682781       36.540047      25.862565      21.686857    
-807631.5       4.3411058      36.606931      25.857446      21.283485    
-807627.25      3.9587548      35.007815      25.893991      20.880124    
-807617.63      2.7885918      35.758457      25.883609      20.476857    
-807611.77      2.9165497      37.612956      25.903416      20.073633    
-807616.15      3.1481396      36.205643      25.911728      19.670471    
-807625.56      3.0667048      35.682486      25.836944      19.267504    
-807631.49      3.3969951      34.911642      25.821396      18.864632    
-807634.98      3.1674765      35.815134      25.795573      18.461867    
-807634.27      4.2672004      36.04977       25.824199      18.059127    
-807633.04      3.1217776      35.649934      25.849767      17.656417    
-807622.59      3.3814546      36.650758      25.767473      17.253893    
-807617.57      3.7647074      36.671625      25.831789      16.851344    
-807613.8       3.1939818      37.307304      25.833173      16.44886     
-807619.16      3.4849327      35.921216      25.822965      16.046456    
-807624.02      3.155235       36.423454      25.887582      15.644036    
-807633.23      3.2356545      34.922453      25.900197      15.241671    
-807636.15      2.8567336      35.153873      25.898895      14.839377    
-807636.37      3.6071512      35.945403      25.857852      14.437201    
-807632.14      2.9917931      35.01972       25.894019      14.03505     
-807623.11      3.1015556      35.79559       25.912923      13.632947    
-807617.82      2.9307852      36.488161      25.875128      13.230954    
-807616.32      3.0792473      36.098184      25.894712      12.829007    
-807618.77      3.2476783      36.292624      25.995357      12.427028    
-807623.22      3.0111554      35.229143      26.04995       12.025071    
-807633.98      2.8936845      35.121591      25.995716      11.623241    
-807634.79      3.4610206      35.6765        25.992134      11.221486    
-807635.45      2.8217147      35.835228      26.091814      10.81972     
-807629.87      3.3552677      35.265629      25.999884      10.418105    
-807625.59      2.779789       35.213154      25.961011      10.016593    
-807617.77      3.0089149      35.888747      26.040261      9.6150901    
-807618.69      3.5807872      36.024941      26.060348      9.2136463    
-807617.1       3.2995095      37.003826      26.021885      8.8123027    
-807628.91      3.2145685      35.198684      26.040238      8.4110184    
-807633.25      4.1629103      35.904888      26.011853      8.0098235    
-807636.57      3.609238       35.662792      26.037283      7.6086835    
-807632.84      3.9507877      36.28796       26.039901      7.2076129    
-807630.24      2.9067845      35.834132      25.984389      6.8066417    
-807622.69      4.2052747      36.690899      26.025475      6.4057171    
-807617.3       3.4438193      36.944905      26.033699      6.0048575    
-807616.93      3.6800803      37.355533      25.997717      5.6040821    
-807622.18      3.2647101      36.489441      25.962518      5.2033869    
-807631.03      3.1026813      35.540959      25.963892      4.8027548    
-807633.48      3.1182835      36.0442        25.995626      4.4021754    
-807636.82      4.1777746      35.131526      25.977044      4.0016666    
-807632.24      2.9632054      35.772728      26.000739      3.6012147    
-807629.2       4.0113338      35.457656      26.054434      3.2008143    
-807620.92      3.7329193      36.717687      26.047708      2.8004826    
-807617.2       4.601398       37.389476      26.071243      2.4002132    
-807617.19      3.4125103      36.971843      26.088614      2.0000087    
-807623.81      4.0678723      37.205027      26.103882      1.5998706    
-807629.16      3.321836       35.663534      26.056013      1.1998053    
-807633.58      3.1824128      36.281341      26.016282      0.79980768   
-807634.33      4.005908       35.718236      26.05432       0.3998716    
-807632.06      3.6230012      36.933708      26.051035      0            
Loop time of 199.922 on 32 procs for 5000 steps with 1080 atoms

Performance: 4.322 ns/day, 5.553 hours/ns, 25.010 timesteps/s, 27.011 katom-step/s
69.4% CPU use with 32 MPI tasks x 1 OpenMP threads

MPI task timing breakdown:
Section |  min time  |  avg time  |  max time  |%varavg| %total
---------------------------------------------------------------
Pair    | 100.64     | 143.91     | 192.85     | 314.1 | 71.98
Neigh   | 0          | 0          | 0          |   0.0 |  0.00
Comm    | 4.4259     | 53.379     | 96.645     | 515.9 | 26.70
Output  | 0.037032   | 0.038368   | 0.039828   |   0.2 |  0.02
Modify  | 2.2264     | 2.2598     | 2.2809     |   1.2 |  1.13
Other   |            | 0.3341     |            |       |  0.17

Nlocal:          33.75 ave          48 max          21 min
Histogram: 8 8 0 0 0 0 0 8 0 8
Nghost:        1106.25 ave        1119 max        1092 min
Histogram: 8 0 8 0 0 0 0 0 8 8
Neighs:              0 ave           0 max           0 min
Histogram: 32 0 0 0 0 0 0 0 0 0
FullNghs:       5494.5 ave        7896 max        3378 min
Histogram: 8 8 0 0 0 0 0 8 0 8

Total # of neighbors = 175824
Ave neighs/atom = 162.8
Neighbor list builds = 0
Dangerous builds = 0

reset_timestep 0


variable interval equal 1000
thermo 10

variable nintervals equal $(v_PERIOD/v_interval)
variable nintervals equal 100
variable efield equal 1e-2*36.36*cos((step/${PERIOD})*2*3.14)
variable efield equal 1e-2*36.36*cos((step/100000)*2*3.14)
fix born all addbornforce 0.0 0.0 v_efield

variable Px equal f_born[1]+c_polarization[1]
variable Py equal f_born[2]+c_polarization[2]
variable Pz equal (f_born[3]+c_polarization[3])/vol
variable pe equal pe

fix aveP all ave/time 1 $(v_interval/2) ${interval} v_efield v_Pz v_pe f_born file Pz.${MODEL}.${STRUCTURE}.${TEMP}.$L.${ITER}
fix aveP all ave/time 1 500 ${interval} v_efield v_Pz v_pe f_born file Pz.${MODEL}.${STRUCTURE}.${TEMP}.$L.${ITER}
fix aveP all ave/time 1 500 1000 v_efield v_Pz v_pe f_born file Pz.${MODEL}.${STRUCTURE}.${TEMP}.$L.${ITER}
fix aveP all ave/time 1 500 1000 v_efield v_Pz v_pe f_born file Pz.BaTiO3-E0.${STRUCTURE}.${TEMP}.$L.${ITER}
fix aveP all ave/time 1 500 1000 v_efield v_Pz v_pe f_born file Pz.BaTiO3-E0.BaTiO3-sc333.${TEMP}.$L.${ITER}
fix aveP all ave/time 1 500 1000 v_efield v_Pz v_pe f_born file Pz.BaTiO3-E0.BaTiO3-sc333.340.$L.${ITER}
fix aveP all ave/time 1 500 1000 v_efield v_Pz v_pe f_born file Pz.BaTiO3-E0.BaTiO3-sc333.340.2.${ITER}
fix aveP all ave/time 1 500 1000 v_efield v_Pz v_pe f_born file Pz.BaTiO3-E0.BaTiO3-sc333.340.2.7

thermo_style custom step time temp press pe f_born v_efield v_Pz spcpu cpuremain

# dump 4a all custom 1000 dump.hyst.${MODEL}.${STRUCTURE}.${TEMP}.$L.${ITER}.bin id type xu yu zu fx fy fz
# dump_modify 4a sort id

fix nvt all nvt temp ${TEMP} ${TEMP} $(100*dt)
fix nvt all nvt temp 340 ${TEMP} $(100*dt)
fix nvt all nvt temp 340 340 $(100*dt)
fix nvt all nvt temp 340 340 0.2000000000000000111

run $(v_PERIOD)
run 100000
WARNING: non-constant efield is experimental, strongly distrust scalar/vector output (src/fix_addbornforce.cpp:193)
Per MPI rank memory allocation (min/avg/max) = 3.516 | 3.516 | 3.516 Mbytes
   Step          Time           Temp          Press          PotEng         f_born        v_efield         v_Pz          S/CPU         CPULeft    
         0   0              325.53943      129323.63     -807632.07     -295.52263      0.3636         0.055579468    0              0            
        10   0.02           345.60369      135642.75     -807626.76     -303.58247      0.36359993     0.057095308    29.810189      3354.2418    
        20   0.04           348.11654      138357.75     -807621.9      -308.94642      0.36359971     0.058104149    29.790484      3355.0033    
        30   0.06           336.69754      143085.13     -807615.99     -313.16689      0.36359935     0.058897961    29.744194      3356.7775    
        40   0.08           344.17184      140336.78     -807619.98     -310.30135      0.36359885     0.058359112    29.746493      3357.4302    
        50   0.1            338.56178      137711.76     -807622.41     -307.08372      0.36359821     0.057754068    29.711413      3358.4809    
        60   0.12           338.25985      131630.69     -807628.81     -300.65662      0.36359742     0.056545428    29.704602      3359.1977    
        70   0.14           334.30182      129303.7      -807633.56     -295.33068      0.36359649     0.055543905    29.736497      3359.098     
        80   0.16           324.72541      127890.83     -807634.29     -293.28507      0.36359541     0.055159342    29.769066      3358.4797    
        90   0.18           339.69031      131377.03     -807632.63     -297.06948      0.36359419     0.055871279    29.792871      3357.6262    
       100   0.2            343.04523      135853.95     -807626.21     -303.97492      0.36359283     0.057170233    29.758629      3357.262     
       110   0.22           338.00552      140306.53     -807620.23     -309.31181      0.36359132     0.058174211    29.791055      3356.5713    
       120   0.24           329.87439      142180.38     -807617        -311.36985      0.36358968     0.058561547    29.766523      3356.1696    
       130   0.26           358.07504      140256.17     -807622.28     -309.99539      0.36358788     0.058303329    29.691876      3356.4268    
       140   0.28           328.44645      137782.68     -807622.17     -305.986        0.36358595     0.057549558    29.731267      3356.2807    
       150   0.3            343.72476      132843.24     -807630.49     -299.74585      0.36358387     0.056376238    29.772681      3355.798     
       160   0.32           343.51978      128699.93     -807635.27     -294.88956      0.36358165     0.055463205    29.810686      3355.0665    
       170   0.34           330.66845      128822.96     -807634.11     -294.24969      0.36357928     0.055343218    29.77914       3354.5902    
       180   0.36           343.86854      131261.7      -807631.52     -298.68157      0.36357677     0.056177166    29.809128      3353.9422    
       190   0.38           344.4275       136125.52     -807626.31     -303.99469      0.36357412     0.057176894    29.795679      3353.4067    
       200   0.4            346.04178      140571.4      -807621.38     -309.04289      0.36357132     0.058126832    29.758072      3353.1027    
       210   0.42           336.29937      141979.46     -807617.19     -311.86681      0.36356838     0.058658447    29.736373      3352.9122    
       220   0.44           348.53242      140654.13     -807619.71     -310.99892      0.3635653      0.058495704    29.78373       3352.4661    
       230   0.46           341.06398      136492.82     -807624.02     -305.59761      0.36356207     0.057480283    29.865385      3351.6312    
       240   0.48           346.78901      131344.36     -807632.1      -298.14797      0.3635587      0.056079591    29.817856      3351.0599    
       250   0.5            337.61833      129355.42     -807633.49     -295.32562      0.36355519     0.055549263    29.797304      3350.5998    
       260   0.52           340.72679      128365.12     -807634.01     -295.18142      0.36355153     0.055522697    29.834035      3349.9909    
       270   0.54           341.41003      132738.17     -807630        -299.14479      0.36354773     0.056268783    29.858665      3349.2998    
       280   0.56           340.14649      134880.98     -807625.48     -303.47936      0.36354379     0.057084729    29.836714      3348.7221    
       290   0.58           356.02008      140466.52     -807620.91     -310.08919      0.3635397      0.0583287      29.829323      3348.1896    
       300   0.6            339.2505       141721.57     -807617.06     -311.56961      0.36353547     0.058607853    29.857844      3347.5639    
       310   0.62           335.92864      141816.63     -807618.45     -309.5718       0.3635311      0.058232755    29.84399       3347.0071    
       320   0.64           350.85359      135211.6      -807627.31     -302.6698       0.36352658     0.056935145    29.840725      3346.4753    
       330   0.66           340.92911      133019.16     -807628.95     -299.47969      0.36352192     0.056335776    29.795407      3346.1095    
       340   0.68           331.89419      129010.11     -807632.18     -294.95305      0.36351712     0.055484994    29.789629      3345.7645    
       350   0.7            340.67455      129160.69     -807633.24     -294.93904      0.36351217     0.055483113    29.71203       3345.6697    
       360   0.72           349.8019       131460.87     -807631.35     -298.04484      0.36350708     0.056068152    29.645431      3345.7708    
       370   0.74           363.87743      136781.29     -807626.16     -305.17896      0.36350185     0.05741105     29.666333      3345.7842    
       380   0.76           345.86774      141315.26     -807617.83     -310.87142      0.36349647     0.058482795    29.708128      3345.6546    
       390   0.78           356.49935      140358.14     -807620.57     -309.54499      0.36349095     0.058234144    29.702057      3345.5321    
       400   0.8            347.15094      139659.36     -807620.59     -308.13284      0.36348529     0.057969382    29.703666      3345.3944    
       410   0.82           343.49338      135731.03     -807624.06     -304.25153      0.36347948     0.057240101    29.754968      3345.106     
       420   0.84           334.57323      133168.34     -807627.32     -299.65124      0.36347353     0.056375553    29.747098      3344.8363    
       430   0.86           330.40908      129316.96     -807632.04     -294.31594      0.36346744     0.055372713    29.838915      3344.3241    
       440   0.88           342.43317      130446.75     -807632.62     -295.38713      0.3634612      0.0555752      29.804635      3343.9071    
       450   0.9            343.74118      133215.74     -807626.52     -301.74643      0.36345482     0.056772658    29.79266       3343.5236    
       460   0.92           362.1853       138044.2      -807624.31     -306.58314      0.3634483      0.057683706    29.803494      3343.1158    
       470   0.94           345.14212      140386.58     -807619.95     -308.6344       0.36344163     0.058070717    29.775932      3342.7768    
       480   0.96           351.5309       140284.93     -807619.71     -309.76528      0.36343482     0.058284588    29.803264      3342.3741    
       490   0.98           343.2068       138931.79     -807619.76     -308.73284      0.36342786     0.058091437    29.777969      3342.032     
       500   1              346.27119      134652.66     -807625.64     -303.44385      0.36342077     0.057097371    29.77031       3341.7073    
       510   1.02           341.69728      131325.44     -807632.2      -9482.8673      0.36341353     0.055761715    29.687936      3341.5641    
       520   1.04           335.98157      129195.96     -807633.35     -9426.5885      0.36340614     0.055431908    29.665989      3341.461     
       530   1.06           333.43377      131774.84     -807629.31     -9551.1047      0.36339862     0.056165273    29.688564      3341.301     
       540   1.08           337.53382      133571.61     -807627.26     -9645.4642      0.36339095     0.056721352    29.732958      3341.0419    
       550   1.1            339.85859      138593.51     -807623.58     -9778.6548      0.36338313     0.057505832    29.672696      3340.9034    
       560   1.12           343.31124      139607.84     -807621.18     -9880.1614      0.36337518     0.058104039    29.691771      3340.7194    
       570   1.14           330.38305      141981.9      -807616.94     -9965.4094      0.36336707     0.058606679    29.709897      3340.4942    
       580   1.16           343.4028       137169.7      -807623.36     -9827.6779      0.36335883     0.05779799     29.678564      3340.3261    
       590   1.18           353.03554      132961.91     -807630.94     -9630.6575      0.36335044     0.056640592    29.688711      3340.1328    
       600   1.2            338.7904       128904.85     -807634.09     -9476.404       0.36334191     0.055734692    29.737053      3339.844     
       610   1.22           321.27842      129965.17     -807631.68     -9481.6156      0.36333324     0.055766675    29.669271      3339.679     
       620   1.24           336.48592      130148.12     -807633.05     -9513.0473      0.36332442     0.0559529      29.680951      3339.487     
       630   1.26           331.42028      134062.88     -807629.02     -9622.2673      0.36331546     0.056596695    29.623424      3339.3937    
       640   1.28           333.56448      137182.85     -807623.69     -9809.4787      0.36330636     0.057699289    29.69046       3339.1743    
       650   1.3            331.25332      140979.96     -807618.48     -9969.5587      0.36329711     0.058642372    29.610032      3339.0912    
       660   1.32           334.84441      139800.51     -807620.74     -9917.5108      0.36328772     0.058337726    29.615918      3338.9903    
       670   1.34           331.92897      137929.79     -807623.86     -9804.475       0.36327819     0.05767433     29.644878      3338.8334    
       680   1.36           328.68811      132499.46     -807629.09     -9624.162       0.36326851     0.056615156    29.676928      3338.618     
       690   1.38           330.85725      130828.58     -807632.34     -9529.3055      0.36325869     0.056058668    29.692633      3338.3734    
       700   1.4            324.41152      128793.71     -807633.5      -9464.0964      0.36324873     0.055676585    29.714638      3338.0909    
       710   1.42           324.53331      131952.12     -807631.81     -9514.7019      0.36323863     0.055975851    29.641196      3337.9234    
       720   1.44           337.0348       133241.16     -807629.83     -9636.6463      0.36322838     0.05669486     29.774142      3337.5434    
       730   1.46           338.79582      139252.89     -807622.77     -9866.9781      0.36321798     0.058051622    29.726076      3337.2386    
       740   1.48           329.1706       138898.92     -807620.87     -9883.5202      0.36320745     0.058150633    29.688773      3336.9896    
       750   1.5            328.10842      140153.04     -807619.83     -9905.4337      0.36319677     0.058281277    29.657313      3336.7855    
       760   1.52           337.36177      135240.53     -807625.78     -9753.3762      0.36318595     0.057388316    29.68929       3336.5305    
       770   1.54           326.25874      134531.57     -807625.95     -9690.7794      0.36317498     0.057021722    29.717087      3336.2327    
       780   1.56           331.6285       128683.58     -807632.99     -9484.8208      0.36316387     0.055811544    29.707807      3335.9473    
       790   1.58           334.34693      130358.41     -807633.91     -9455.3493      0.36315262     0.055639848    29.734076      3335.6233    
       800   1.6            335.92218      129718.65     -807632.38     -9507.7248      0.36314122     0.055949807    29.633779      3335.4402    
       810   1.62           340.02444      136366.35     -807625.62     -9730.4691      0.36312968     0.057262402    29.616396      3335.2774    
       820   1.64           333.65272      137857.83     -807622.18     -9804.0709      0.363118       0.057697395    29.659371      3335.0513    
       830   1.66           340.12352      140846.94     -807620.79     -9863.3702      0.36310618     0.058048264    29.602221      3334.9002    
       840   1.68           336.24165      139395.08     -807619.49     -9876.2786      0.36309421     0.058126149    29.682065      3334.6374    
       850   1.7            350.43886      137378.84     -807623.54     -9797.2706      0.3630821      0.057663076    29.713491      3334.3313    
       860   1.72           350.85235      132906.99     -807629.49     -9597.4193      0.36306984     0.056488733    29.696766      3334.0464    
       870   1.74           340.33293      130481.78     -807632.37     -9450.1383      0.36305745     0.055623762    29.669093      3333.7961    
       880   1.76           343.64899      130125.2      -807631.35     -9490.5545      0.3630449      0.055863582    29.690811      3333.516     
       890   1.78           337.85476      132161.82     -807628.08     -9565.2382      0.36303222     0.056305155    29.681357      3333.2465    
       900   1.8            345.98745      137166.8      -807625.12     -9690.1596      0.36301939     0.057042512    29.699236      3332.9533    
       910   1.82           330.55223      138435.79     -807619.79     -9791.0707      0.36300642     0.057638599    29.634883      3332.7387    
       920   1.84           348.79929      141697.59     -807618.07     -9922.1672      0.36299331     0.058412455    29.679776      3332.4664    
       930   1.86           352.82263      138236.46     -807621.36     -9836.9968      0.36298005     0.057913166    29.712135      3332.1538    
       940   1.88           357.84063      137303.22     -807624.78     -9746.0223      0.36296665     0.057379692    29.658811      3331.9044    
       950   1.9            352.60364      130957.35     -807630.97     -9526.5935      0.36295311     0.056089898    29.619588      3331.6996    
       960   1.92           348.43191      132658.96     -807630.66     -9515.7602      0.36293942     0.056028227    29.67309       3331.4293    
       970   1.94           341.18255      128839.41     -807631.18     -9473.4688      0.36292559     0.055781344    29.686132      3331.1425    
       980   1.96           331.86949      134756.16     -807626.16     -9589.8299      0.36291162     0.056468671    29.707068      3330.8306    
       990   1.98           339.44021      134350.72     -807626.11     -9631.3576      0.3628975      0.056715408    29.717062      3330.507     
      1000   2              333.75871      141164.84     -807617.64     -9875.386       0.36288325     0.058154684    29.519482      3330.4061    
      1010   2.02           352.44752      138444.85     -807620.79     -308.2374       0.36286884     0.058087564    29.704374      3330.0938    
      1020   2.04           348.9875       140303.15     -807619.94     -308.55459      0.3628543      0.058149671    29.66366       3329.8259    
      1030   2.06           343.12888      134237.98     -807626.51     -301.34152      0.36283961     0.056792606    29.761493      3329.4501    
      1040   2.08           336.03736      134267.76     -807626.83     -299.9752       0.36282478     0.056537412    29.738313      3329.1001    
      1050   2.1            352.03182      128313.5      -807633.06     -296.30496      0.3628098      0.055847974    29.776223      3328.7099    
      1060   2.12           344.07417      131306.53     -807631.27     -296.94358      0.36279469     0.055970674    29.772619      3328.3246    
      1070   2.14           336.8032       130749.7      -807630.13     -297.31023      0.36277943     0.056042141    29.792821      3327.9191    
      1080   2.16           344.60779      137205.71     -807623.96     -304.65652      0.36276402     0.057429334    29.7572        3327.5518    
      1090   2.18           346.20067      138060.55     -807622.23     -306.86972      0.36274848     0.057849013    29.780917      3327.1607    
      1100   2.2            350.89729      140551.28     -807621.11     -308.73034      0.36273279     0.058202283    29.689407      3326.8637    
      1110   2.22           341.82703      136737.31     -807623.25     -305.57658      0.36271695     0.057610245    29.708473      3326.5467    
      1120   2.24           330.86538      137547.8      -807623        -304.39521      0.36270098     0.05739005     29.778328      3326.1596    
      1130   2.26           336.3728       131526.2      -807629.4      -298.96115      0.36268486     0.056368029    29.781295      3325.7706    
      1140   2.28           325.9585       130861.39     -807630.64     -296.3268       0.3626686      0.055873838    29.799983      3325.3642    
      1150   2.3            328.97175      130637.04     -807632.19     -295.37608      0.36265219     0.055697094    29.846068      3324.9145    
      1160   2.32           350.12861      132792        -807630.2      -300.39942      0.36263564     0.056646896    29.806999      3324.5041    
      1170   2.34           330.72681      135793.4      -807623.29     -304.72879      0.36261895     0.057465939    29.83746       3324.0662    
      1180   2.36           335.83272      138903.4      -807622.68     -306.12516      0.36260212     0.057731948    29.782949      3323.6813    
      1190   2.38           338.13305      140214.09     -807621.61     -307.63003      0.36258514     0.058018467    29.796913      3323.2843    
      1200   2.4            346.92319      137608.89     -807623.95     -306.64577      0.36256802     0.057835567    29.734459      3322.9462    
      1210   2.42           335.67437      135509.18     -807625.62     -303.44519      0.36255076     0.057234639    29.706155      3322.6344    
      1220   2.44           329.28338      130231.53     -807631.72     -296.59138      0.36253335     0.055944587    29.757355      3322.2752    
      1230   2.46           333.43453      131128.02     -807632.16     -296.67323      0.3625158      0.055962736    29.710372      3321.9591    
      1240   2.48           333.28016      129092.99     -807632.52     -296.52872      0.36249811     0.055938205    29.749391      3321.6076    
      1250   2.5            322.01322      134970.14     -807626.4      -301.02314      0.36248028     0.056788843    29.778539      3321.2303    
      1260   2.52           333.77809      134129.56     -807627.41     -301.78703      0.3624623      0.056935777    29.788377      3320.8449    
      1270   2.54           337.59562      140040.67     -807621.71     -307.96473      0.36244418     0.05810418     29.770218      3320.4762    
      1280   2.56           331.48249      138111.21     -807620.96     -307.97676      0.36242592     0.058109376    29.69992       3320.1694    
      1290   2.58           331.69768      138882.37     -807622.02     -306.77823      0.36240751     0.057886176    29.742624      3319.8251    
      1300   2.6            337.69045      132000.94     -807629.85     -299.81499      0.36238896     0.056575175    29.781332      3319.4478    
      1310   2.62           334.85343      132999.13     -807629.8      -299.34715      0.36237027     0.056489806    29.792338      3319.0617    
      1320   2.64           317.68737      130103.36     -807630.29     -296.49493      0.36235143     0.055954472    29.78878       3318.6794    
      1330   2.66           321.68485      133146.86     -807629.13     -297.96701      0.36233245     0.056235229    29.74218       3318.3369    
      1340   2.68           332.0281       132175.27     -807629.88     -298.62841      0.36231333     0.056363029    29.805907      3317.9415    
      1350   2.7            348.15237      137098.08     -807625.19     -305.29707      0.36229407     0.057624733    29.836391      3317.5219    
      1360   2.72           331.92358      138422.26     -807619.99     -308.01578      0.36227466     0.058141003    29.792555      3317.1393    
      1370   2.74           341.41984      140198.49     -807621.58     -307.38391      0.36225511     0.058024863    29.70056       3316.8324    
      1380   2.76           331.49286      137041.09     -807623.43     -303.83312      0.36223542     0.0573577      29.802148      3316.4429    
      1390   2.78           347.57773      134543.21     -807627        -302.11738      0.36221558     0.057036924    29.808017      3316.0495    
      1400   2.8            336.73511      132364.65     -807628.38     -298.81902      0.3621956      0.056417337    29.81202       3315.6538    
      1410   2.82           333.17938      132138.48     -807630.38     -295.90556      0.36217548     0.055870377    29.801993      3315.2668    
      1420   2.84           336.69861      131685.29     -807630.56     -295.82991      0.36215522     0.055859218    29.788768      3314.8908    
      1430   2.86           353.17512      134155.33     -807628.12     -300.22221      0.36213481     0.056691775    29.843891      3314.4728    
      1440   2.88           354.06909      138533.28     -807623.26     -304.96122      0.36211426     0.057589923    29.738584      3314.137     
      1450   2.9            353.51289      138759.25     -807621.97     -305.94385      0.36209357     0.057778789    29.758598      3313.7859    
      1460   2.92           340.36779      139569.97     -807620.53     -305.32236      0.36207273     0.057664737    29.793069      3313.4088    
      1470   2.94           354.16166      136700.18     -807623.45     -304.17435      0.36205176     0.057451245    29.743866      3313.0695    
      1480   2.96           346.79287      134702.74     -807624.32     -302.17407      0.36203064     0.057076771    29.755388      3312.7215    
      1490   2.98           340.20674      131931.77     -807627.48     -297.97826      0.36200937     0.056287542    29.90883       3312.2597    
      1500   3              333.07234      132876.29     -807628.92     -295.37456      0.36198796     0.055799008    29.867117      3311.8302    
      1510   3.02           350.56738      131921.4      -807629.5      -9512.7563      0.36196642     0.056161104    29.674424      3311.5438    
      1520   3.04           350.91469      136494.14     -807624.54     -9672.507       0.36194472     0.057107657    29.686255      3311.2481    
      1530   3.06           345.79787      136830.4      -807623.17     -9695.2295      0.36192289     0.057245267    29.667083      3310.9658    
      1540   3.08           346.81882      139876.32     -807621.29     -9756.8731      0.36190091     0.057612738    29.622964      3310.7149    
      1550   3.1            352.21656      137842.2      -807622.37     -9750.6639      0.36187879     0.057579594    29.72122       3310.3919    
      1560   3.12           344.06594      138565.95     -807620.1      -9785.8387      0.36185653     0.057790863    29.769747      3310.0343    
      1570   3.14           360.55805      132887.7      -807628.92     -9581.2801      0.36183412     0.056586333    29.711284      3309.7183    
      1580   3.16           349.20032      132713.97     -807630.25     -9488.9309      0.36181157     0.056044419    29.728427      3309.39      
      1590   3.18           342.60152      130881.92     -807630.41     -9463.5509      0.36178888     0.055898022    29.691297      3309.0876    
      1600   3.2            337.67289      133648.8      -807626.59     -9567.8815      0.36176605     0.056517835    29.710735      3308.7713    
      1610   3.22           349.00878      133559.18     -807628.3      -9572.6194      0.36174307     0.056549414    29.704812      3308.4588    
      1620   3.24           342.30409      137461.32     -807623.92     -9687.0681      0.36171995     0.057229167    29.710785      3308.1419    
      1630   3.26           332.8119       138557.92     -807619.74     -9787.5438      0.36169669     0.057826475    29.703265      3307.8298    
      1640   3.28           353.67048      139496.68     -807621.81     -9819.5358      0.36167329     0.058019244    29.71256       3307.5112    
      1650   3.3            348.68391      136502.42     -807625.57     -9683.9212      0.36164974     0.057221683    29.7083        3307.1952    
      1660   3.32           342.14105      134448.83     -807628        -9582.8661      0.36162605     0.056628264    29.706772      3306.88      
      1670   3.34           341.73281      131375.15     -807629.85     -9529.5957      0.36160222     0.056317184    29.725891      3306.5518    
      1680   3.36           329.00402      132471.38     -807628.66     -9517.513       0.36157824     0.056249508    29.734934      3306.2175    
      1690   3.38           337.61573      132030.78     -807630.8      -9491.8019      0.36155413     0.056101295    29.703629      3305.9038    
      1700   3.4            335.67809      134470.52     -807627.93     -9579.4074      0.36152987     0.056622886    29.71076       3305.5852    
      1710   3.42           336.9734       138423.55     -807622.43     -9765.374       0.36150546     0.057726012    29.741679      3305.2462    
      1720   3.44           336.46084      138324.94     -807621.41     -9800.673       0.36148092     0.057938609    29.765322      3304.892     
      1730   3.46           342.19971      138909.36     -807624.2      -9735.2248      0.36145623     0.05755563     29.727649      3304.5623    
      1740   3.48           332.36381      135245.33     -807626.2      -9633.0578      0.3614314      0.056955521    29.694628      3304.2535    
      1750   3.5            336.03683      133923.75     -807626.66     -9635.9853      0.36140643     0.056976766    29.71832       3303.9294    
      1760   3.52           327.28966      130797.3      -807628.91     -9527.2939      0.36138131     0.056337998    29.694745      3303.62      
      1770   3.54           325.30143      131631.36     -807631.67     -9427.4566      0.36135605     0.055751524    29.686514      3303.3155    
      1780   3.56           342.55676      132025.37     -807631.53     -9507.9067      0.36133065     0.056231238    29.704584      3302.9993    
      1790   3.58           343.41528      135672.11     -807625.95     -9691.5793      0.36130511     0.057321558    29.751765      3302.6537    
      1800   3.6            345.74857      137082.47     -807624.3      -9754.974       0.36127942     0.057700613    29.743761      3302.313     
      1810   3.62           340.48984      138119.55     -807624.09     -9734.2724      0.3612536      0.05758228     29.676503      3302.0138    
      1820   3.64           337.2112       137270.99     -807624.49     -9705.8151      0.36122763     0.05741807     29.688982      3301.7064    
      1830   3.66           337.89024      135718.28     -807623.81     -9731.7372      0.36120151     0.057575584    29.691599      3301.3972    
      1840   3.68           332.4964       132144.79     -807629.22     -9533.1915      0.36117526     0.056405034    29.632602      3301.1235    
      1850   3.7            324.96378      131855.2      -807630.47     -9453.0616      0.36114886     0.055935017    29.616598      3300.8587    
      1860   3.72           340.83269      130242.26     -807632.9      -9446.7078      0.36112232     0.055901529    29.673489      3300.559     
      1870   3.74           335.68945      134358.98     -807627.44     -9595.2818      0.36109564     0.056784922    29.690146      3300.2489    
      1880   3.76           336.92381      134715.63     -807626.48     -9630.4285      0.36106881     0.056997154    29.619392      3299.9806    
      1890   3.78           337.60776      137959.83     -807624.41     -9694.5347      0.36104184     0.057380849    29.630664      3299.7049    
      1900   3.8            325.74771      138168.9      -807621.14     -9745.981       0.36101474     0.057689685    29.652583      3299.4156    
      1910   3.82           347.89927      137360.15     -807623.28     -9771.7375      0.36098748     0.057846513    29.709638      3299.0926    
      1920   3.84           331.10293      135559.58     -807624.3      -9660.6222      0.36096009     0.057193076    29.621022      3298.8209    
      1930   3.86           346.63022      132598.94     -807631.55     -9492.3507      0.36093255     0.056201158    29.619287      3298.5495    
      1940   3.88           341.72076      131154.11     -807630.85     -9489.8929      0.36090487     0.056190915    29.681597      3298.2416    
      1950   3.9            332.36844      131797.13     -807628.48     -9521.8321      0.36087705     0.056384378    29.713473      3297.9152    
      1960   3.92           340.92742      132485.25     -807629.58     -9521.0331      0.36084909     0.056384016    29.778136      3297.5522    
      1970   3.94           339.07065      134099.11     -807627.48     -9577.1162      0.36082098     0.05672056     29.725051      3297.2193    
      1980   3.96           332.53677      137595.01     -807622.18     -9715.3331      0.36079273     0.057543657    29.727316      3296.885     
      1990   3.98           334.16657      138552.69     -807620.37     -9779.0656      0.36076434     0.057925701    29.766585      3296.5289    
      2000   4              339.40578      136787.45     -807624.08     -9678.3803      0.36073581     0.057333832    29.72051       3296.1986    
      2010   4.02           346.25734      135166.89     -807628.23     -299.12892      0.36070713     0.056708896    29.69554       3295.8819    
      2020   4.04           340.29517      133575.57     -807628.02     -298.41562      0.36067831     0.056578188    29.699975      3295.5626    
      2030   4.06           331.91454      132452.7      -807627.03     -298.09462      0.36064935     0.056521866    29.790782      3295.1937    
      2040   4.08           346.33298      131405.31     -807631.94     -295.08277      0.36062025     0.055955304    29.789592      3294.8256    
      2050   4.1            342.25818      133482.07     -807629.75     -296.55505      0.36059101     0.056239046    29.7808        3294.4627    
      2060   4.12           352.31752      135408.04     -807625.41     -302.25425      0.36056162     0.057324521    29.74504       3294.1192    
      2070   4.14           349.86853      137767.25     -807622.78     -304.44005      0.36053209     0.057743801    29.74525       3293.7756    
      2080   4.16           346.07441      137618.85     -807624.69     -301.83686      0.36050242     0.05725476     29.750164      3293.4295    
      2090   4.18           338.48315      136564.39     -807624.73     -300.5916       0.36047261     0.057023266    29.70353       3293.1082    
      2100   4.2            337.28055      134771.18     -807623.81     -301.2445       0.36044265     0.057151873    29.761016      3292.7565    
      2110   4.22           339.25044      133073.62     -807626.59     -298.57902      0.36041256     0.056650911    29.705964      3292.4338    
      2120   4.24           333.80581      131746.93     -807629.86     -294.3079       0.36038232     0.055845215    29.781599      3292.0715    
      2130   4.26           332.88413      133538.23     -807628.13     -295.67195      0.36035193     0.056108774    29.74045       3291.7308    
      2140   4.28           353.19862      134585.86     -807626.41     -300.03934      0.36032141     0.056942385    29.768268      3291.3758    
      2150   4.3            345.70143      136473.66     -807622.62     -302.43532      0.36029075     0.057401985    29.724922      3291.0432    
      2160   4.32           348.48727      136593.93     -807624.9      -300.21158      0.36025994     0.056984795    29.712523      3290.717     
      2170   4.34           346.49456      138241.24     -807622.8      -301.67295      0.36022899     0.057267106    29.684348      3290.405     
      2180   4.36           358.6688       136505.44     -807622.93     -302.97989      0.36019789     0.057520169    29.707425      3290.0811    
      2190   4.38           341.47401      135347.37     -807623.14     -300.04362      0.36016666     0.056967663    29.736676      3289.7423    
      2200   4.4            360.73996      132718.54     -807630.75     -294.79033      0.36013528     0.055975125    29.770323      3289.3866    
      2210   4.42           349.68476      132358.37     -807629.22     -294.54272      0.36010377     0.055933004    29.746486      3289.043     
      2220   4.44           348.20858      134283.5      -807625.23     -298.17443      0.36007211     0.056627636    29.801323      3288.6723    
      2230   4.46           364.54127      133737.21     -807626.08     -299.44356      0.3600403      0.056873687    29.829249      3288.288     
      2240   4.48           357.30648      136077.71     -807625.52     -298.76639      0.36000836     0.056750106    29.826471      3287.9056    
      2250   4.5            348.14824      137276.92     -807622.43     -300.53537      0.35997627     0.057091209    29.862994      3287.5058    
      2260   4.52           368.57057      137719.94     -807621.69     -304.07999      0.35994404     0.057769733    29.791922      3287.1411    
      2270   4.54           354.26401      136538.63     -807623.01     -300.73424      0.35991167     0.05713924     29.775554      3286.7846    
      2280   4.56           360.82286      135605.37     -807628.45     -296.20505      0.35987916     0.056283783    29.740413      3286.4453    
      2290   4.58           350.73591      133068.69     -807627.63     -295.7061       0.35984651     0.056194072    29.712159      3286.1196    
      2300   4.6            348.61413      133535.83     -807625.09     -298.13141      0.35981371     0.056660126    29.768602      3285.7668    
      2310   4.62           343.95633      133436.07     -807625.78     -296.98539      0.35978077     0.056447492    29.692208      3285.4507    
      2320   4.64           340.07388      134901.41     -807626.04     -296.31755      0.35974769     0.056325735    29.648531      3285.1552    
      2330   4.66           350.67472      136229.9      -807624.09     -300.00407      0.35971447     0.057031758    29.675359      3284.8466    
      2340   4.68           360.72995      138509.14     -807620.91     -304.89816      0.35968111     0.057967516    29.699926      3284.5262    
      2350   4.7            345.84231      137806.63     -807622.33     -301.72846      0.3596476      0.057370234    29.72789       3284.1924    
      2360   4.72           344.70615      135363.89     -807626.47     -297.68725      0.35961396     0.056607139    29.693649      3283.8747    
      2370   4.74           353.2352       133316.06     -807628.58     -297.15345      0.35958017     0.056510945    29.721762      3283.5437    
      2380   4.76           337.4238       133967.89     -807625.95     -297.96677      0.35954624     0.056670965    29.802594      3283.1752    
      2390   4.78           336.62924      132456.79     -807628.63     -295.34576      0.35951216     0.056177792    29.803953      3282.8064    
      2400   4.8            338.90793      132287.36     -807630.82     -293.63277      0.35947795     0.055857279    29.765316      3282.4555    
      2410   4.82           346.38612      134862.01     -807627.03     -298.70336      0.35944359     0.05682728     29.717339      3282.1268    
      2420   4.84           344.55561      136901.44     -807622.4      -303.31315      0.35940909     0.057709817    29.77408       3281.7721    
      2430   4.86           351.0499       136706.98     -807625.34     -301.36672      0.35937446     0.057345006    29.74255       3281.4319    
      2440   4.88           341.49435      135399.69     -807626.46     -298.99446      0.35933967     0.056899112    29.755982      3281.0856    
      2450   4.9            339.55454      136234.24     -807625.39     -299.96055      0.35930475     0.057088508    29.752766      3280.7409    
      2460   4.92           331.81168      133919.58     -807625.59     -298.85089      0.35926969     0.056882869    29.788402      3280.3803    
      2470   4.94           327.9689       132818.7      -807628.94     -294.95809      0.35923448     0.056147422    29.769592      3280.0282    
      2480   4.96           322.4449       132142.06     -807630.05     -293.16195      0.35919913     0.055811005    29.727526      3279.695     
      2490   4.98           325.83254      134688.15     -807626.63     -297.09285      0.35916364     0.056564943    29.703641      3279.3724    
      2500   5              352.6314       133415.89     -807627.68     -299.79561      0.35912801     0.057085198    29.766974      3279.0217    
[...]
     98740   197.48         328.73         134133.75     -807626.17     -9620.2238      0.36236891     0.056732482    27.229726      44.577393    
     98750   197.5          340.74999      136035.24     -807626.45     -9662.2093      0.36238762     0.056977139    27.234952      44.223774    
     98760   197.52         340.62238      133004.03     -807626.84     -9653.4769      0.36240618     0.056922729    27.269648      43.870146    
     98770   197.54         331.44699      135956.67     -807624.69     -9677.3828      0.36242459     0.057060793    27.218245      43.516524    
     98780   197.56         344.59318      133833.89     -807628.39     -9619.9161      0.36244287     0.056719091    27.24272       43.162895    
     98790   197.58         337.74156      137085.55     -807624.62     -9709.0007      0.362461       0.057241471    27.30976       42.809252    
     98800   197.6          346.46345      134417.96     -807626.65     -9684.3493      0.36247899     0.057093301    27.310109      42.455607    
     98810   197.62         334.60573      135824.06     -807624.31     -9705.0266      0.36249683     0.057212385    27.243798      42.10197     
     98820   197.64         348.56122      133690.56     -807628.8      -9623.1582      0.36251453     0.05672699     27.259332      41.748328    
     98830   197.66         338.16849      135518.27     -807625.85     -9669.8713      0.36253209     0.056999595    27.300731      41.394676    
     98840   197.68         346.77509      135425.67     -807626.53     -9688.8306      0.36254951     0.057108609    27.318587      41.041019    
     98850   197.7          336.59475      135984.85     -807625.54     -9673.0274      0.36256678     0.057012744    27.308         40.687362    
     98860   197.72         350.60878      134366.67     -807628.72     -9631.9911      0.36258391     0.056768194    27.302282      40.333702    
     98870   197.74         341.63988      136214.72     -807625.92     -9681.3015      0.3626009      0.057056143    27.313532      39.980039    
     98880   197.76         344.5224       135457.79     -807624.8      -9729.1974      0.36261774     0.05733575     27.329282      39.62637     
     98890   197.78         342.97494      135497.15     -807626.55     -9665.2312      0.36263445     0.056956164    27.335209      39.272698    
     98900   197.8          337.26647      135428.88     -807625.84     -9661.5644      0.362651       0.056931956    27.29599       38.919029    
     98910   197.82         340.27415      135202.7      -807625.29     -9692.7667      0.36266742     0.057113235    27.338502      38.565352    
     98920   197.84         331.68035      136503.02     -807623.74     -9703.2893      0.36268369     0.057172672    27.32875       38.211674    
     98930   197.86         347.81719      133780.51     -807628.1      -9634.3437      0.36269982     0.056763914    27.327508      37.857993    
     98940   197.88         336.89071      135786.7      -807626.04     -9647.7167      0.36271581     0.0568402      27.290142      37.504315    
     98950   197.9          339.77643      135093.66     -807624.93     -9699.6425      0.36273165     0.057143629    27.298024      37.150634    
     98960   197.92         347.28229      136180.31     -807624.7      -9738.3047      0.36274735     0.057368917    27.257936      36.796955    
     98970   197.94         348.42815      134242.2      -807627.62     -9650.5016      0.36276291     0.056849226    27.240813      36.443277    
     98980   197.96         333.86636      137276.02     -807624.45     -9685.4183      0.36277832     0.057052489    27.248215      36.089594    
     98990   197.98         343.24206      135108.31     -807625.93     -9682.2888      0.36279359     0.057031654    27.291146      35.735903    
     99000   198            341.92276      136161.23     -807625.01     -9704.7582      0.36280872     0.057161622    27.331994      35.382204    
     99010   198.02         335.75501      134754.11     -807626.62     -300.81578      0.3628237      0.056696007    27.387186      35.028495    
     99020   198.04         353.02171      135034.06     -807628.27     -301.5135       0.36283855     0.056825186    27.347948      34.674789    
     99030   198.06         345.16011      134468.46     -807626.08     -302.62108      0.36285324     0.057031616    27.38077       34.321076    
     99040   198.08         344.0699       136292.69     -807625.72     -302.85036      0.3628678      0.057072537    27.386138      33.967361    
     99050   198.1          347.45874      135556.57     -807627.14     -301.94546      0.36288221     0.056899747    27.36083       33.613646    
     99060   198.12         342.26479      136099.65     -807625.29     -303.0566       0.36289648     0.05710689     27.364673      33.259928    
     99070   198.14         344.54694      134968.87     -807625.05     -303.75343      0.36291061     0.057235969    27.374002      32.906207    
     99080   198.16         333.17189      137238.87     -807623.58     -303.62173      0.36292459     0.05720895     27.334014      32.552488    
     99090   198.18         345.09612      134492.49     -807627.76     -301.1854       0.36293843     0.056747728    27.332401      32.198767    
     99100   198.2          341.11823      134981.46     -807626.48     -301.95994      0.36295213     0.056891516    27.387453      31.845037    
     99110   198.22         327.33763      135250.29     -807623.9      -302.8226       0.36296568     0.057051917    27.382723      31.491305    
     99120   198.24         341.89306      135237.49     -807626.63     -302.11206      0.36297909     0.056915948    27.380445      31.137572    
     99130   198.26         341.4752       134397.64     -807627.06     -301.69722      0.36299236     0.056835717    27.345483      30.78384     
     99140   198.28         339.27625      135685.4      -807625.07     -303.51984      0.36300548     0.057177007    27.319468      30.430108    
     99150   198.3          336.13637      135890.52     -807623.43     -304.88055      0.36301846     0.057431284    27.349285      30.076371    
     99160   198.32         341.94121      136610.67     -807625.48     -303.71803      0.3630313      0.057210273    27.373797      29.722629    
     99170   198.34         343.38696      135045.17     -807628.08     -301.47528      0.36304399     0.056785829    27.350623      29.368886    
     99180   198.36         332.29245      136210.15     -807624.93     -303.21016      0.36305655     0.057110635    27.386416      29.015138    
     99190   198.38         335.69646      134380.46     -807625.94     -302.83899      0.36306895     0.057038775    27.406472      28.661385    
     99200   198.4          341.59863      135363.04     -807627.08     -302.60125      0.36308122     0.056992073    27.426363      28.307627    
     99210   198.42         343.70273      134058.39     -807628.98     -301.30213      0.36309334     0.056745502    27.410963      27.953869    
     99220   198.44         333.92919      136721.25     -807624.96     -304.02672      0.36310532     0.057256745    27.403781      27.60011     
     99230   198.46         340.29318      134549.17     -807626.84     -303.34612      0.36311715     0.057126707    27.413991      27.246347    
     99240   198.48         336.20507      136192.33     -807625.92     -303.81483      0.36312885     0.057213135    27.393222      26.892584    
     99250   198.5          328.04226      134034.55     -807626.48     -302.27241      0.3631404      0.056920862    27.360135      26.538823    
     99260   198.52         334.66551      136320.97     -807626.3      -303.48985      0.3631518      0.057148323    27.342219      26.18506     
     99270   198.54         331.99364      134022.34     -807627.27     -302.33485      0.36316306     0.056929066    27.363947      25.831293    
     99280   198.56         328.79138      135209.88     -807626.23     -303.01747      0.36317418     0.057055855    27.385714      25.477522    
     99290   198.58         340.37309      133726.54     -807629.26     -301.78342      0.36318516     0.056821776    27.356721      25.123751    
     99300   198.6          329.79697      135801.71     -807626.12     -303.55166      0.36319599     0.057153007    27.387495      24.769975    
     99310   198.62         325.97849      134867.64     -807626.18     -303.07565      0.36320668     0.057061703    27.39774       24.416195    
     99320   198.64         331.37676      135060.55     -807626.91     -303.16666      0.36321723     0.057077181    27.401982      24.062413    
     99330   198.66         326.87889      135349.58     -807626.59     -302.92405      0.36322763     0.057029872    27.376608      23.708631    
     99340   198.68         330.30998      135673.89     -807626.83     -303.215        0.36323789     0.057083035    27.397546      23.354845    
     99350   198.7          347.03384      134977.05     -807628.8      -303.55866      0.36324801     0.05714614     27.409724      23.001056    
     99360   198.72         323.69471      135137.12     -807625.74     -303.33567      0.36325798     0.057102594    27.391141      22.647265    
     99370   198.74         333.76043      134820.07     -807627.97     -302.52997      0.36326781     0.056949381    27.376681      22.293474    
     99380   198.76         331.14743      134765.87     -807628.2      -301.93395      0.3632775      0.056835668    27.392624      21.93968     
     99390   198.78         319.32275      135181.18     -807624.4      -303.9759       0.36328704     0.057218539    27.399885      21.585882    
     99400   198.8          338.64395      133442.55     -807628.53     -302.50864      0.36329644     0.056940878    27.378205      21.232084    
     99410   198.82         340.07074      134716.37     -807628.06     -302.94996      0.3633057      0.057022495    27.337489      20.878286    
     99420   198.84         337.83402      134147.59     -807627.85     -302.74101      0.36331481     0.056981735    27.384996      20.524483    
     99430   198.86         340.44718      136754.82     -807625.87     -304.74509      0.36332378     0.057357525    27.412779      20.170675    
     99440   198.88         334.09251      134959.1      -807626.09     -303.43482      0.36333261     0.057109527    27.34635       19.81687     
     99450   198.9          332.05711      136277.87     -807626        -302.81599      0.36334129     0.056991695    27.315132      19.463065    
     99460   198.92         335.04621      134134.2      -807626.84     -302.14697      0.36334983     0.056864445    27.327983      19.109257    
     99470   198.94         338.71685      135675.21     -807624.75     -304.36562      0.36335823     0.057280672    27.350121      18.755444    
     99480   198.96         348.19734      133558.56     -807628.61     -301.4755       0.36336648     0.056735472    27.312214      18.401632    
     99490   198.98         345.0313       135422.09     -807627.26     -301.95626      0.3633746      0.05682468     27.310557      18.047817    
     99500   199            348.55478      134188.86     -807627.3      -302.26286      0.36338256     0.05688113     27.426184      17.693993    
     99510   199.02         338.53261      135839.24     -807622.36     -9776.2089      0.36339039     0.057490301    27.394249      17.340168    
     99520   199.04         341.42213      134688.36     -807625.01     -9699.7588      0.36339807     0.05703952     27.303808      16.986346    
     99530   199.06         341.18366      137298.5      -807623.86     -9726.6917      0.3634056      0.057196713    27.27913       16.632524    
     99540   199.08         341.24231      135155.41     -807623.79     -9727.5502      0.363413       0.057200597    27.284843      16.278699    
     99550   199.1          351.66937      136286.78     -807624.87     -9733.8339      0.36342025     0.057236405    27.328264      15.924869    
     99560   199.12         351.28121      133712.73     -807626.94     -9664.0026      0.36342736     0.056824675    27.325824      15.571036    
     99570   199.14         350.2681       135361.16     -807627.31     -9644.2727      0.36343432     0.056707576    27.314038      15.217202    
     99580   199.16         344.74663      133762.07     -807626.11     -9658.5811      0.36344114     0.056790642    27.259836      14.863368    
     99590   199.18         336.14394      135264.48     -807623.79     -9695.2303      0.36344782     0.057005085    27.315992      14.509528    
     99600   199.2          346.75089      135981.52     -807624.85     -9707.4931      0.36345435     0.057076161    27.358446      14.155684    
     99610   199.22         347.41258      135842.95     -807624.3      -9728.2402      0.36346074     0.05719714     27.330205      13.801839    
     99620   199.24         349.17532      136757.32     -807623.92     -9752.0898      0.36346699     0.057336378    27.329548      13.447991    
     99630   199.26         344.88273      135882.49     -807623.9      -9735.6435      0.3634731      0.057238722    27.320552      13.094142    
     99640   199.28         345.35266      136311.81     -807625.11     -9699.1306      0.36347906     0.057023117    27.350633      12.740289    
     99650   199.3          349.64437      133576.5      -807627.95     -9632.3162      0.36348487     0.056629396    27.299331      12.386435    
     99660   199.32         338.71449      135729.05     -807624.06     -9709.0735      0.36349055     0.057079769    27.322695      12.032578    
     99670   199.34         340.92421      134172.68     -807626.19     -9656.5979      0.36349608     0.0567704      27.325573      11.678719    
     99680   199.36         354.42483      135294.42     -807627.11     -9688.0085      0.36350147     0.056954217    27.329224      11.324857    
     99690   199.38         344.03269      134544.54     -807625.82     -9690.6493      0.36350671     0.05696892     27.349301      10.970992    
     99700   199.4          350.6956       136631.42     -807625        -9751.0738      0.36351181     0.057323336    27.331165      10.617125    
     99710   199.42         332.93021      136774.11     -807623.2      -9737.4643      0.36351677     0.05724255     27.336096      10.263255    
     99720   199.44         340.83013      136682.21     -807625.48     -9705.2554      0.36352158     0.057052451    27.359732      9.9093825    
     99730   199.46         337.76996      134805.88     -807626.16     -9677.0523      0.36352625     0.056885928    27.324499      9.5555086    
     99740   199.48         341.67018      135088.94     -807626.07     -9704.2746      0.36353078     0.057045242    27.330085      9.2016321    
     99750   199.5          345.82277      133643.34     -807627.8      -9675.5236      0.36353516     0.056875548    27.337437      8.847753     
     99760   199.52         341.83373      134950.64     -807627.82     -9663.8819      0.3635394      0.056806452    27.371092      8.4938704    
     99770   199.54         344.26493      134486.94     -807627.3      -9697.0948      0.3635435      0.057001042    27.311078      8.1399874    
     99780   199.56         335.5471       135230.32     -807624.83     -9744.1352      0.36354745     0.057276931    27.284391      7.7861026    
     99790   199.58         345.87838      135531.45     -807626.78     -9734.4502      0.36355126     0.057219401    27.27781       7.4322156    
     99800   199.6          326.01009      135581.9      -807624.76     -9715.596       0.36355493     0.057108       27.333497      7.0783245    
     99810   199.62         329.48146      135850.06     -807625.36     -9718.4255      0.36355845     0.057124078    27.311281      6.7244315    
     99820   199.64         340.1624       134161.68     -807627.35     -9707.2045      0.36356183     0.057057591    27.322632      6.3705359    
     99830   199.66         339.87968      134993.48     -807627.05     -9717.6636      0.36356507     0.05711856     27.356418      6.016637     
     99840   199.68         325.87552      134600.61     -807626.76     -9669.8111      0.36356816     0.056836808    27.354333      5.6627359    
     99850   199.7          339.66595      135941.8      -807627.97     -9692.7635      0.36357111     0.056971255    27.385457      5.3088317    
     99860   199.72         330.56007      134520.33     -807626.78     -9696.0423      0.36357392     0.056990087    27.337375      4.9549263    
     99870   199.74         333.73164      136321.43     -807625.61     -9748.1223      0.36357658     0.057295776    27.325683      4.6010186    
     99880   199.76         333.94128      134010.12     -807627.39     -9694.1591      0.3635791      0.056978205    27.279457      4.2471093    
     99890   199.78         330.1634       135156.91     -807626.21     -9714.3572      0.36358148     0.057096548    27.299414      3.8931972    
     99900   199.8          337.26699      133857.08     -807627.8      -9695.8065      0.36358371     0.056987166    27.333288      3.5392821    
     99910   199.82         328.92276      135302.06     -807625.58     -9726.7473      0.3635858      0.057168692    27.327143      3.1853647    
     99920   199.84         345.90747      133041.03     -807630.31     -9651.122       0.36358775     0.056723903    27.38277       2.8314443    
     99930   199.86         329.37319      135553.54     -807626.15     -9706.368       0.36358955     0.057048325    27.375718      2.4775217    
     99940   199.88         344.20199      135155.5      -807627.47     -9730.8322      0.36359121     0.05719185     27.33761       2.1235972    
     99950   199.9          328.38644      135615.17     -807625.96     -9707.9296      0.36359273     0.057057005    27.325881      1.7696703    
     99960   199.92         345.2718       135101.25     -807628.1      -9712.0153      0.3635941      0.057080803    27.349959      1.4157409    
     99970   199.94         325.64521      134319.21     -807625.97     -9691.6861      0.36359533     0.056961128    27.348272      1.0618092    
     99980   199.96         336.80454      135660.02     -807625.97     -9738.1559      0.36359641     0.057234075    27.313928      0.70787525   
     99990   199.98         326.80318      133857.71     -807626.11     -9689.6471      0.36359736     0.056948827    27.345342      0.3539388    
    100000   200            345.17098      137076.45     -807627.23     -9730.2298      0.36359816     0.057187217    27.388181      0            
Loop time of 3539.4 on 32 procs for 100000 steps with 1080 atoms

Performance: 4.882 ns/day, 4.916 hours/ns, 28.253 timesteps/s, 30.514 katom-step/s
67.8% CPU use with 32 MPI tasks x 1 OpenMP threads

MPI task timing breakdown:
Section |  min time  |  avg time  |  max time  |%varavg| %total
---------------------------------------------------------------
Pair    | 2555.4     | 2792.5     | 3073.3     | 236.8 | 78.90
Neigh   | 0.0020635  | 0.002183   | 0.0024759  |   0.2 |  0.00
Comm    | 393.24     | 674.23     | 911.13     | 481.8 | 19.05
Output  | 2.3235     | 2.3328     | 2.34       |   0.3 |  0.07
Modify  | 63.479     | 64.288     | 64.717     |   3.8 |  1.82
Other   |            | 6.063      |            |       |  0.17

Nlocal:          33.75 ave          44 max          22 min
Histogram: 1 1 3 1 5 10 3 5 2 1
Nghost:        1039.66 ave        1051 max        1025 min
Histogram: 2 1 2 4 3 6 4 3 4 3
Neighs:              0 ave           0 max           0 min
Histogram: 32 0 0 0 0 0 0 0 0 0
FullNghs:      5314.12 ave        6990 max        3439 min
Histogram: 1 1 3 1 7 8 3 5 2 1

Total # of neighbors = 170052
Ave neighs/atom = 157.45556
Neighbor list builds = 5
Dangerous builds = 0

Total wall time: 1:02:21
