
units		metal
atom_style	atomic

read_data ${STRUCTURE}.data
read_data BaTiO3-sc333.data
Reading data file ...
  orthogonal box = (0 0 0) to (11.898253 11.898253 12.912076)
  2 by 4 by 4 MPI processor grid
  reading atoms ...
  135 atoms
  read_data CPU = 0.005 seconds
replicate $L $L $L
replicate 2 $L $L
replicate 2 2 $L
replicate 2 2 2
Replication is creating a 2x2x2 = 8 times larger system...
  orthogonal box = (0 0 0) to (23.796507 23.796507 25.824152)
  2 by 4 by 4 MPI processor grid
  1080 atoms
  replicate CPU = 0.003 seconds

pair_style allegro
pair_coeff	* * ${MODEL}.pth Ba Ti O
pair_coeff	* * BaTiO3-E0.pth Ba Ti O
mass 1 137.3
mass 2 47.9
mass 3 15.9994

timestep 0.002
compute polarization all allegro polarization 3
compute allegro will evaluate the quantity polarization of length 3 (src/compute_allegro.cpp:53)
compute polarizability all allegro polarizability 9
compute allegro will evaluate the quantity polarizability of length 9 (src/compute_allegro.cpp:53)

thermo_style custom pe fmax fnorm spcpu cpuremain

variable efield equal 1e-2*36.36
fix born all addbornforce 0.0 0.0 ${efield}
fix born all addbornforce 0.0 0.0 0.3636

thermo 10
min_style fire
#minimize 0.0 1e-6 100 100
velocity all create ${TEMP} ${SEED} dist gaussian rot yes mom yes
velocity all create 320 ${SEED} dist gaussian rot yes mom yes
velocity all create 320 25925 dist gaussian rot yes mom yes
fix nvt all nvt temp ${TEMP} ${TEMP} $(100*dt)
fix nvt all nvt temp 320 ${TEMP} $(100*dt)
fix nvt all nvt temp 320 320 $(100*dt)
fix nvt all nvt temp 320 320 0.2000000000000000111
run 5000
Neighbor list info ...
  update: every = 1 steps, delay = 0 steps, check = yes
  max neighbors/atom: 2000, page size: 100000
  master list distance cutoff = 8
  ghost atom cutoff = 8
  binsize = 8, bins = 3 3 4
  1 neighbor lists, perpetual/occasional/extra = 1 0 0
  (1) pair allegro/kk, perpetual
      attributes: full, newton on, kokkos_device
      pair build: full/bin/kk/device
      stencil: full/bin/3d
      bin: kk/device
Per MPI rank memory allocation (min/avg/max) = 3.516 | 3.516 | 3.516 Mbytes
    PotEng          Fmax          Fnorm          S/CPU         CPULeft    
-807708.29      1.5955248      37.042328      0              0            
-807645.62      3.6677401      45.169294      2.3246753      2146.5373    
-807634.54      2.508415       35.912253      25.888125      1167.3009    
-807606.42      2.8482881      37.943947      25.910547      840.57595    
-807603.7       4.5200409      50.587221      25.881092      677.07486    
-807565.31      3.5552535      42.201171      25.799956      578.94003    
-807603.01      2.8970073      39.700134      25.890274      513.27621    
-807645.49      3.6793621      35.487476      25.896928      466.25617    
-807684.31      2.8778812      34.782705      25.866444      430.92257    
-807666.23      3.941024       35.455416      25.867009      403.35455    
-807652.66      3.8676363      35.224043      25.913684      381.1887     
-807660.01      3.046888       27.991194      25.904903      362.98862    
-807628.05      3.6388516      31.119801      25.905901      347.75696    
-807585.29      3.9598854      40.114424      25.918562      334.80218    
-807569.12      3.1976383      38.355178      25.930875      323.63661    
-807631.64      2.9054411      33.885514      25.885724      313.9301     
-807652.95      4.459378       32.118224      25.873361      305.39421    
-807664.04      3.2820827      35.008482      25.875152      297.81632    
-807645.76      5.2781825      45.831088      25.927315      291.01663    
-807679.45      3.3613816      37.172097      25.895429      284.90414    
-807640.22      4.1674648      40.676585      25.870599      279.37317    
-807616.72      3.0150422      39.533752      25.922664      274.31444    
-807560.78      4.3407834      46.398828      25.91625       269.6826     
-807605.05      4.1684687      49.669121      25.875087      265.43271    
-807613.22      4.5323379      39.712264      25.860436      261.50911    
-807640.66      3.1315366      36.193416      25.902081      257.85665    
-807642.52      4.8720247      45.730647      25.906285      254.45431    
-807680.52      3.1582319      38.563751      25.864154      251.28641    
-807663.17      3.9848872      35.594762      25.85071       248.32057    
-807638.2       3.0485821      32.956915      25.903562      245.51978    
-807607.39      4.2170463      34.258491      25.909478      242.87857    
-807602.61      3.8853854      43.116281      25.87894       240.38977    
-807596.79      3.6673361      37.172065      25.821657      238.0449     
-807607.45      3.4169369      33.736625      25.894596      235.80323    
-807642.41      3.4290584      30.307777      25.897996      233.67002    
-807671.76      2.2131568      32.184154      25.870795      231.64203    
-807676.81      2.5201247      33.002793      25.814916      229.71603    
-807643.38      4.0243916      38.666175      25.897429      227.85773    
-807648.43      2.7395226      31.231406      25.898544      226.07673    
-807619.37      4.3971901      34.967311      25.886543      224.36937    
-807599.81      4.2714642      44.426041      25.845274      222.73516    
-807566.96      5.060936       43.260219      25.875115      221.15679    
-807623.35      3.6192745      36.57759       25.896066      219.63178    
-807647.72      4.7745034      36.761556      25.883076      218.16179    
-807672.61      2.9946738      35.662586      25.872155      216.74275    
-807642.07      4.7069234      47.132755      25.910575      215.3638     
-807665.34      3.0370208      35.998278      25.885968      214.03165    
-807644.86      4.7429747      36.876792      25.842643      212.74599    
-807622.49      3.4717619      38.364043      25.902222      211.4894     
-807563.66      4.9158995      43.770049      25.890045      210.27       
-807599.86      3.9402411      43.720364      25.919679      209.07996    
-807623.46      4.0189812      35.879296      25.877233      207.92703    
-807653.83      2.7568766      32.712409      25.910711      206.79928    
-807644.09      4.2837398      40.466797      25.944924      205.69523    
-807671.75      2.9180734      34.39719       25.887465      204.62486    
-807666.05      2.829132       33.053745      25.846655      203.5843     
-807641.89      2.7325135      30.975149      25.858778      202.56564    
-807599.85      3.2839447      35.169374      25.894586      201.56501    
-807595.22      3.5118509      37.861365      25.906126      200.58425    
-807603.83      3.5613167      40.099518      25.823217      199.63292    
-807618.65      3.3639272      33.296149      25.890653      198.69299    
-807637.91      2.9542773      33.140844      25.924612      197.76757    
-807662.55      2.8246799      34.182284      25.915874      196.86048    
-807673.56      2.784206       36.369884      25.810793      195.98084    
-807647.1       4.3775767      38.086373      25.840726      195.11352    
-807633.33      3.2878169      33.752         25.873558      194.2577     
-807611.82      3.814728       35.656686      25.885547      193.41491    
-807602.09      4.8216796      45.070108      25.797985      192.59423    
-807580.28      4.6350898      40.169039      25.859488      191.78043    
-807615.16      3.181603       35.716672      25.864612      190.97853    
-807643.2       4.3455925      36.604618      25.861174      190.18881    
-807672.42      2.6566803      36.061918      25.818756      189.41428    
-807649.51      4.8679319      41.310901      25.82012       188.65039    
-807651.94      3.0127423      35.325346      25.847472      187.89442    
-807640.77      3.9677145      34.793839      25.848162      187.14836    
-807623.84      3.6295376      37.522385      25.830578      186.41337    
-807574.95      4.1828658      40.598658      25.842443      185.68655    
-807586.91      3.4274238      40.733312      25.911592      184.96288    
-807624.21      3.9346586      33.628051      25.877229      184.25064    
-807657.26      2.4606465      32.107048      25.850878      183.54875    
-807649.39      3.9361786      36.910381      25.82161       182.85704    
-807656.45      4.9635245      36.599657      25.758874      182.17772    
-807664.31      3.1646922      33.316013      25.840013      181.49929    
-807642.63      3.0635387      32.541808      25.864799      180.82602    
-807602.08      3.1151161      36.652971      25.906299      180.15651    
-807581.05      3.4124831      39.320305      25.902738      179.49393    
-807603.42      3.9037516      39.846075      25.842461      178.84211    
-807625.43      3.9874595      33.657574      25.820931      178.19791    
-807639.86      3.2396371      33.778774      25.839803      177.55823    
-807649.84      3.7370753      37.147011      25.886913      176.92097    
-807670.78      2.6973536      35.638991      25.80982       176.29455    
-807652.52      4.4201318      35.773819      25.820445      175.67267    
-807630.3       3.1802976      33.94021       25.882233      175.05178    
-807602.41      3.7545997      36.507616      25.887909      174.43556    
-807602.73      4.2451451      43.677147      25.865116      173.82571    
-807593.57      3.5448517      38.748895      25.828154      173.22292    
-807616.87      3.0019702      35.38645       25.901322      172.62001    
-807637.46      3.6094133      37.125061      25.891088      172.02221    
-807669.8       2.79706        35.084986      25.846626      171.43145    
-807657.72      3.8918302      37.415963      25.811909      170.84692    
-807647.05      3.750213       34.888507      25.893546      170.26145    
-807631.52      3.9009633      33.482893      25.895485      169.67981    
-807622.83      2.8658914      36.318848      25.870074      169.10348    
-807592.2       2.9305841      37.527839      25.853865      168.53177    
-807591.06      2.9743783      37.55554       25.916906      167.96003    
-807622.92      3.209904       32.483583      25.892998      167.39317    
-807657.44      2.8670219      31.913476      25.834473      166.83298    
-807659.03      2.6217304      34.054904      25.842073      166.2756     
-807649.82      3.3962114      36.571312      25.867251      165.72001    
-807654.61      2.8526782      33.03292       25.916924      165.16487    
-807642.05      2.9320102      32.037433      25.872028      164.61517    
-807611.96      2.6616809      35.264871      25.862948      164.06889    
-807581.13      3.1132874      38.565219      25.905211      163.52328    
-807605.26      3.1539434      37.572244      25.89128       162.9812     
-807631.23      3.3094437      34.266028      25.832506      162.44484    
-807648.31      3.7284927      33.503735      25.84073       161.91065    
-807644.24      4.071105       38.69828       25.841159      161.37898    
-807665.28      2.7997043      34.54463       25.814063      160.85112    
-807650.87      3.7367582      35.722123      25.830852      160.32482    
-807634.69      2.943626       32.320002      25.846827      159.8001     
-807594.92      4.7263648      37.295956      25.862294      159.27693    
-807602.59      3.3309173      40.039357      25.901045      158.75422    
-807605.68      3.3922193      36.320637      25.844784      158.23634    
-807628.71      3.0746488      32.803551      25.86114       157.71985    
-807634.73      4.337357       36.156478      25.91547       157.20299    
-807664.27      4.0173573      34.217665      25.877237      156.68994    
-807658.83      3.4088899      34.875956      25.834921      156.18078    
-807648.59      2.8194951      32.16282       25.875507      155.67175    
-807621.88      3.4137926      34.278433      25.895316      155.16378    
-807615.32      3.2088941      35.388297      25.88556       154.65812    
-807599.17      2.9091967      38.249791      25.817922      154.15718    
-807600.52      2.7851892      36.076253      25.837807      153.65713    
-807621.43      3.540707       32.720019      25.851237      153.15823    
-807651.48      2.2630006      32.404365      25.829538      152.66191    
-807661.49      2.596492       33.642895      25.786035      152.16901    
-807648.67      2.9846845      36.801215      25.806554      151.67683    
-807644.75      2.5907971      33.413624      25.881321      151.1832     
-807632.44      2.8134947      33.392337      25.822094      150.69347    
-807615.08      3.0673989      36.92174       25.843342      150.2044     
-807585.02      2.8001868      38.422243      25.804615      149.71831    
-807601.78      3.152321       37.206027      25.897302      149.23005    
-807631.57      3.5069857      33.457474      25.90306       148.74303    
-807655.83      2.7417905      32.855377      25.813779      148.26079    
-807647.48      3.7274073      37.906834      25.826533      147.77941    
-807653.42      3.4212634      35.25422       25.879655      147.29737    
-807646.86      3.5176061      33.898895      25.808615      146.81925    
-807634.77      2.7413616      33.160413      25.823826      146.34181    
-807595.43      3.0000072      36.531492      25.87503       145.86377    
-807592.62      3.2533021      39.714038      25.886571      145.38655    
-807608.63      3.4897467      36.662797      25.836058      144.91234    
-807637.3       3.3380992      34.377533      25.829678      144.4395     
-807637.68      4.0813575      36.733595      25.877457      143.96616    
-807655.31      3.3836205      35.487868      25.805177      143.49643    
-807655.22      3.5025624      35.408858      25.844177      143.02645    
-807648.01      3.6448467      33.327369      25.838968      142.55772    
-807617.6       4.4499627      34.418964      25.827446      142.09044    
-807605.2       2.9945216      35.778477      25.851918      141.62337    
-807601.3       3.9758495      37.251344      25.784335      141.15954    
-807612.39      3.2315335      35.728777      25.827655      140.69526    
-807625.17      4.1394075      33.608313      25.917473      140.22908    
-807647.39      3.3441937      32.979169      25.861411      139.76567    
-807660.14      2.5384002      33.960446      25.8493        139.30361    
-807653.92      2.9367722      33.820834      25.847387      138.84252    
-807639.58      3.4630386      33.560185      25.894431      138.3809     
-807624.25      3.4158179      33.109214      25.872748      137.92086    
-807612.98      3.4867475      36.607857      25.851704      137.46235    
-807598.49      3.7771712      36.793164      25.889501      137.00357    
-807607.41      4.183794       35.61172       25.849767      136.54684    
-807630.56      3.8581236      33.481725      25.91775       136.08894    
-807656.5       3.8126214      33.523214      25.910415      135.6321     
-807650.76      3.7016102      36.437228      25.878668      135.17702    
-807649.95      3.9501774      34.481669      25.839443      134.72387    
-807640.7       3.297057       33.447492      25.860024      134.2709     
-807633.34      2.6034455      34.018736      25.806768      133.8202     
-807601.81      3.1186978      35.981872      25.867359      133.36853    
-807596.96      3.8472724      37.421585      25.906163      132.91653    
-807614.45      3.5002443      33.627199      25.891912      132.46567    
-807643.12      2.7436824      32.244505      25.812165      132.01772    
-807646.06      3.3420645      34.116772      25.830474      131.56995    
-807650.83      3.5251433      34.471995      25.88199       131.12148    
-807651.07      3.3480606      33.660308      25.859496      130.67429    
-807647.81      3.1352207      32.023344      25.847587      130.22809    
-807618.75      2.8158232      33.370939      25.8769        129.78177    
-807600.78      2.6788247      36.230442      25.928723      129.33477    
-807603.2       3.2881565      36.833412      25.912478      128.88885    
-807623.6       2.9124002      34.257816      25.889108      128.44417    
-807632.17      4.199395       34.376786      25.888218      128.00015    
-807645.08      3.1270978      33.843944      25.899017      127.55647    
-807655.89      2.6684454      34.857478      25.87214       127.11407    
-807651.86      2.7571084      33.660516      25.835508      126.67316    
-807636.49      2.5206561      32.927275      25.846482      126.23255    
-807614.43      3.1958074      34.182739      25.894033      125.79136    
-807608.29      4.0078009      37.25764       25.846575      125.35187    
-807604.91      3.7850086      37.306973      25.867943      124.91242    
-807617.79      2.8717982      33.948568      25.855266      124.47382    
-807630.22      4.9881135      35.317217      25.894586      124.03483    
-807651.98      3.2041034      34.985523      25.902024      123.5962     
-807651.35      3.0627376      35.951019      25.795359      123.16056    
-807646.24      3.5639223      34.500868      25.813212      122.72501    
-807629.3       3.8980693      35.35911       25.868284      122.28868    
-807626.93      3.0054655      34.695327      25.882303      121.85254    
-807604.26      3.6806971      37.327295      25.853697      121.41753    
-807604.81      3.601927       36.72828       25.897377      120.98204    
-807613.33      3.9865667      35.09012       25.91274       120.5467     
-807642.79      2.6685996      33.086084      25.879529      120.11256    
-807647.47      3.2846447      34.650329      25.826919      119.68002    
-807647.89      3.6592817      34.936119      25.811988      119.24823    
-807641.02      4.3408003      35.634801      25.85817       118.8159     
-807640.37      3.2122315      33.287141      25.865681      118.38385    
-807620.77      2.8830429      34.318463      25.868382      117.95218    
-807602         3.6282415      37.067455      25.905385      117.52017    
-807602.5       3.2315764      37.015044      25.912717      117.08845    
-807624.96      3.3033313      34.827397      25.898721      116.65745    
-807641.08      2.9871907      33.035947      25.833271      116.22819    
-807642.74      3.622569       35.543528      25.814654      115.79969    
-807649.2       2.8067418      34.541204      25.807275      115.37172    
-807647.44      3.319909       34.815094      25.807707      114.94412    
-807638.18      2.6760531      32.772592      25.844933      114.51616    
-807610.73      3.6592258      35.359828      25.897681      114.08756    
-807602.94      3.042526       37.858915      25.916122      113.65899    
-807610.66      2.8872622      36.017578      25.877709      113.23154    
-807625.75      3.2201221      34.089635      25.881063      112.8044     
-807632.76      3.1754357      34.791459      25.87387       112.37776    
-807649.7       3.6266783      33.708429      25.84756       111.95197    
-807651.12      3.5607088      35.519652      25.846001      111.52655    
-807646.85      2.9436205      34.02153       25.837168      111.10164    
-807624.4       4.0256603      34.796958      25.884324      110.67621    
-807616.56      3.8420457      35.864453      25.894173      110.25095    
-807607.48      3.3577773      37.39755       25.89629       109.82599    
-807610.58      3.1880476      36.429288      25.849711      109.40219    
-807621.61      3.0392532      33.516413      25.891626      108.97798    
-807642.31      3.1774151      33.332759      25.897246      108.55401    
-807650.71      2.6632497      34.398332      25.848857      108.13119    
-807650.61      3.1361199      34.106192      25.836902      107.70888    
-807637.07      3.490033       34.398977      25.82801       107.28703    
-807630.91      3.5062768      32.91932       25.866237      106.86483    
-807617.04      3.0568055      34.973931      25.851452      106.44318    
-807606.23      3.3375167      36.781107      25.857754      106.02172    
-807608.29      3.1389576      35.668485      25.92087       105.59951    
-807629.02      3.6567312      34.081236      25.911995      105.17775    
-807645.42      3.0078057      34.1946        25.875886      104.75688    
-807647.8       3.4093554      35.118362      25.876769      104.33627    
-807644.87      3.112364       35.237582      25.858978      103.91623    
-807641.17      3.5426593      34.061512      25.832143      103.49689    
-807631.75      3.2001528      34.302263      25.845068      103.07761    
-807611.25      3.1358292      35.347327      25.833648      102.65878    
-807602.86      3.275704       36.635018      25.878065      102.23951    
-807615.23      2.9600349      34.608052      25.858132      101.82082    
-807634.04      3.611894       33.587791      25.858039      101.40238    
-807640.49      3.0972387      33.709098      25.831653      100.9846     
-807646.97      3.9234121      33.922414      25.834138      100.56703    
-807649.78      3.1836861      34.214788      25.84518       100.14954    
-807644.82      3.7957511      33.133817      25.83369       99.732452    
-807625.61      2.9332953      33.158179      25.862037      99.315193    
-807611.68      3.2468915      35.113927      25.852665      98.89831     
-807608.28      2.7838068      35.859069      25.882387      98.481236    
-807618.98      3.020276       34.154576      25.878236      98.064461    
-807626.5       2.7986177      33.591621      25.877102      97.647938    
-807640.34      3.3988367      34.001399      25.894497      97.231405    
-807648.65      3.1395429      34.957513      25.869644      96.815451    
-807650.45      3.199983       33.689964      25.866102      96.399773    
-807637.14      2.5730874      33.601664      25.856008      95.984455    
-807623.08      3.2700121      33.916296      25.923236      95.568445    
-807615.68      2.9726275      35.365755      25.895564      95.153036    
-807609.88      2.9272475      35.514367      25.853571      94.738409    
-807615.08      2.9953582      34.016035      25.864303      94.32385     
-807627.8       3.001488       33.062104      25.837145      93.909858    
-807646.29      3.0744036      32.446702      25.87136       93.495622    
-807650.72      3.0916907      33.42326       25.796846      93.082559    
-807644.23      3.307722       33.88959       25.865817      92.668797    
-807635.97      3.5251974      33.569372      25.859552      92.255316    
-807628.7       3.9115415      33.574649      25.850019      91.842154    
-807610.34      3.9841664      35.85185       25.865181      91.428994    
-807602.7       3.4543483      36.955147      25.858329      91.016115    
-807615.45      3.9894974      34.682257      25.858123      90.603428    
-807635.25      2.9046019      34.117238      25.879192      90.190673    
-807643.89      3.1437186      34.576944      25.855084      89.778402    
-807644.8       3.9783058      35.191254      25.864247      89.366204    
-807644.15      3.2077728      34.554841      25.879861      88.954004    
-807638.34      3.3324543      34.066501      25.915095      88.541572    
-807623.43      3.0611965      33.762628      25.866602      88.129899    
-807601.97      3.0497082      37.057348      25.882935      87.718214    
-807606.99      3.5202128      36.103748      25.950035      87.305936    
-807621.83      4.2413973      35.044901      25.868738      86.894777    
-807635.34      3.5091115      33.356131      25.906346      86.483365    
-807640.17      4.3455851      35.450664      25.890564      86.072308    
-807647.96      2.9863956      34.616735      25.868336      85.661673    
-807646.06      3.1810052      34.787309      25.833546      85.251593    
-807634.35      2.9914679      34.055677      25.846305      84.841531    
-807615.78      3.0554436      34.893803      25.874043      84.431327    
-807607.78      2.548939       36.316743      25.870303      84.021327    
-807613.01      2.9937184      35.436961      25.862075      83.611576    
-807621.25      2.9324791      33.548736      25.863696      83.201966    
-807632.13      3.0275553      33.47554       25.853123      82.792625    
-807645.47      2.995105       34.130357      25.83301       82.383648    
-807648.84      3.2878258      34.784668      25.822327      81.97493     
-807641.78      3.96589        34.971228      25.799282      81.566596    
-807629.29      3.2917202      34.221017      25.845437      81.157928    
-807620.75      3.0485755      35.236588      25.807633      80.749791    
-807612.64      3.2078502      36.463727      25.865793      80.341206    
-807610.82      3.2184097      35.759318      25.899448      79.932433    
-807621.23      2.9157301      33.822348      25.878032      79.524021    
-807638.76      2.8978713      33.477365      25.910354      79.115439    
-807647.27      2.5499121      33.452113      25.899499      78.707112    
-807646.71      3.5093866      33.765177      25.871019      78.299204    
-807639.39      3.983433       33.83375       25.860884      77.891534    
-807633.62      2.9494622      32.337481      25.866396      77.483949    
-807622.31      3.0238627      33.645417      25.893186      77.076249    
-807610.07      2.8790024      34.936786      25.887582      76.66874     
-807612.6       3.3579539      34.146485      25.915803      76.26111     
-807628.22      2.6404897      32.907504      25.905403      75.853714    
-807641.06      2.8668955      32.231388      25.88133       75.446674    
-807644.74      2.4894243      33.064813      25.799691      75.040503    
-807645.5       3.2493768      33.398379      25.795052      74.634493    
-807641.91      2.7348684      33.009669      25.845875      74.228147    
-807633.39      4.2145506      32.614778      25.8417        73.821962    
-807615.88      2.8789735      34.239837      25.881433      73.415553    
-807608.99      3.2996901      34.825876      25.866873      73.009395    
-807616.19      2.7897249      34.440293      25.89076       72.603157    
-807629.29      3.1857629      32.976132      25.883693      72.197103    
-807637.81      3.1201311      33.334315      25.854897      71.791415    
-807643.8       3.7376642      33.951649      25.844681      71.38593     
-807646.45      3.3155292      33.913365      25.837084      70.980623    
-807641.6       3.0804533      33.840069      25.841551      70.575393    
-807627.06      2.890843       33.058521      25.852311      70.170188    
-807615.19      2.9099578      34.851036      25.885682      69.764827    
-807612.02      3.1663766      35.707245      25.889047      69.359557    
-807617.44      2.9040352      34.692689      25.889538      68.954398    
-807627.55      2.7594285      32.989381      25.864915      68.549548    
-807637.56      3.5142896      33.612361      25.855261      68.144884    
-807645.42      2.6987503      34.065521      25.866079      67.740245    
-807645.64      3.75893        34.308172      25.852264      67.33582     
-807637.58      3.0029829      33.248141      25.876681      66.931317    
-807625.69      3.1714109      34.117645      25.869485      66.526976    
-807616.3       3.3158139      34.840676      25.864097      66.122782    
-807614.07      3.2213463      35.950386      25.885471      65.718535    
-807613.09      3.6233627      35.202462      25.864467      65.314548    
-807628.23      3.2966705      34.408858      25.883501      64.910526    
-807639.26      3.7434728      34.933555      25.851228      64.506841    
-807646.49      2.7048604      34.485891      25.8315        64.103395    
-807638.35      3.5761564      35.37704       25.813449      63.700172    
-807637.04      3.2121958      33.241952      25.829976      63.296927    
-807627.22      3.5036177      34.202928      25.845376      62.893669    
-807615.24      3.1783623      35.353627      25.850859      62.490469    
-807607.73      3.6550961      35.591871      25.853674      62.087345    
-807617.32      3.5386103      34.81164       25.860365      61.684271    
-807631.21      4.1626931      34.613484      25.798529      61.281704    
-807642.02      3.1404626      33.617467      25.818425      60.879091    
-807641.42      3.5237422      34.876294      25.875577      60.476193    
-807642.63      3.7837618      34.255004      25.844681      60.073589    
-807638.62      3.7192613      33.991309      25.851905      59.671028    
-807623.03      2.9810646      34.764363      25.863023      59.268486    
-807610.45      3.6313216      35.957577      25.860515      58.86605     
-807610.28      3.1824446      36.173226      25.816727      58.463976    
-807621.46      2.8873967      34.436298      25.840652      58.061838    
-807631.19      3.0245051      33.886245      25.87489       57.659576    
-807639.35      3.6382588      34.041491      25.901866      57.25724     
-807644.73      3.1088555      33.869686      25.92786       56.85484     
-807646.18      2.7530517      33.475739      25.851896      56.452983    
-807633.84      3.3663032      33.380353      25.858516      56.05117     
-807621.31      2.9822908      33.448172      25.877154      55.649334    
-807614.55      2.7535416      34.641918      25.946814      55.247183    
-807614.89      2.72647        35.091176      25.877897      54.845515    
-807621.48      3.4237486      34.070409      25.902991      54.443791    
-807632.24      3.7933989      33.483759      25.88989       54.042225    
-807642.07      3.5193485      33.605403      25.865406      53.640879    
-807647.06      3.7334545      34.367421      25.854772      53.239672    
-807641.85      3.1783399      34.046358      25.868061      52.838471    
-807632.14      2.8790453      33.526602      25.897781      52.43719     
-807623.32      2.8829664      33.381873      25.887578      52.036046    
-807617.33      3.1172213      34.584172      25.881663      51.635012    
-807613.72      2.8370876      34.938522      25.899397      51.233966    
-807623.02      3.5963005      33.52676       25.893317      50.833032    
-807634.45      3.2399087      33.187107      25.868963      50.4323      
-807644.35      3.5421869      33.403832      25.886946      50.031554    
-807643.63      2.9353569      33.447919      25.887803      49.63088     
-807640.99      2.6714355      33.352172      25.899167      49.230227    
-807633.7       3.6659433      34.113345      25.905882      48.829618    
-807622.08      2.8333498      34.614217      25.895959      48.429135    
-807615.61      3.3526501      34.930941      25.905709      48.028681    
-807614.51      2.9216006      34.985532      25.843296      47.628597    
-807624.86      3.135975       34.918863      25.796716      47.2288      
-807636.46      3.1605389      34.207295      25.872983      46.828714    
-807640.63      2.7707192      34.761559      25.899242      46.428579    
-807641.87      3.9283121      34.747531      25.867238      46.028661    
-807640.37      3.2522799      34.901942      25.85642       45.628861    
-807631.47      3.2036495      34.663543      25.879422      45.229027    
-807618.8       3.2767147      35.667107      25.879628      44.829262    
-807611.49      3.3234697      36.300004      25.884676      44.429543    
-807617.4       3.2294605      36.083277      25.92272       44.029732    
-807625.13      3.1783461      35.381463      25.909839      43.630047    
-807634.08      4.9313184      34.581232      25.937329      43.230318    
-807640.96      3.067221       34.399318      25.912188      42.830764    
-807645.44      3.8738665      34.59512       25.923358      42.431235    
-807638.51      3.472973       34.314444      25.919187      42.031792    
-807628.26      3.9247731      34.370778      25.926654      41.632389    
-807617.93      3.0555669      35.009912      25.925968      41.233057    
-807615.78      2.9144121      35.678088      25.850645      40.834086    
-807615.19      3.0116128      35.795366      25.860581      40.435138    
-807623         3.6003277      35.315305      25.873899      40.0362      
-807634.7       3.3918841      34.845318      25.919693      39.637155    
-807643.06      3.4931607      34.412783      25.922068      39.238166    
-807643.14      3.0054643      34.489082      25.929504      38.839216    
-807634.98      3.777911       34.926726      25.879193      38.440513    
-807628.63      3.4323771      34.884973      25.89373       38.041819    
-807620.89      3.2686116      35.691758      25.922978      37.643085    
-807611.71      2.9283775      37.452941      25.909206      37.244462    
-807615.34      2.8163899      35.825207      25.893641      36.845954    
-807627.44      3.7269622      34.797024      25.852307      36.447646    
-807637         2.8677824      35.378426      25.865878      36.049349    
-807641.2       3.4630052      35.286889      25.866448      35.651106    
-807640.11      3.6213987      35.369861      25.915621      35.252762    
-807638.68      2.8185077      33.651255      25.926593      34.854444    
-807627.76      3.7363863      34.241175      25.906801      34.456248    
-807616.75      3.4737977      35.47597       25.891608      34.058159    
-807612.86      2.8932557      35.56255       25.944835      33.659964    
-807619.84      2.7964152      34.736171      25.943988      33.261834    
-807628.93      3.4275762      33.832491      25.982806      32.863649    
-807638.11      2.7270194      33.71113       25.956932      32.465604    
-807641.75      3.3474091      34.612786      25.973992      32.067571    
-807640.9       3.7783714      35.388121      25.912596      31.669773    
-807637.46      2.9339935      34.05653       25.887096      31.272103    
-807626.51      2.9507884      34.202989      25.930913      30.874367    
-807616.73      2.680763       35.035874      25.953829      30.476626    
-807614.7       3.625093       36.280243      25.862083      30.079188    
-807622.72      2.82613        34.628371      25.820225      29.681912    
-807629.75      2.8243904      33.997075      25.895366      29.284487    
-807638.66      3.2268921      34.433552      25.852771      28.887224    
-807642.66      3.1405582      34.522497      25.854933      28.490005    
-807643.01      3.33432        33.76346       25.815388      28.092932    
-807633.08      3.2829753      34.364406      25.849565      27.695821    
-807626.22      3.0202037      33.513006      25.846452      27.298764    
-807619.42      3.0767153      34.797715      25.874037      26.90169     
-807617.77      3.6966993      35.212337      25.877563      26.504657    
-807622.85      3.2408536      33.343399      25.9372        26.107538    
-807631.93      2.9420653      33.692051      25.914822      25.710521    
-807640.99      3.2241956      34.005391      25.938041      25.313505    
-807642.67      2.8782855      34.151659      25.915595      24.916589    
-807641.25      3.5676418      34.075758      25.94032       24.519672    
-807632.97      3.5132461      34.202336      25.91023       24.122869    
-807626.53      3.3503077      34.547198      25.949977      23.726035    
-807618.82      3.8227639      35.114604      25.946671      23.32926     
-807617.67      3.2733765      35.324794      25.854751      22.932715    
-807623.04      3.5353751      34.950277      25.879158      22.536168    
-807636.57      2.8576762      33.29936       25.900318      22.139627    
-807637.76      3.1704703      34.594106      25.920306      21.743096    
-807640.21      3.5504608      34.705208      25.941077      21.346575    
-807640.26      3.1018363      33.694232      25.901756      20.950174    
-807634.95      3.8466887      33.842572      25.885245      20.553847    
-807622.69      2.8410414      34.972157      25.925337      20.157497    
-807616.8       3.0159892      35.512134      25.849635      19.761319    
-807617.74      3.5750866      35.690588      25.939192      19.365038    
-807626.98      2.7170334      33.991169      25.98692       18.968729    
-807631.1       3.8031754      34.722913      25.930657      18.572558    
-807638.48      3.0859853      34.697327      25.960587      18.176387    
-807641.56      2.8837064      34.106366      25.877498      17.780388    
-807639.42      3.0082603      34.070523      25.854368      17.384464    
-807629.58      2.8745662      34.198572      25.84148       16.988597    
-807623.31      3.3925667      35.32392       25.82464       16.592793    
-807617.88      3.2918807      35.905109      25.837064      16.19701     
-807616.68      3.3002976      36.395513      25.842347      15.801258    
-807624.26      4.310548       36.474663      25.884084      15.405491    
-807632.21      3.8091409      36.051753      25.897277      15.009748    
-807639.72      3.7229194      35.934163      25.812187      14.614149    
-807640.01      3.0644832      34.524245      25.843709      14.218549    
-807637.3       4.0361516      34.673935      25.94064       13.822877    
-807628.49      3.330623       34.769253      25.929013      13.427261    
-807622.78      4.9309886      35.312101      25.914676      13.031703    
-807617.49      3.175104       35.736737      26.106466      12.635992    
-807618.51      3.5150464      35.915868      26.185396      12.24026     
-807624.01      3.0895804      36.021185      26.198515      11.844573    
-807633.97      3.5509033      35.295114      26.205649      11.44894     
-807638.36      3.8719293      35.657929      26.195001      11.053376    
-807640.94      3.500902       34.735199      26.158358      10.6579      
-807634.48      3.3038931      35.647362      26.189089      10.262456    
-807630.52      3.5073301      35.216366      26.179924      9.8670753    
-807620.5       2.9992614      35.269103      26.211526      9.4717281    
-807615.43      2.9763068      37.058639      26.198428      9.0764482    
-807619.06      3.7802276      36.038152      26.128719      8.681272     
-807627.88      4.2547202      35.910133      26.148335      8.2861352    
-807633.76      3.019473       35.079961      26.191896      7.8910248    
-807637.74      4.5950924      36.353659      26.19295       7.4959692    
-807639.61      3.6339835      35.084121      26.180579      7.1009754    
-807636.44      3.8258822      34.880137      26.202384      6.7060243    
-807627.95      2.9028881      34.32181       26.216061      6.3111217    
-807620.92      2.7352803      35.035534      26.224575      5.9162707    
-807616.49      3.5763833      36.016245      26.123217      5.521518     
-807622.06      3.2261061      35.316202      26.164103      5.1267984    
-807628.46      4.2103454      35.184892      26.212246      4.7321129    
-807634.74      3.3025036      34.759618      26.189185      4.3374888    
-807637.4       4.6086535      35.804912      26.168101      3.9429232    
-807638.73      3.1690645      34.828358      26.086912      3.5484301    
-807634.46      4.2211619      34.80236       26.133621      3.1539711    
-807626.33      4.1898263      35.414508      26.180814      2.7595502    
-807620.83      3.2109677      35.180341      26.139761      2.3651871    
-807618.98      4.0466624      36.399023      26.160322      1.9708687    
-807624.32      3.5621713      35.253087      26.242666      1.5765892    
-807628.71      3.996211       34.787531      26.235324      1.1823635    
-807636.19      2.6662321      34.197762      26.208595      0.78819188   
-807639.87      3.4741489      34.073661      26.21393       0.39407065   
-807641.05      3.3076809      33.360222      26.188706      0            
Loop time of 197.023 on 32 procs for 5000 steps with 1080 atoms

Performance: 4.385 ns/day, 5.473 hours/ns, 25.378 timesteps/s, 27.408 katom-step/s
69.4% CPU use with 32 MPI tasks x 1 OpenMP threads

MPI task timing breakdown:
Section |  min time  |  avg time  |  max time  |%varavg| %total
---------------------------------------------------------------
Pair    | 101.73     | 145.04     | 192.99     | 304.9 | 73.62
Neigh   | 0          | 0          | 0          |   0.0 |  0.00
Comm    | 1.7565     | 49.705     | 93.006     | 520.9 | 25.23
Output  | 0.025727   | 0.026842   | 0.028287   |   0.3 |  0.01
Modify  | 1.9225     | 1.9357     | 1.9476     |   0.4 |  0.98
Other   |            | 0.3133     |            |       |  0.16

Nlocal:          33.75 ave          48 max          21 min
Histogram: 8 8 0 0 0 0 0 8 0 8
Nghost:        1106.25 ave        1119 max        1092 min
Histogram: 8 0 8 0 0 0 0 0 8 8
Neighs:              0 ave           0 max           0 min
Histogram: 32 0 0 0 0 0 0 0 0 0
FullNghs:       5494.5 ave        7896 max        3378 min
Histogram: 8 8 0 0 0 0 0 8 0 8

Total # of neighbors = 175824
Ave neighs/atom = 162.8
Neighbor list builds = 0
Dangerous builds = 0

reset_timestep 0


variable interval equal 1000
thermo 10

variable nintervals equal $(v_PERIOD/v_interval)
variable nintervals equal 100
variable efield equal 1e-2*36.36*cos((step/${PERIOD})*2*3.14)
variable efield equal 1e-2*36.36*cos((step/100000)*2*3.14)
fix born all addbornforce 0.0 0.0 v_efield

variable Px equal f_born[1]+c_polarization[1]
variable Py equal f_born[2]+c_polarization[2]
variable Pz equal (f_born[3]+c_polarization[3])/vol
variable pe equal pe

fix aveP all ave/time 1 $(v_interval/2) ${interval} v_efield v_Pz v_pe f_born file Pz.${MODEL}.${STRUCTURE}.${TEMP}.$L.${ITER}
fix aveP all ave/time 1 500 ${interval} v_efield v_Pz v_pe f_born file Pz.${MODEL}.${STRUCTURE}.${TEMP}.$L.${ITER}
fix aveP all ave/time 1 500 1000 v_efield v_Pz v_pe f_born file Pz.${MODEL}.${STRUCTURE}.${TEMP}.$L.${ITER}
fix aveP all ave/time 1 500 1000 v_efield v_Pz v_pe f_born file Pz.BaTiO3-E0.${STRUCTURE}.${TEMP}.$L.${ITER}
fix aveP all ave/time 1 500 1000 v_efield v_Pz v_pe f_born file Pz.BaTiO3-E0.BaTiO3-sc333.${TEMP}.$L.${ITER}
fix aveP all ave/time 1 500 1000 v_efield v_Pz v_pe f_born file Pz.BaTiO3-E0.BaTiO3-sc333.320.$L.${ITER}
fix aveP all ave/time 1 500 1000 v_efield v_Pz v_pe f_born file Pz.BaTiO3-E0.BaTiO3-sc333.320.2.${ITER}
fix aveP all ave/time 1 500 1000 v_efield v_Pz v_pe f_born file Pz.BaTiO3-E0.BaTiO3-sc333.320.2.3

thermo_style custom step time temp press pe f_born v_efield v_Pz spcpu cpuremain

# dump 4a all custom 1000 dump.hyst.${MODEL}.${STRUCTURE}.${TEMP}.$L.${ITER}.bin id type xu yu zu fx fy fz
# dump_modify 4a sort id

fix nvt all nvt temp ${TEMP} ${TEMP} $(100*dt)
fix nvt all nvt temp 320 ${TEMP} $(100*dt)
fix nvt all nvt temp 320 320 $(100*dt)
fix nvt all nvt temp 320 320 0.2000000000000000111

run $(v_PERIOD)
run 100000
WARNING: non-constant efield is experimental, strongly distrust scalar/vector output (src/fix_addbornforce.cpp:193)
Per MPI rank memory allocation (min/avg/max) = 3.516 | 3.516 | 3.516 Mbytes
   Step          Time           Temp          Press          PotEng         f_born        v_efield         v_Pz          S/CPU         CPULeft    
         0   0              316.68114      126238.24     -807641.05     -292.92469      0.3636         0.055090869    0              0            
        10   0.02           315.37629      131232.42     -807633.63     -300.19834      0.36359993     0.056458848    29.671734      3369.8976    
        20   0.04           326.69818      136386.27     -807627.98     -307.40507      0.36359971     0.057814265    29.630453      3371.8938    
        30   0.06           314.79883      141018.32     -807621.75     -312.00399      0.36359935     0.058679252    29.636009      3372.1262    
        40   0.08           313.86211      142318.19     -807620.01     -313.54036      0.36359885     0.05896828     29.657549      3371.4589    
        50   0.1            314.70682      139210.56     -807622.92     -310.6555       0.36359821     0.058425821    29.613349      3371.9317    
        60   0.12           309.67909      133411.12     -807629.62     -303.1689       0.36359742     0.057017921    29.544441      3373.4439    
        70   0.14           312.85894      128642.82     -807637.4      -295.61385      0.36359649     0.055597161    29.525317      3374.7428    
        80   0.16           311.83709      125701.23     -807640.02     -292.64558      0.36359541     0.055039072    29.518122      3375.7338    
        90   0.18           316.4838       127842.77     -807637.9      -295.23384      0.36359419     0.055526043    29.598871      3375.4038    
       100   0.2            321.66867      132299.92     -807632.58     -301.08585      0.36359283     0.05662687     29.665421      3374.3151    
       110   0.22           325.5929       137575.05     -807626.56     -307.42999      0.36359132     0.057820286    29.644114      3373.5835    
       120   0.24           315.83422      141855.28     -807619.74     -312.683        0.36358968     0.058808519    29.645225      3372.9062    
       130   0.26           319.82375      141434.71     -807619.7      -313.02879      0.36358788     0.058873845    29.592576      3372.7427    
       140   0.28           322.93502      138623.89     -807624.19     -308.62574      0.36358595     0.058046037    29.564981      3372.7796    
       150   0.3            320.95968      132151.56     -807631.03     -301.26641      0.36358387     0.056662226    29.588044      3372.5897    
       160   0.32           321.42998      128970.55     -807636.19     -295.8107       0.36358165     0.055636455    29.578418      3372.4514    
       170   0.34           314.96443      126709.46     -807637.24     -293.61233      0.36357928     0.055223341    29.632538      3371.9268    
       180   0.36           318.91067      128762.96     -807635.23     -295.9038       0.36357677     0.05565471     29.618225      3371.5128    
       190   0.38           322.05565      132715.77     -807630.56     -300.89623      0.36357412     0.05659412     29.686019      3370.7021    
       200   0.4            330.74853      138505.06     -807623.05     -309.41313      0.36357132     0.058196469    29.654128      3370.1198    
       210   0.42           333.00459      141392.37     -807619.72     -312.96832      0.36356838     0.058865629    29.657574      3369.5417    
       220   0.44           313.83714      143276.47     -807617.63     -312.28058      0.3635653      0.058736771    29.613434      3369.2139    
       230   0.46           327.38021      137790.6      -807624.76     -306.95532      0.36356207     0.057735657    29.601012      3368.9463    
       240   0.48           338.41068      132383.9      -807631.86     -301.27875      0.3635587      0.056668468    29.623182      3368.568     
       250   0.5            326.57656      128261.27     -807635.5      -295.93705      0.36355519     0.055664268    29.64716       3368.084     
       260   0.52           310.77364      127703.41     -807636.59     -292.62861      0.36355153     0.055042521    29.683761      3367.4517    
       270   0.54           323.76242      129079.2      -807635.69     -295.35686      0.36354773     0.055556277    29.7007        3366.7704    
       280   0.56           323.24137      132970.24     -807628.11     -302.92387      0.36354379     0.056980241    29.640856      3366.3557    
       290   0.58           324.13742      139702.88     -807621.23     -309.95013      0.3635397      0.058302542    29.621951      3366.0206    
       300   0.6            335.17562      140624.58     -807621.15     -311.62183      0.36353547     0.058617675    29.57482       3365.8637    
       310   0.62           334.28924      141122.78     -807620.71     -311.95186      0.3635311      0.058680462    29.658084      3365.3902    
       320   0.64           324.68173      137683.99     -807623.97     -307.5033       0.36352658     0.057844373    29.634715      3365.0081    
       330   0.66           327.12408      133171.94     -807631.31     -300.53705      0.36352192     0.056534679    29.666454      3364.5195    
       340   0.68           319.60636      126805.1      -807637.54     -293.30819      0.36351712     0.055175571    29.629969      3364.1613    
       350   0.7            307.33143      127636.12     -807635.25     -293.90854      0.36351217     0.055289259    29.626413      3363.816     
       360   0.72           316.24303      129506.54     -807633.72     -296.87682      0.36350708     0.055848425    29.715358      3363.1916    
       370   0.74           329.79654      135865.1      -807628.9      -303.62975      0.36350185     0.057119608    29.678045      3362.6965    
       380   0.76           332.58096      138769.7      -807624.42     -308.65993      0.36349647     0.058066757    29.614605      3362.399     
       390   0.78           327.3103       142651.89     -807619.21     -313.162        0.36349095     0.058914606    29.697595      3361.8585    
       400   0.8            321.28286      141118.58     -807620.42     -311.2748       0.36348529     0.058560481    29.631091      3361.5164    
       410   0.82           330.29562      136010.23     -807627.31     -305.71112      0.36347948     0.0575147      29.551667      3361.3948    
       420   0.84           322.70951      130577.95     -807633.28     -298.8249       0.36347353     0.056220088    29.646779      3361.0053    
       430   0.86           304.1547       128479.88     -807634.6      -294.9913       0.36346744     0.055499774    29.662164      3360.5779    
       440   0.88           299.91674      126937.11     -807635.84     -293.31213      0.3634612      0.055184801    29.616032      3360.2734    
       450   0.9            321.99444      130237.68     -807634.15     -298.06624      0.36345482     0.056080241    29.649449      3359.8833    
       460   0.92           329.24813      134504.72     -807629.17     -304.27643      0.3634483      0.057249697    29.64824       3359.4984    
       470   0.94           313.19234      141031.1      -807619.96     -311.34574      0.36344163     0.058580865    29.676673      3359.0471    
       480   0.96           322.83332      141302.81     -807620.65     -312.08145      0.36343482     0.058720392    29.681416      3358.5895    
       490   0.98           325.3381       139958.31     -807623.08     -310.11717      0.36342786     0.058351914    29.633016      3358.2483    
       500   1              313.89426      135142.96     -807626.87     -304.80725      0.36342077     0.057353916    29.613637      3357.9514    
       510   1.02           318.0988       130660.44     -807633.59     -9559.0168      0.36341353     0.056209494    29.546776      3357.802     
       520   1.04           308.59059      127129.74     -807637.67     -9389.9017      0.36340614     0.055216175    29.584377      3357.563     
       530   1.06           301.02235      128494.63     -807635.36     -9430.9277      0.36339862     0.055458572    29.539504      3357.4166    
       540   1.08           313.89084      130646.87     -807632.67     -9579.0334      0.36339095     0.056330697    29.580141      3357.1774    
       550   1.1            321.65732      136343.2      -807626.9      -9798.1114      0.36338313     0.057620251    29.628         3356.8359    
       560   1.12           318.35141      139941.74     -807621.75     -9953.9475      0.36337518     0.058537966    29.532211      3356.689     
       570   1.14           322.24242      141333.53     -807621.18     -9990.1385      0.36336707     0.058752111    29.553058      3356.4936    
       580   1.16           312.04841      139061.99     -807622.32     -9912.4226      0.36335883     0.058296386    29.575168      3356.2499    
       590   1.18           311.95188      134615.15     -807628.4      -9718.9156      0.36335044     0.057159662    29.586413      3355.9815    
       600   1.2            318.70311      129472.13     -807635.96     -9507.9264      0.36334191     0.055920088    29.588503      3355.7068    
       610   1.22           300.62309      127762.93     -807636.84     -9401.8427      0.36333324     0.055297486    29.553027      3355.4959    
       620   1.24           308.563        127787.05     -807636.83     -9439.4498      0.36332442     0.055520022    29.567723      3355.2541    
       630   1.26           306.51179      131620.52     -807631.19     -9614.1882      0.36331546     0.056549175    29.569097      3355.0068    
       640   1.28           315.8068       136658.17     -807627.4      -9779.8487      0.36330636     0.057525006    29.579487      3354.7381    
       650   1.3            313.32598      140851.86     -807621.33     -9968.1946      0.36329711     0.058634348    29.499215      3354.608     
       660   1.32           313.11696      141291.36     -807620.33     -10001.876      0.36328772     0.058833987    29.572846      3354.3444    
       670   1.34           308.94243      137950.72     -807623.85     -9873.9254      0.36327819     0.058082869    29.655645      3353.9388    
       680   1.36           304.52223      134538.02     -807629.5      -9675.0288      0.36326851     0.056914385    29.590362      3353.6437    
       690   1.38           316.18976      128405.47     -807636.98     -9490.3119      0.36325869     0.055829278    29.508207      3353.4828    
       700   1.4            313.12174      126923.01     -807637.78     -9450.4241      0.36324873     0.055596151    29.562271      3353.2289    
       710   1.42           302.0671       127163.86     -807637.18     -9424.6961      0.36323863     0.055446338    29.540772      3353.0071    
       720   1.44           315.69763      133384.35     -807632.25     -9643.4956      0.36322838     0.056735157    29.541003      3352.7817    
       730   1.46           308.89041      137060.26     -807625.32     -9840.736       0.36321798     0.057897229    29.497963      3352.6203    
       740   1.48           312.65948      142478.83     -807620.32     -10015.998      0.36320745     0.058930078    29.508505      3352.4379    
       750   1.5            312.21715      139944.96     -807622.95     -9931.2401      0.36319677     0.058433116    29.522931      3352.2294    
       760   1.52           309.67913      138625.34     -807624.58     -9864.3719      0.36318595     0.058041409    29.553954      3351.971     
       770   1.54           312.17587      131636.73     -807631.16     -9664.9557      0.36317498     0.056869772    29.601931      3351.64      
       780   1.56           303.52267      129891.92     -807634.77     -9504.8729      0.36316387     0.055929536    29.551069      3351.3827    
       790   1.58           306.91303      125881.62     -807639.44     -9368.9375      0.36315262     0.055131359    29.432519      3351.2944    
       800   1.6            291.20889      130226.79     -807632.9      -9501.6297      0.36314122     0.055913939    29.536506      3351.0517    
       810   1.62           310.87508      132636.7      -807630.54     -9662.5797      0.36312968     0.056862883    29.643378      3350.657     
       820   1.64           319.28946      138706.59     -807625.36     -9857.1332      0.363118       0.058009669    29.63293       3350.2782    
       830   1.66           304.84587      139351.66     -807620.97     -9928.546       0.36310618     0.058431839    29.580367      3349.9719    
       840   1.68           325.97393      140577.89     -807622.82     -9953.2637      0.36309421     0.058579239    29.582042      3349.6627    
       850   1.7            319.1586       136733.76     -807625.66     -9825.4011      0.3630821      0.057828642    29.653367      3349.2579    
       860   1.72           313.31986      133694.07     -807630.39     -9637.646       0.36306984     0.0567255      29.605922      3348.917     
       870   1.74           309.6817       128445.68     -807635.78     -9439.8974      0.36305745     0.055563484    29.558561      3348.6379    
       880   1.76           309.48951      127806.76     -807635.73     -9432.3669      0.3630449      0.055521077    29.526505      3348.3987    
       890   1.78           311.39019      129604.17     -807633.3      -9512.5921      0.36303222     0.055995257    29.613361      3348.0468    
       900   1.8            321.53118      134301.32     -807628.64     -9698.4456      0.36301939     0.057091289    29.512671      3347.8219    
       910   1.82           331.85791      137980.21     -807625.22     -9847.0315      0.36300642     0.057968032    29.492185      3347.6203    
       920   1.84           320.56264      141878.84     -807619.94     -9960.1511      0.36299331     0.058636069    29.547843      3347.3469    
       930   1.86           321.07098      140328.3      -807620.47     -9938.644       0.36298005     0.058511592    29.491049      3347.1414    
       940   1.88           318.82879      136596.47     -807625.55     -9759.5049      0.36296665     0.057459071    29.440483      3346.9946    
       950   1.9            331.59702      131802.2      -807632.91     -9576.2641      0.36295311     0.056382345    29.426361      3346.8606    
       960   1.92           311.36803      128614.89     -807633.47     -9464.428       0.36293942     0.055725987    29.454455      3346.6889    
       970   1.94           324.34056      128989.05     -807636.37     -9422.3972      0.36292559     0.055480626    29.498255      3346.4623    
       980   1.96           315.02854      129312.27     -807632.76     -9496.7029      0.36291162     0.055920303    29.575608      3346.1438    
       990   1.98           332.33819      135881.36     -807628.06     -9720.4075      0.3628975      0.05723979     29.567845      3345.8338    
      1000   2              319.07792      138719.05     -807621.24     -9880.7847      0.36288325     0.058186476    29.535836      3345.5595    
      1010   2.02           329.73571      142439.55     -807619.47     -311.92653      0.36286884     0.058782784    29.626223      3345.1828    
      1020   2.04           321.75391      138722.85     -807622        -308.30137      0.3628543      0.058101948    29.643544      3344.7876    
      1030   2.06           330.2169       137462.14     -807625.68     -305.67191      0.36283961     0.057608738    29.679245      3344.3545    
      1040   2.08           332.12233      129709.19     -807633.51     -298.22964      0.36282478     0.05620842     29.702234      3343.8985    
      1050   2.1            318.90148      130944.2      -807633.27     -296.42704      0.3628098      0.055870984    29.649081      3343.5017    
      1060   2.12           310.72441      126300.16     -807636.24     -292.54164      0.36279469     0.055140956    29.721224      3343.0295    
      1070   2.14           325.82471      133273.31     -807631.58     -299.1753       0.36277943     0.056393701    29.709315      3342.5724    
      1080   2.16           335.89158      133549.18     -807628.69     -303.71318      0.36276402     0.05725151     29.674269      3342.1539    
      1090   2.18           322.45296      141337.83     -807620.02     -310.49331      0.36274848     0.058532108    29.657102      3341.7546    
      1100   2.2            327.40375      139851.51     -807622.25     -309.1378       0.36273279     0.058279098    29.739941      3341.272     
      1110   2.22           326.56643      140765.35     -807621.96     -309.3794       0.36271695     0.058327189    29.639893      3340.8931    
      1120   2.24           325.9841       134468.8      -807627.47     -303.99233      0.36270098     0.057314092    29.606834      3340.5483    
      1130   2.26           322.42741      131198.12     -807632.5      -298.58648      0.36268486     0.056297385    29.605591      3340.2048    
      1140   2.28           316.35512      127387.87     -807637.54     -292.95233      0.3626686      0.055237565    29.705747      3339.7626    
      1150   2.3            311.10549      128890.34     -807635.74     -294.19535      0.36265219     0.055474452    29.609908      3339.416     
      1160   2.32           319.42845      131033.39     -807632.02     -299.35688      0.36263564     0.056450302    29.677854      3339.0036    
      1170   2.34           327.9951       135281.17     -807627.86     -305.01094      0.36261895     0.057519146    29.677762      3338.5926    
      1180   2.36           319.40676      139533.06     -807623.36     -308.55915      0.36260212     0.058190971    29.604998      3338.2522    
      1190   2.38           320.25354      140043.58     -807622.49     -309.81826      0.36258514     0.058431162    29.602237      3337.9145    
      1200   2.4            315.05794      139790.94     -807623.02     -308.83788      0.36256802     0.058249015    29.650432      3337.5315    
      1210   2.42           317.3463       133137.25     -807630.09     -302.42731      0.36255076     0.057042652    29.609963      3337.187     
      1220   2.44           316.14658      131677.2      -807634.59     -297.82437      0.36253335     0.05617716     29.617735      3336.8353    
      1230   2.46           310.66973      126190.87     -807638.77     -293.17416      0.3625158      0.05530269     29.672251      3336.4341    
      1240   2.48           299.84174      131373.49     -807633.46     -297.07475      0.36249811     0.05604121     29.760557      3335.9544    
      1250   2.5            314.36258      129676.29     -807635.05     -297.75604      0.36248028     0.056172495    29.77876       3335.4606    
      1260   2.52           312.87295      137526.75     -807627.04     -305.54814      0.3624623      0.057645355    29.687109      3335.0506    
      1270   2.54           310.95903      136850.85     -807625.11     -307.47392      0.36244418     0.058011578    29.633599      3334.689     
      1280   2.56           309.40899      142548.05     -807620.36     -311.88333      0.36242592     0.058846473    29.640593      3334.3217    
      1290   2.58           316.67249      135187.42     -807627.2      -306.2138       0.36240751     0.057779674    29.661175      3333.937     
      1300   2.6            313.42272      135827.47     -807629.55     -303.1763       0.36238896     0.057209455    29.642372      3333.5692    
      1310   2.62           311.51403      127989.58     -807636.81     -295.76142      0.36237027     0.055813144    29.680247      3333.1694    
      1320   2.64           302.17498      129589.33     -807634.61     -296.45383      0.36235143     0.055946716    29.699714      3332.7541    
      1330   2.66           309.74206      126289.51     -807637.56     -294.51571      0.36233245     0.055583866    29.708711      3332.3324    
      1340   2.68           309.09595      133024.4      -807632.03     -299.85016      0.36231333     0.056593622    29.673426      3331.9414    
      1350   2.7            304.40835      135698.78     -807625.84     -305.41604      0.36229407     0.057647189    29.656985      3331.5649    
      1360   2.72           309.50636      140288.86     -807620.85     -310.9442       0.36227466     0.058693772    29.534258      3331.2906    
      1370   2.74           306.74156      139625.48     -807622.68     -308.61023      0.36225511     0.058256355    29.465269      3331.0724    
      1380   2.76           319.17499      137980.37     -807626.91     -305.93094      0.36223542     0.057753725    29.577471      3330.7605    
      1390   2.78           324.16811      132838.7      -807632.04     -301.41252      0.36221558     0.056903854    29.647866      3330.3912    
      1400   2.8            312.06333      129540.65     -807634.36     -297.25831      0.3621956      0.056122673    29.627823      3330.0385    
      1410   2.82           307.38146      127436.62     -807637.8      -293.00982      0.36217548     0.055323628    29.675775      3329.6478    
      1420   2.84           313.22153      128324.22     -807637.31     -294.19719      0.36215522     0.055550925    29.633599      3329.2912    
      1430   2.86           313.58697      133726.82     -807629.82     -301.62758      0.36213481     0.056957155    29.646503      3328.9247    
      1440   2.88           323.58957      136507.45     -807626.69     -306.11663      0.36211426     0.057808115    29.684099      3328.5294    
      1450   2.9            311.57861      141597.6      -807621.39     -309.45771      0.36209357     0.058442396    29.634243      3328.1735    
      1460   2.92           317.17663      137832.97     -807624.15     -307.45363      0.36207273     0.058067258    29.618023      3327.8302    
      1470   2.94           326.32461      138546.68     -807624.67     -307.96816      0.36205176     0.058167805    29.699499      3327.425     
      1480   2.96           309.23406      130662.95     -807630.39     -299.86488      0.36203064     0.056640595    29.716166      3327.0081    
      1490   2.98           317.31938      131524.49     -807634.2      -296.77339      0.36200937     0.056059944    29.699985      3326.6044    
      1500   3              306.07395      124569.49     -807638.78     -290.7235       0.36198796     0.054920378    29.687103      3326.2112    
      1510   3.02           310.22152      133406.9      -807631.03     -9559.2134      0.36196642     0.056435376    29.5915        3325.8897    
      1520   3.04           316.15461      130502        -807631.66     -9570.6412      0.36194472     0.056506229    29.559037      3325.592     
      1530   3.06           331.74099      141200.11     -807624.5      -9855.5765      0.36192289     0.058192032    29.563572      3325.2905    
      1540   3.08           319.59352      137128.64     -807624.39     -9808.2117      0.36190091     0.057915885    29.498024      3325.0366    
      1550   3.1            314.94175      144133.89     -807618.71     -9957.6826      0.36187879     0.05880208     29.491991      3324.7859    
      1560   3.12           319.77951      134149.54     -807627.11     -9715.0195      0.36185653     0.057372636    29.534551      3324.5034    
      1570   3.14           328.64836      136506.99     -807630.27     -9641.3177      0.36183412     0.056940911    29.536543      3324.2186    
      1580   3.16           315.01688      126028.12     -807637.27     -9357.223       0.36181157     0.055266513    29.463498      3323.9854    
      1590   3.18           309.50345      131207.35     -807634.14     -9423.027       0.36178888     0.055658661    29.506839      3323.7201    
      1600   3.2            322.16503      127472.89     -807635.92     -9426.8304      0.36176605     0.055684641    29.553418      3323.421     
      1610   3.22           320.06168      136217.34     -807627.57     -9676.1474      0.36174307     0.057160997    29.556566      3323.1192    
      1620   3.24           336.0164       136018.71     -807626.7      -9776.4722      0.36171995     0.057757348    29.614905      3322.7765    
      1630   3.26           315.90488      141928.09     -807618.54     -9940.3362      0.36169669     0.058729199    29.516115      3322.502     
      1640   3.28           322.55516      140106.61     -807622.12     -9856.0774      0.36167329     0.058235152    29.540778      3322.2098    
      1650   3.3            324.45895      137542.06     -807625.9      -9738.44        0.36164974     0.057543831    29.509052      3321.9388    
      1660   3.32           322.09609      131558.33     -807631.53     -9544.7899      0.36162605     0.05640326     29.519133      3321.66      
      1670   3.34           323.46735      128027.08     -807636.78     -9379.2564      0.36160222     0.055428722    29.603706      3321.3236    
      1680   3.36           316.66588      128631.94     -807635.57     -9381.9996      0.36157824     0.055448609    29.636666      3320.9651    
      1690   3.38           319.73051      128316.04     -807634.46     -9432.8317      0.36155413     0.055752751    29.55218       3320.663     
      1700   3.4            327.57561      136377.38     -807627.02     -9701.9514      0.36152987     0.057347231    29.575064      3320.3454    
      1710   3.42           327.96989      137016.83     -807623.92     -9806.2654      0.36150546     0.057967733    29.554601      3320.041     
      1720   3.44           319.76423      144136.29     -807617.79     -9958.2917      0.36148092     0.058870402    29.612333      3319.6984    
      1730   3.46           321.48493      137198.93     -807623.3      -9793.0238      0.36145623     0.057897343    29.54763       3319.3979    
      1740   3.48           334.7184       137310.28     -807625.9      -9760.4588      0.3614314      0.05770878     29.605053      3319.06      
      1750   3.5            319.50093      128355.31     -807633.45     -9455.7352      0.36140643     0.055910963    29.590705      3318.7312    
      1760   3.52           318.38305      130777.36     -807634.47     -9410.6212      0.36138131     0.055648075    29.562406      3318.4204    
      1770   3.54           324.49184      125261.54     -807638.86     -9302.0271      0.36135605     0.055009767    29.530597      3318.1295    
      1780   3.56           326.59127      133280.25     -807631.13     -9554.4726      0.36133065     0.056506636    29.453365      3317.8871    
      1790   3.58           330.00105      132586.54     -807629.08     -9643.0548      0.36130511     0.057034557    29.438116      3317.6532    
      1800   3.6            326.23098      141623.22     -807620.38     -9899.243       0.36127942     0.058553963    29.506304      3317.3753    
      1810   3.62           317.17914      138596.1      -807621.15     -9842.6135      0.3612536      0.058223162    29.364401      3317.1856    
      1820   3.64           325.67103      140626.56     -807621.67     -9861.6131      0.36122763     0.058339747    29.377342      3316.9861    
      1830   3.66           332.84152      131909.74     -807630.36     -9622.8175      0.36120151     0.056931185    29.495059      3316.7122    
      1840   3.68           319.30335      131889.01     -807631.82     -9515.7758      0.36117526     0.05630199     29.481886      3316.4457    
      1850   3.7            310.33738      126598.67     -807636.89     -9320.689       0.36114886     0.055151751    29.532236      3316.1478    
      1860   3.72           316.74948      128688.1      -807636.06     -9377.6507      0.36112232     0.055492879    29.562302      3315.8312    
      1870   3.74           322.22314      129989.5      -807632.96     -9508.6142      0.36109564     0.056272022    29.487703      3315.5593    
      1880   3.76           327.41616      135470.77     -807627.36     -9718.2284      0.36106881     0.057516793    29.577374      3315.233     
      1890   3.78           327.33856      139103.7      -807624.24     -9824.0867      0.36104184     0.058147653    29.578962      3314.9056    
      1900   3.8            312.59905      140110.1      -807621.02     -9866.8852      0.36101474     0.058405358    29.569677      3314.5836    
      1910   3.82           313.23382      139183.78     -807622.82     -9816.2782      0.36098748     0.058110185    29.556126      3314.2694    
      1920   3.84           315.45518      134045.04     -807630.09     -9600.821       0.36096009     0.056839039    29.590968      3313.9347    
      1930   3.86           313.59844      131269.97     -807633.89     -9471.0396      0.36093255     0.056074981    29.596357      3313.5967    
      1940   3.88           310.69356      125356.93     -807638.62     -9315.4382      0.36090487     0.055157946    29.606363      3313.253     
      1950   3.9            306.73867      131267.94     -807634.66     -9425.8164      0.36087705     0.055815813    29.583118      3312.9227    
      1960   3.92           313.38927      129867.47     -807633.93     -9487.047       0.36084909     0.056182749    29.595207      3312.5854    
      1970   3.94           325.24854      137566.02     -807627.43     -9744.8612      0.36082098     0.057714032    29.543588      3312.278     
      1980   3.96           316.02436      136852.8      -807624.3      -9813.8494      0.36079273     0.058127166    29.541095      3311.9706    
      1990   3.98           297.89216      143439.4      -807618.41     -9917.9591      0.36076434     0.058748428    29.520484      3311.6751    
      2000   4              317.11186      135319.98     -807627.96     -9704.9052      0.36073581     0.057490963    29.514198      3311.3827    
      2010   4.02           312.87467      136379.86     -807629.8      -300.65778      0.36070713     0.056998738    29.64511       3311.0169    
      2020   4.04           319.67093      125985.31     -807637.98     -293.57188      0.36067831     0.055659839    29.621032      3310.6647    
      2030   4.06           313.79771      129801.94     -807636.2      -294.27261      0.36064935     0.055797173    29.596186      3310.3263    
      2040   4.08           312.57133      126465.58     -807639.29     -291.15417      0.36062025     0.05521034     29.654012      3309.9563    
      2050   4.1            313.12696      134137.19     -807630.72     -299.6195       0.36059101     0.056820193    29.602623      3309.6145    
      2060   4.12           309.98267      134946.44     -807627.32     -302.68216      0.36056162     0.057405677    29.541278      3309.3062    
      2070   4.14           317.58157      141593.65     -807621.73     -309.08108      0.36053209     0.058624076    29.52273       3309.0076    
      2080   4.16           309.80169      138003.86     -807624.1      -305.61497      0.36050242     0.057971422    29.544222      3308.697     
      2090   4.18           310.01011      138784.25     -807624.98     -304.42759      0.36047261     0.057750967    29.638501      3308.3357    
      2100   4.2            316.32908      130901.22     -807632.47     -297.77217      0.36044265     0.056493105    29.643379      3307.9721    
      2110   4.22           326.07596      130504.13     -807636.75     -294.48513      0.36041256     0.055874155    29.64538       3307.6077    
      2120   4.24           305.88339      126431.43     -807637.18     -291.07141      0.36038232     0.055231087    29.68826       3307.221     
      2130   4.26           308.55438      130912.03     -807633.82     -294.4877       0.36035193     0.055884042    29.656807      3306.8512    
      2140   4.28           310.28963      132790.46     -807629.12     -299.20714      0.36032141     0.056784447    29.610912      3306.5056    
      2150   4.3            321.94584      137999.95     -807624.19     -305.43854      0.36029075     0.057971995    29.633661      3306.1483    
      2160   4.32           326.84778      139628.5      -807623.22     -306.80417      0.36025994     0.05823617     29.654307      3305.7805    
      2170   4.34           312.25992      140608.21     -807621.95     -305.73246      0.36022899     0.058037729    29.619898      3305.4307    
      2180   4.36           333.39607      137131.14     -807627.73     -302.56857      0.36019789     0.057442081    29.628816      3305.0764    
      2190   4.38           326.82911      131606.24     -807631.89     -297.2275       0.36016666     0.056432982    29.559019      3304.7578    
      2200   4.4            317.93818      130241.18     -807634.89     -292.68588      0.36013528     0.05557553     29.596932      3304.4198    
      2210   4.42           311.43715      126938.6      -807636.34     -290.16764      0.36010377     0.055102186    29.613049      3304.0737    
      2220   4.44           324.66902      131264.52     -807632.39     -295.71235      0.36007211     0.056160052    29.621418      3303.7235    
      2230   4.46           328.83091      132215.51     -807630.07     -298.59842      0.3600403      0.056713167    29.63076       3303.3687    
      2240   4.48           337.40402      139755.1      -807624.02     -305.56081      0.36000836     0.058040693    29.574154      3303.0423    
      2250   4.5            330.95563      137314.49     -807623.88     -304.84703      0.35997627     0.057910272    29.487399      3302.7589    
      2260   4.52           330.00047      141529.38     -807621.13     -307.21013      0.35994404     0.058364405    29.524654      3302.4566    
      2270   4.54           324.59131      133246.79     -807627.31     -300.41961      0.35991167     0.05707946     29.59098       3302.1212    
      2280   4.56           331.89296      134052.4      -807629.9      -298.53814      0.35987916     0.056727108    29.93891       3301.6175    
      2290   4.58           315.44524      126063.35     -807635.56     -290.79609      0.35984651     0.055261006    30.237774      3300.9745    
      2300   4.6            328.77267      130735.68     -807634.25     -293.76633      0.35981371     0.055830539    30.285039      3300.3122    
      2310   4.62           310.10417      128882.66     -807631.99     -293.5821       0.35978077     0.055800635    30.283213      3299.6536    
      2320   4.64           329.43219      136744.91     -807627.76     -300.41112      0.35974769     0.057103866    30.207778      3299.0326    
      2330   4.66           327.39082      135153.6      -807625.93     -302.12693      0.35971447     0.05743532     30.279044      3298.3815    
      2340   4.68           325.34934      141045.42     -807621.11     -306.61542      0.35968111     0.058294004    30.251574      3297.7456    
      2350   4.7            319.50617      137627.28     -807623.41     -303.67205      0.3596476      0.057739785    30.240641      3297.1172    
      2360   4.72           331.65097      135691.94     -807628.16     -300.53514      0.35961396     0.057148685    30.213152      3296.5038    
      2370   4.74           331.07389      131060.24     -807633.61     -295.09847      0.35958017     0.056120139    30.26172       3295.8709    
      2380   4.76           313.25614      130237.9      -807632.84     -293.45731      0.35954624     0.0558133      30.32259       3295.2134    
      2390   4.78           328.71741      128791.72     -807635.41     -293.06502      0.35951216     0.055743973    30.293823      3294.5714    
      2400   4.8            321.86815      129950.96     -807633.76     -293.86306      0.35947795     0.055901087    30.290997      3293.9332    
      2410   4.82           323.88774      134805.92     -807627.59     -300.43385      0.35944359     0.0571565      30.259552      3293.3115    
      2420   4.84           321.86461      136872.03     -807624.36     -303.52987      0.35940909     0.057751051    30.228256      3292.7059    
      2430   4.86           326.32303      140886.87     -807622.02     -306.41588      0.35937446     0.058305777    30.191606      3292.1188    
      2440   4.88           322.98801      136075.43     -807625.96     -302.21775      0.35933967     0.057512509    30.190714      3291.5342    
      2450   4.9            318.15574      135899.47     -807626.47     -300.97532      0.35930475     0.05728164     30.206707      3290.9446    
      2460   4.92           323.36063      129977.2      -807633.33     -294.96299      0.35926969     0.056142852    30.265974      3290.3315    
      2470   4.94           315.21057      131083.69     -807633.61     -293.4684       0.35923448     0.055863848    30.30992       3289.7017    
      2480   4.96           319.29071      127630.37     -807636.31     -291.49284      0.35919913     0.055493247    30.291343      3289.0823    
      2490   4.98           314.31398      132515.19     -807631.36     -295.69682      0.35916364     0.056299146    30.243375      3288.4857    
      2500   5              327.10364      133457.01     -807629.86     -299.191        0.35912801     0.056970071    30.232551      3287.8959    
[...]
     98740   197.48         317.77693      135015.14     -807629.34     -9707.7983      0.36236891     0.057248927    29.647276      44.259176    
     98750   197.5          315.90485      134612.25     -807630.28     -9669.7384      0.36238762     0.057021537    29.653791      43.907735    
     98760   197.52         314.45031      136376.35     -807627.44     -9752.3551      0.36240618     0.057505774    29.658484      43.556297    
     98770   197.54         309.93242      134124.62     -807627.68     -9727.609       0.36242459     0.057356942    29.632244      43.204864    
     98780   197.56         320.13979      135330.96     -807630.23     -9685.4256      0.36244287     0.057105336    29.618317      42.853437    
     98790   197.58         308.0297       132213.71     -807631.44     -9593.4157      0.362461       0.056560016    29.577667      42.502018    
     98800   197.6          312.91312      133090.55     -807630.78     -9630.3263      0.36247899     0.056774813    29.611622      42.150597    
     98810   197.62         311.50426      132253.32     -807630.66     -9624.9573      0.36249683     0.056740366    29.659872      41.799172    
     98820   197.64         316.62252      134574.51     -807630.52     -9643.0294      0.36251453     0.056844128    29.665772      41.44775     
     98830   197.66         314.89421      134398.28     -807629.69     -9652.3316      0.36253209     0.056896207    29.662318      41.09633     
     98840   197.68         316.81675      135735.43     -807626.67     -9748.0701      0.36254951     0.057457783    29.678162      40.744912    
     98850   197.7          323.83589      135485.05     -807627.14     -9754.4323      0.36256678     0.057492544    29.662182      40.393498    
     98860   197.72         321.49457      135847.67     -807628.72     -9681.0659      0.36258391     0.057057427    29.665815      40.042087    
     98870   197.74         328.40278      133896.35     -807630.84     -9634.3279      0.3626009      0.056779307    29.658539      39.69068     
     98880   197.76         320.25624      134272.68     -807628.17     -9673.0604      0.36261774     0.057004926    29.66402       39.339275    
     98890   197.78         330.10506      133803.79     -807630.24     -9641.2144      0.36263445     0.056814636    29.641734      38.987876    
     98900   197.8          321.95515      132953.97     -807630.23     -9597.9601      0.362651       0.05655716     29.668212      38.636476    
     98910   197.82         325.79058      133802.84     -807629.33     -9637.4396      0.36266742     0.056787228    29.662275      38.28508     
     98920   197.84         332.05476      134880.64     -807627.61     -9715.8845      0.36268369     0.057246884    29.669146      37.933685    
     98930   197.86         318.35877      136773.27     -807624.29     -9757.2389      0.36269982     0.057487992    29.61988       37.5823      
     98940   197.88         328.34235      135453.12     -807627.81     -9686.6071      0.36271581     0.057069326    29.623366      37.230917    
     98950   197.9          327.53829      135476.77     -807627.45     -9689.8425      0.36273165     0.057085894    29.602463      36.87954     
     98960   197.92         328.47286      134338.49     -807627.53     -9692.2444      0.36274735     0.057097573    29.630889      36.528162    
     98970   197.94         319.27885      134712.77     -807626.52     -9684.9502      0.36276291     0.057052155    29.596118      36.17679     
     98980   197.96         337.51678      132639.5      -807632.13     -9585.0378      0.36277832     0.056461192    29.589886      35.825423    
     98990   197.98         335.7902       133351.16     -807631        -9615.1297      0.36279359     0.056636066    29.57661       35.474059    
     99000   198            325.56062      134567.26     -807626.75     -9709.5257      0.36280872     0.057189703    29.593316      35.122696    
     99010   198.02         322.54907      135250.69     -807625.76     -304.05297      0.3628237      0.057306135    29.711627      34.771323    
     99020   198.04         326.85447      135019.92     -807627.8      -302.70523      0.36283855     0.057049786    29.703133      34.419953    
     99030   198.06         326.92096      135655.45     -807627.67     -302.93038      0.36285324     0.057089908    29.714093      34.068585    
     99040   198.08         319.09263      135487.96     -807624.21     -305.5026       0.3628678      0.057572356    29.688229      33.717223    
     99050   198.1          323.51388      134062.05     -807627.4      -303.0686       0.36288221     0.057111396    29.687675      33.365864    
     99060   198.12         331.76391      133890.66     -807631.05     -300.66457      0.36289648     0.056656144    29.727388      33.014504    
     99070   198.14         323.1357       133601.75     -807630.23     -300.55467      0.36291061     0.056633231    29.744173      32.663145    
     99080   198.16         329.00734      134379.74     -807627.98     -303.81597      0.36292459     0.057245549    29.749055      32.311788    
     99090   198.18         314.39657      134356.12     -807627.13     -302.8347       0.36293843     0.05705848     29.724673      31.960437    
     99100   198.2          318.2274       134874.68     -807629.18     -301.44764      0.36295213     0.056794995    29.727184      31.609089    
     99110   198.22         330.02555      135064.76     -807629.8      -302.75954      0.36296568     0.057040036    29.726178      31.257744    
     99120   198.24         319.13321      135478.55     -807626.06     -305.24291      0.36297909     0.057505779    29.729764      30.906402    
     99130   198.26         320.77063      135743.36     -807627.39     -304.26516      0.36299236     0.057319482    29.741825      30.555061    
     99140   198.28         327.09739      132607.58     -807631.89     -300.82756      0.36300548     0.056669837    29.73831       30.203724    
     99150   198.3          326.27209      134501.26     -807631.02     -301.70009      0.36301846     0.05683217     29.741788      29.852389    
     99160   198.32         316.04257      132716.79     -807628.28     -303.32434      0.3630313      0.057136116    29.751293      29.501057    
     99170   198.34         321.84279      134628.92     -807628.59     -303.88781      0.36304399     0.057240252    29.722377      29.14973     
     99180   198.36         317.83708      132338.84     -807632.75     -299.30759      0.36305655     0.056375575    29.711837      28.798408    
     99190   198.38         313.45199      135362.59     -807627.82     -303.70563      0.36306895     0.057202004    29.702973      28.447089    
     99200   198.4          312.90502      133512.65     -807626.54     -305.16596      0.36308122     0.057475111    29.706067      28.095773    
     99210   198.42         310.89049      136245.59     -807626.08     -305.32887      0.36309334     0.057503874    29.700478      27.74446     
     99220   198.44         321.08724      133534.98     -807631.95     -301.03167      0.36310532     0.056692695    29.697447      27.393151    
     99230   198.46         316.47391      135076.28     -807627.9      -304.41352      0.36311715     0.057327722    29.726259      27.041842    
     99240   198.48         321.70715      133428.16     -807628.71     -304.4937       0.36312885     0.057340975    29.707349      26.690537    
     99250   198.5          312.23946      135130.82     -807628.76     -303.02028      0.3631404      0.057061693    29.675615      26.339239    
     99260   198.52         316.59764      132149.22     -807632.03     -300.4159       0.3631518      0.056569486    29.715943      25.98794     
     99270   198.54         321.57425      133755.93     -807630.66     -302.51314      0.36316306     0.056962637    29.692299      25.636645    
     99280   198.56         302.28025      134363.35     -807625.44     -305.13874      0.36317418     0.057455274    29.703793      25.285353    
     99290   198.58         318.36428      134464.97     -807628.91     -303.8075       0.36318516     0.057202882    29.706991      24.934063    
     99300   198.6          309.96258      133959.9      -807630.19     -301.31432      0.36319599     0.056731757    29.722439      24.582775    
     99310   198.62         318.12797      135143.95     -807628.67     -303.91984      0.36320668     0.057220644    29.724222      24.23149     
     99320   198.64         320.01478      134920.31     -807627.45     -305.40839      0.36321723     0.057499232    29.741918      23.880207    
     99330   198.66         320.27079      134796.83     -807629.39     -303.39337      0.36322763     0.057118227    29.74379       23.528927    
     99340   198.68         329.41608      132900.73     -807633.78     -300.23701      0.36323789     0.0565224      29.734796      23.17765     
     99350   198.7          317.88325      133278.69     -807630.42     -302.01347      0.36324801     0.056855253    29.742091      22.826375    
     99360   198.72         321.94416      134097.8      -807628.43     -304.58276      0.36325798     0.057337358    29.738422      22.475104    
     99370   198.74         307.28096      134225.05     -807627.96     -302.96559      0.36326781     0.057031383    29.722075      22.123837    
     99380   198.76         314.58694      134749.95     -807630.47     -301.38645      0.3632775      0.056732608    29.73266       21.772573    
     99390   198.78         316.32551      134249.49     -807628.96     -303.20689      0.36328704     0.057073785    29.710191      21.421313    
     99400   198.8          313.94329      136172.79     -807625.5      -306.22308      0.36329644     0.057640044    29.699271      21.070056    
     99410   198.82         321.30246      133451.29     -807630.6      -302.16627      0.3633057      0.056874984    29.700225      20.718803    
     99420   198.84         311.29811      134961.46     -807629.22     -301.97582      0.36331481     0.056837711    29.691153      20.367553    
     99430   198.86         319.53184      132699.57     -807630.3      -302.13782      0.36332378     0.056866799    29.714266      20.016304    
     99440   198.88         315.41932      135475.94     -807625.96     -305.83135      0.36333261     0.057560577    29.733395      19.665058    
     99450   198.9          314.30777      132941.06     -807630.07     -301.52897      0.36334129     0.056749469    29.741893      19.313813    
     99460   198.92         320.39514      135470.52     -807630.34     -301.95023      0.36334983     0.056827418    29.735334      18.962572    
     99470   198.94         318.78177      132780.74     -807628.23     -303.90647      0.36335823     0.057194262    29.72579       18.611335    
     99480   198.96         326.81434      135959.01     -807626.54     -306.61542      0.36336648     0.057702767    29.707466      18.260102    
     99490   198.98         330.6946       133418.52     -807630.96     -302.69191      0.3633746      0.05696312     29.688605      17.908873    
     99500   199            314.814        135168.7      -807628.48     -302.84584      0.36338256     0.056990839    29.726487      17.557644    
     99510   199.02         321.33873      133649        -807628.48     -9720.3316      0.36339039     0.057161707    29.641525      17.206423    
     99520   199.04         316.15665      134578.96     -807626.69     -9753.0831      0.36339807     0.057353094    29.646908      16.855205    
     99530   199.06         315.38561      134230.73     -807629.85     -9646.3925      0.3634056      0.056724522    29.653588      16.503989    
     99540   199.08         322.68465      134043.33     -807630.21     -9666.5763      0.363413       0.056842054    29.663627      16.152776    
     99550   199.1          314.09467      135069.82     -807626.73     -9739.2014      0.36342025     0.057267967    29.673456      15.801564    
     99560   199.12         317.59419      135576.48     -807626.54     -9759.8485      0.36342736     0.057388252    29.655068      15.450357    
     99570   199.14         328.60218      134148.16     -807630.01     -9695.2631      0.36343432     0.057007396    29.644968      15.099153    
     99580   199.16         320.55267      134113.1      -807629.4      -9677.5778      0.36344114     0.056902339    29.627057      14.747952    
     99590   199.18         316.69642      135504.24     -807626.61     -9748.678       0.36344782     0.057319342    29.664862      14.396753    
     99600   199.2          319.61532      134213.03     -807627.87     -9721.7062      0.36345435     0.057159728    29.626762      14.045558    
     99610   199.22         322.88391      133969.08     -807629.88     -9669.5747      0.36346074     0.056852217    29.608009      13.694366    
     99620   199.24         327.10948      134107.75     -807630.72     -9659.1585      0.36346699     0.056789998    29.653797      13.343176    
     99630   199.26         308.28572      135874.21     -807625.41     -9745.4762      0.3634731      0.057296532    29.641777      12.991988    
     99640   199.28         317.97261      135196.19     -807627.75     -9712.1982      0.36347906     0.057099944    29.659755      12.640803    
     99650   199.3          323.02913      135106.2      -807628.67     -9700.061       0.36348487     0.057027675    29.648584      12.289621    
     99660   199.32         332.57774      133330.77     -807630.11     -9695.3726      0.36349055     0.056999221    29.634439      11.938442    
     99670   199.34         317.33493      135087.48     -807626.06     -9754.1829      0.36349608     0.057344095    29.660339      11.587265    
     99680   199.36         319.2169       134105.86     -807627.82     -9705.0511      0.36350147     0.057054408    29.658078      11.236091    
     99690   199.38         326.06024      134682.56     -807629.39     -9680.6654      0.36350671     0.056910227    29.650186      10.88492     
     99700   199.4          323.13143      133402.25     -807628.43     -9695.3801      0.36351181     0.056995931    29.658336      10.533752    
     99710   199.42         316.826        135279.98     -807625.23     -9765.1979      0.36351677     0.057405584    29.656592      10.182586    
     99720   199.44         315.08615      134810.73     -807627        -9699.0259      0.36352158     0.057015831    29.633667      9.8314242    
     99730   199.46         325.56931      135936.92     -807627.71     -9714.7376      0.36352625     0.057107459    29.652931      9.4802643    
     99740   199.48         336.77673      134382.44     -807629.05     -9718.6857      0.36353078     0.057129956    29.644716      9.1291074    
     99750   199.5          331.46069      135635.79     -807627.57     -9736.3761      0.36353516     0.057233257    29.629779      8.7779538    
     99760   199.52         342.25922      134512.12     -807629.03     -9732.6527      0.3635394      0.057210702    29.652096      8.4268023    
     99770   199.54         330.5135       134362.08     -807628.5      -9692.783       0.3635435      0.056975697    29.656598      8.0756534    
     99780   199.56         325.69519      133563.16     -807628.45     -9670.5759      0.36354745     0.056844542    29.656045      7.7245074    
     99790   199.58         321.49448      134968.92     -807625.21     -9753.2601      0.36355126     0.057329966    29.659657      7.373364     
     99800   199.6          323.6592       134290.32     -807626.51     -9720.0742      0.36355493     0.057134322    29.659921      7.0222235    
     99810   199.62         321.54347      134578.33     -807627.16     -9686.9863      0.36355845     0.056939281    29.653662      6.6710859    
     99820   199.64         316.723        135737.5      -807626.36     -9691.3454      0.36356183     0.056964374    29.648314      6.3199512    
     99830   199.66         335.7843       135774.16     -807627.28     -9744.9725      0.36356507     0.057279076    29.668181      5.9688188    
     99840   199.68         338.02489      134174.62     -807627.96     -9733.8692      0.36356816     0.057213326    29.636611      5.6176899    
     99850   199.7          324.82848      135214.24     -807627.78     -9679.355       0.36357111     0.056892443    29.628969      5.2665639    
     99860   199.72         334.54039      133880.01     -807629.46     -9672.3868      0.36357392     0.056851048    29.66206       4.91544      
     99870   199.74         327.91856      135140.65     -807625.88     -9761.6546      0.36357658     0.057375314    29.621657      4.5643196    
     99880   199.76         319.75918      134271.43     -807625.87     -9733.472       0.3635791      0.05720927     29.649971      4.2132014    
     99890   199.78         330.461        135144.48     -807628.69     -9691.7192      0.36358148     0.056963492    29.667788      3.8620859    
     99900   199.8          330.00764      133138.64     -807629.39     -9675.7993      0.36358371     0.056869574    29.646797      3.5109733    
     99910   199.82         316.55057      135663.18     -807624.56     -9777.6677      0.3635858      0.057467975    29.634255      3.1598637    
     99920   199.84         333.67318      133520.34     -807629.69     -9698.8504      0.36358775     0.057004424    29.624384      2.8087569    
     99930   199.86         332.32661      134347.54     -807630.62     -9666.7399      0.36358955     0.056815414    29.622551      2.4576528    
     99940   199.88         316.32644      133952.56     -807627.91     -9693.683       0.36359121     0.05697351     29.649941      2.1065513    
     99950   199.9          327.58248      135738.6      -807627.38     -9770.0185      0.36359273     0.057421924    29.655136      1.7554524    
     99960   199.92         325.27901      134428.01     -807628.04     -9748.2388      0.3635941      0.0572937      29.637108      1.4043565    
     99970   199.94         316.748        135530.06     -807628.47     -9702.8446      0.36359533     0.057026711    29.653201      1.0532632    
     99980   199.96         321.10747      134688.5      -807629.36     -9702.7749      0.36359641     0.057026131    29.649032      0.70217271   
     99990   199.98         317.37902      134216.33     -807626.85     -9772.7378      0.36359736     0.057437175    29.627063      0.351085     
    100000   200            326.05186      133489.62     -807630.23     -9709.9497      0.36359816     0.057068026    29.650272      0            
Loop time of 3510.84 on 32 procs for 100000 steps with 1080 atoms

Performance: 4.922 ns/day, 4.876 hours/ns, 28.483 timesteps/s, 30.762 katom-step/s
67.3% CPU use with 32 MPI tasks x 1 OpenMP threads

MPI task timing breakdown:
Section |  min time  |  avg time  |  max time  |%varavg| %total
---------------------------------------------------------------
Pair    | 2538.2     | 2797.8     | 3118       | 314.2 | 79.69
Neigh   | 0.0016728  | 0.0039721  | 0.010036   |   3.8 |  0.00
Comm    | 319.31     | 639.37     | 898.86     | 657.3 | 18.21
Output  | 2.3601     | 2.3696     | 2.3873     |   0.4 |  0.07
Modify  | 64.245     | 65.041     | 65.441     |   3.6 |  1.85
Other   |            | 6.211      |            |       |  0.18

Nlocal:          33.75 ave          42 max          27 min
Histogram: 1 0 6 4 10 2 6 1 1 1
Nghost:        1035.56 ave        1045 max        1022 min
Histogram: 2 2 3 1 2 4 6 3 6 3
Neighs:              0 ave           0 max           0 min
Histogram: 32 0 0 0 0 0 0 0 0 0
FullNghs:      5349.56 ave        6691 max        4233 min
Histogram: 1 2 4 6 8 2 6 1 1 1

Total # of neighbors = 171186
Ave neighs/atom = 158.50556
Neighbor list builds = 4
Dangerous builds = 0

Total wall time: 1:02:06
