
units		metal
atom_style	atomic

read_data ${STRUCTURE}.data
read_data BaTiO3-sc333.data
Reading data file ...
  orthogonal box = (0 0 0) to (11.898253 11.898253 12.912076)
  4 by 4 by 4 MPI processor grid
  reading atoms ...
  135 atoms
  read_data CPU = 0.021 seconds
replicate $L $L $L
replicate 2 $L $L
replicate 2 2 $L
replicate 2 2 2
Replication is creating a 2x2x2 = 8 times larger system...
  orthogonal box = (0 0 0) to (23.796507 23.796507 25.824152)
  4 by 4 by 4 MPI processor grid
  1080 atoms
  replicate CPU = 0.004 seconds

pair_style allegro
pair_coeff	* * ${MODEL}.pth Ba Ti O
pair_coeff	* * BaTiO3-E0.pth Ba Ti O
mass 1 137.3
mass 2 47.9
mass 3 15.9994

timestep 0.002
compute polarization all allegro polarization 3
compute allegro will evaluate the quantity polarization of length 3 (src/compute_allegro.cpp:53)
compute polarizability all allegro polarizability 9
compute allegro will evaluate the quantity polarizability of length 9 (src/compute_allegro.cpp:53)

thermo_style custom pe fmax fnorm spcpu cpuremain

variable efield equal 1e-2*36.36
fix born all addbornforce 0.0 0.0 ${efield}
fix born all addbornforce 0.0 0.0 0.3636

thermo 10
min_style fire
#minimize 0.0 1e-6 100 100
velocity all create ${TEMP} 126342 dist gaussian rot yes mom yes
velocity all create 340 126342 dist gaussian rot yes mom yes
fix nvt all nvt temp ${TEMP} ${TEMP} $(100*dt)
fix nvt all nvt temp 340 ${TEMP} $(100*dt)
fix nvt all nvt temp 340 340 $(100*dt)
fix nvt all nvt temp 340 340 0.2000000000000000111
run 5000
Neighbor list info ...
  update: every = 1 steps, delay = 0 steps, check = yes
  max neighbors/atom: 2000, page size: 100000
  master list distance cutoff = 8
  ghost atom cutoff = 8
  binsize = 8, bins = 3 3 4
  1 neighbor lists, perpetual/occasional/extra = 1 0 0
  (1) pair allegro/kk, perpetual
      attributes: full, newton on, kokkos_device
      pair build: full/bin/kk/device
      stencil: full/bin/3d
      bin: kk/device
Per MPI rank memory allocation (min/avg/max) = 3.592 | 3.592 | 3.592 Mbytes
    PotEng          Fmax          Fnorm          S/CPU         CPULeft    
-807708.43      1.5956021      37.034135      0              0            
-807644.39      3.1340201      45.878017      2.3514484      2122.0973    
-807633.91      2.497723       36.2989        35.433081      1129.1956    
-807607.9       2.8691133      37.685913      35.97498       797.33594    
-807604.48      4.0440999      49.933457      35.923514      631.31652    
-807566.34      3.3823982      40.187741      35.881553      531.62574    
-807596.68      2.713878       39.571988      36.029612      464.97803    
-807643.74      3.3849797      33.156274      36.024762      417.29586    
-807682.44      2.4694086      34.280425      35.978008      381.48701    
-807665.84      3.4498489      34.904702      35.966883      353.57861    
-807650.31      3.4641215      35.620374      36.009605      331.18013    
-807659.49      2.4562851      28.523591      36.02178       312.79941    
-807628.68      2.6334632      31.55297       36.000542      297.44257    
-807585.16      2.9924404      40.245377      36.006191      284.40394    
-807564.91      2.9744235      39.065887      36.026865      273.18276    
-807627.73      3.66328        35.184187      35.99703       263.42817    
-807650.2       3.0784089      31.744828      35.935487      254.87256    
-807661.57      3.5243408      34.951081      36.00285       247.27599    
-807642.7       4.6945698      45.954374      35.981851      240.49691    
-807678.91      3.0024611      37.045146      36.012349      234.39625    
-807641.3       3.808913       39.969573      35.98271       228.88336    
-807616.48      3.1653918      39.205169      35.998713      223.86623    
-807560.61      3.5550426      46.226449      36.026412      219.2753     
-807602.18      3.9575122      50.008086      36.001347      215.06345    
-807609.15      3.9318133      38.895893      35.973507      211.18372    
-807635.84      2.9000506      36.564657      36.050795      207.58079    
-807639.25      4.7920332      45.309731      36.1092        204.2255     
-807679.94      3.0586271      38.25993       36.068122      201.10376    
-807660.55      4.4238046      36.010473      35.974293      198.19738    
-807636.55      2.9893417      33.09794       36.011525      195.46761    
-807606.46      3.4544258      34.832286      36.040441      192.89782    
-807604.51      3.7448211      42.118051      36.039343      190.47604    
-807591.92      3.2113261      38.208296      35.934946      188.20009    
-807602.19      2.6782897      34.148125      36.058312      186.03172    
-807636.33      3.4881215      31.660429      36.111841      183.96896    
-807670.36      2.4485199      32.444933      36.121552      182.00726    
-807673.82      2.4015726      33.877091      36.017404      180.14948    
-807641.39      4.3945566      39.194972      36.031906      178.37571    
-807646.5       3.5272701      32.645894      36.070112      176.67711    
-807622.63      3.9257887      35.321798      36.044151      175.05377    
-807598.96      4.2376057      44.012994      35.986164      173.50287    
-807562.73      4.1079349      43.67797       36.036096      172.00976    
-807616.59      3.1035368      37.673259      36.077482      170.57106    
-807643.34      4.421975       36.566112      36.065442      169.18736    
-807668.37      2.8861711      35.915719      36.085038      167.8524     
-807637.39      4.517725       47.467184      36.08341       166.56458    
-807664.33      3.2935569      36.468794      36.047382      165.32343    
-807643.41      3.6292398      37.329542      36.005575      164.1264     
-807624.51      3.675685       37.963415      36.036894      162.9654     
-807564.02      4.6700504      44.079671      36.059946      161.83883    
-807593.82      3.8734083      45.13035       36.027038      160.74851    
-807615.08      3.7324369      36.88453       36.038608      159.68928    
-807647.59      2.8362848      33.719181      36.157729      158.65224    
-807635.81      4.568759       42.629228      36.136302      157.64528    
-807668.87      2.895507       35.149348      36.053699      156.6706     
-807662.14      2.8945649      35.207313      35.953002      155.72757    
-807643         2.9960695      32.218125      35.980079      154.80661    
-807601.55      3.4634839      35.916641      36.051684      153.90394    
-807596.68      3.9252049      38.636483      36.091351      153.0205     
-807599.68      4.7512891      41.455978      36.050568      152.15996    
-807611.74      3.6528563      34.659703      36.065233      151.31803    
-807628.48      3.2381234      34.361469      36.063588      150.4947     
-807658         3.5401803      34.693574      36.127321      149.68553    
-807672.57      2.741688       36.385783      36.036241      148.89812    
-807644.63      5.0092826      39.660737      36.06417       148.12518    
-807634.07      2.9608683      34.809461      36.08985       147.36616    
-807614.41      4.3019568      36.894551      36.078846      146.62231    
-807604.83      3.9550848      45.139987      36.04986       145.89383    
-807573.77      4.5499994      42.53947       36.043453      145.17893    
-807608.33      4.3133382      38.593317      36.137762      144.47218    
-807637.71      4.0945917      38.07636       36.041593      143.78226    
-807669.91      3.1428156      36.605006      35.961959      143.10767    
-807646.19      4.9734307      42.563427      36.06695       142.43928    
-807650.74      3.2253199      36.907872      36.046756      141.78252    
-807642.13      3.698771       36.249355      36.074565      141.13478    
-807628.94      3.4963705      37.410019      36.062944      140.49742    
-807578.91      3.8041438      39.823892      36.099977      139.86795    
-807585.97      3.5445568      41.171467      36.159939      139.24512    
-807618.79      3.3817478      34.498082      36.068176      138.63497    
-807653.86      2.6633769      31.540112      36.098894      138.03199    
-807645.83      3.7093587      36.713258      36.065087      137.43852    
-807654.9       3.2636986      35.785701      36.070484      136.85265    
-807662.73      2.7765979      33.817595      35.976471      136.27799    
-807646.27      3.8912763      32.219949      36.051775      135.70757    
-807608.83      2.8986951      35.306512      36.065369      135.14361    
-807586.83      4.1519222      38.460059      36.122764      134.58424    
-807603.19      3.8842997      40.60092       36.069276      134.03342    
-807620.83      3.0100637      33.263905      36.099895      133.48778    
-807635.02      2.9927027      33.250637      36.071983      132.94924    
-807646.55      3.5805775      37.104624      36.11942       132.41489    
-807669.7       2.6044324      35.633851      36.080201      131.88763    
-807650.53      3.5551524      36.831228      35.966395      131.36981    
-807634.36      3.4374133      34.073319      36.04868       130.8544     
-807605.69      4.3839754      37.880813      36.070021      130.34338    
-807606.4       3.8766652      43.783908      36.057077      129.83777    
-807591.39      4.5561523      39.602543      36.039406      129.33754    
-807610.03      3.2062096      36.873493      36.006616      128.84301    
-807633.22      3.3435768      36.457204      36.123575      128.34922    
-807665.21      3.0714971      36.178169      36.073138      127.86145    
-807654.16      3.4080722      38.065428      35.986608      127.38063    
-807645.67      3.0293892      35.74911       36.020303      126.90282    
-807634.14      3.7950453      35.185841      36.043643      126.42827    
-807625.52      3.7939464      37.1017        36.077237      125.95658    
-807591.25      3.6923784      39.558529      36.162998      125.48613    
-807584.78      3.471871       40.289636      36.046193      125.02283    
-807615.55      3.1341527      34.929895      36.083447      124.56198    
-807650.73      3.3988959      33.806178      36.090759      124.1044     
-807654.73      3.810208       36.058782      36.08985       123.65021    
-807647.47      4.1960462      37.818248      36.146848      123.19772    
-807654.12      2.6876605      34.201574      36.002733      122.75242    
-807643.04      2.7700734      33.006236      36.060073      122.30861    
-807612.83      3.5395092      35.931586      36.040894      121.86831    
-807579.41      3.2975653      39.612718      36.137871      121.42834    
-807599.73      3.3795653      38.40872       36.018002      120.99442    
-807622.98      3.8044393      35.954775      36.043162      120.56258    
-807642.61      3.0970534      34.186428      35.98337       120.13497    
-807640.82      4.9511194      40.266159      36.03547       119.70861    
-807662.64      3.2520228      36.083625      36.019642      119.28519    
-807650.04      3.2867107      37.594685      36.046465      118.86357    
-807633.61      3.9342443      35.226466      36.046846      118.44438    
-807597.28      4.8980232      39.572107      36.024744      118.02808    
-807599.17      3.9716466      41.077196      36.057422      117.61328    
-807599.53      3.9345176      39.169486      36.029939      117.2014     
-807619.46      3.5274516      34.993011      36.015547      116.79204    
-807630.68      4.1470487      36.42358       36.100596      116.38282    
-807659.44      3.0702866      34.306307      36.121634      115.97523    
-807657.46      3.0571505      35.852739      36.02343       115.57196    
-807647.2       2.9884161      34.325374      36.042518      115.17024    
-807624.98      3.3417426      35.032973      36.040749      114.77049    
-807618.18      3.3620619      36.063201      36.055606      114.37232    
-807598.67      3.3739244      39.103711      36.031444      113.97653    
-807594.44      3.1457775      38.923886      35.972187      113.58383    
-807611.96      3.3835811      36.364716      35.890188      113.19465    
-807646.91      4.4196131      34.86858       36.053645      112.80364    
-807656.29      3.6042351      36.497561      36.049978      112.4144     
-807647.57      4.1581004      38.15035       35.997781      112.02791    
-807643.71      3.7333107      36.330279      36.045013      111.64204    
-807635.93      3.2579487      35.273117      36.03197       111.25802    
-807617.96      3.2544086      37.125236      36.06308       110.87492    
-807586.01      3.9514344      39.745085      35.993582      110.49473    
-807597.5       2.9986288      38.639442      36.076319      110.11436    
-807624.56      3.3168272      35.389322      36.036504      109.73624    
-807645.86      3.7032147      34.944947      35.96196       109.36098    
-807643.54      3.6624708      37.465762      35.971473      108.9869     
-807653.28      3.2846462      35.64312       36.030319      108.61303    
-807648.75      4.0484934      35.779863      36.01831       108.24072    
-807637.05      2.7586934      34.023163      36.019751      107.86967    
-807601.95      3.7919778      37.315209      36.093907      107.49853    
-807595.85      3.5993601      39.233922      36.013527      107.13013    
-807606.95      3.8918708      37.796783      36.064043      106.76203    
-807627.19      2.7722262      35.40995       36.091287      106.39466    
-807634.59      3.7848761      36.305878      36.062353      106.02899    
-807652.43      3.05719        35.267935      36.056169      105.6646     
-807656.81      3.1020637      36.253588      35.883757      105.30436    
-807647.1       2.8989908      34.850257      35.986978      104.94339    
-807623.48      3.7071009      35.699036      36.082674      104.58185    
-807610.34      3.6983015      36.133795      36.065605      104.22169    
-807602.33      4.1350415      39.079274      36.03372       103.86311    
-807606.8       3.5318106      37.105399      36.085038      103.50471    
-807618.76      3.6328728      34.964568      36.074483      103.1475     
-807641.09      3.1591801      34.892545      36.107797      102.79075    
-807659.04      2.9282623      35.458845      36.036014      102.43615    
-807651.89      4.2475964      36.772954      36.061781      102.08209    
-807639.09      3.8042276      35.832777      35.987186      101.73016    
-807631.15      3.2770162      34.418152      36.095563      101.37742    
-807617.23      3.5819964      37.058576      36.04603       101.02638    
-807595.82      3.0276287      39.048449      36.016851      100.67667    
-807598.8       3.1434391      38.057877      36.040041      100.32747    
-807626.33      3.5720507      34.493905      36.063979      99.978763    
-807648.94      3.2484831      35.074967      36.015384      99.631631    
-807649.03      3.8115816      36.675267      35.921117      99.286731    
-807646.69      3.8179376      36.715027      36.030147      98.940988    
-807644.19      3.2915482      34.790522      35.953309      98.59717     
-807634.42      3.9095065      35.066293      36.073301      98.252362    
-807605.61      3.2954995      37.733937      36.033865      97.908899    
-807593.13      3.5952212      38.094688      36.028307      97.56627     
-807607.91      3.4718134      37.614924      35.944039      97.225577    
-807631.68      3.0953657      35.020798      36.000777      96.884791    
-807638.49      3.8667563      36.297597      35.93703       96.545604    
-807645.58      3.7801728      37.033344      36.024055      96.205892    
-807652.54      2.9255128      36.576254      35.756044      95.870569    
-807643.87      4.2516018      36.287141      36.016326      95.5323      
-807622.04      3.7195696      36.240479      36.047246      95.19428     
-807602.27      3.2532749      37.282304      36.065078      94.856685    
-807600.72      3.3114274      39.554011      36.087939      94.519444    
-807610.21      3.4712475      38.042706      36.076364      94.183005    
-807622.99      3.2420015      36.139158      36.049878      93.847546    
-807639.21      3.4648954      35.645962      36.053109      93.512667    
-807653.46      2.9776484      36.215914      36.084447      93.178       
-807650.23      3.5116679      35.529353      35.963242      92.845478    
-807637.35      3.4808925      35.538214      36.040686      92.512556    
-807620.33      4.387138       35.619381      36.027565      92.180377    
-807612.15      3.1099808      37.373235      35.973192      91.84944     
-807598.65      3.5402526      38.874649      35.964617      91.519157    
-807605.31      4.1512928      36.957276      36.046367      91.188418    
-807623.97      3.5330958      35.363084      36.005414      90.85872     
-807646.93      3.6432423      35.148376      36.01833       90.529398    
-807648.98      3.4058407      36.712822      36.100907      90.199623    
-807646.03      3.8826558      36.494841      36.101244      89.870378    
-807634.99      3.8270598      36.607225      36.064144      89.542087    
-807627.42      3.4733913      34.872829      36.101644      89.213876    
-807608.7       3.6771442      37.794864      36.022453      88.88708     
-807595.66      3.6540145      38.891796      36.032896      88.560652    
-807607.27      3.2232916      37.826121      36.086904      88.234098    
-807631.77      3.0330598      35.11845       36.112571      87.907744    
-807643.07      3.2958845      35.769572      36.111296      87.581886    
-807642.65      3.0570898      37.033444      36.084394      87.256797    
-807645.04      3.4462138      36.295342      36.015023      86.932928    
-807641.72      3.9113195      34.521596      35.962847      86.610068    
-807624.8       3.0139381      34.753718      36.049834      86.286703    
-807602.67      4.1798057      37.246963      36.045668      85.96382     
-807601.67      3.2458023      38.173666      35.991548      85.641939    
-807614.97      3.6095634      36.103164      36.067351      85.319681    
-807631.66      3.2845205      34.748804      36.026522      84.998268    
-807638.47      3.4030481      35.199073      35.969433      84.677854    
-807648.78      3.1231816      35.377059      36.072676      84.356778    
-807647.22      3.0044265      35.109675      36.067424      84.036164    
-807639.93      2.8876646      33.889374      36.03919       83.716231    
-807616.54      2.8402125      35.076203      36.089779      83.396185    
-807607.91      3.0091581      37.499751      36.074294      83.076684    
-807606.4       3.1712476      37.739797      36.064708      82.757661    
-807615.62      3.1916879      36.25173       36.092662      82.438744    
-807628.24      3.7708014      35.543136      36.064953      82.120472    
-807644.6       3.5509951      35.258992      35.989567      81.803288    
-807650.15      4.0504058      35.723899      36.034102      81.486032    
-807645.45      3.8744256      35.598733      35.982223      81.169619    
-807631.57      3.3410672      34.551848      36.03373       80.853065    
-807620.84      3.5525827      35.051024      36.094055      80.536297    
-807610.04      3.8476857      37.9075        36.097039      80.21985     
-807605.55      3.6069159      37.269682      36.044407      79.904226    
-807613.22      2.9414414      36.299089      36.129766      79.588164    
-807633.09      3.0257113      34.951759      36.054863      79.273112    
-807647.48      2.6953164      34.987778      36.118784      78.957818    
-807646.18      3.8480152      35.542598      36.039227      78.643555    
-807640.62      3.1616975      35.151864      36.074839      78.329294    
-807632.77      3.2139743      34.480831      36.092763      78.015194    
-807622.06      3.3354611      35.584075      36.078457      77.70153     
-807604.97      2.5691147      36.550055      36.114784      77.387865    
-807603.65      3.4017736      37.610404      36.074712      77.074848    
-807617.03      4.0458086      36.694536      35.99106       76.762833    
-807636.64      3.230321       34.752023      35.966966      76.451306    
-807639.66      3.1349257      36.206698      35.973996      76.139997    
-807644.27      3.409828       35.891136      36.027728      75.828522    
-807641.59      3.0256866      36.045061      36.05795       75.517081    
-807632.93      3.6753758      35.17711       36.042139      75.206047    
-807613.05      3.5395312      36.855166      36.002055      74.895607    
-807603.59      3.1677179      37.418238      36.084376      74.58478     
-807605.47      4.162941       38.402785      35.986139      74.275       
-807621.24      2.9763466      35.693559      36.069168      73.964828    
-807631.32      3.7374091      35.337006      36.100097      73.65468     
-807642.43      3.4234586      34.968359      36.068451      73.345041    
-807645.52      3.4230561      36.043942      36.033132      73.035929    
-807643.07      3.0704225      35.584161      35.931025      72.727845    
-807628.19      3.0151048      35.375503      36.061301      72.419014    
-807612.92      3.4004738      36.312547      36.094055      72.110187    
-807606.86      3.1941502      38.024115      36.028018      71.802098    
-807607.36      3.1316201      37.449529      35.963443      71.494722    
-807618.6       3.0426719      35.762747      36.020559      71.187157    
-807632.94      3.7931814      35.022525      36.032515      70.879738    
-807644.79      2.6233555      35.789208      36.05263       70.572407    
-807645.68      3.3931841      35.664859      36.086786      70.265062    
-807637.5       3.5194636      35.388912      36.038274      69.958292    
-807626.19      3.7824746      35.693964      36.078902      69.651461    
-807617.71      3.6096771      37.02233       36.060112      69.344985    
-807607.23      3.640037       37.992324      36.099096      69.038463    
-807603.64      3.1597105      37.866577      36.097167      68.732177    
-807622.15      3.9512277      35.784542      36.137992      68.425835    
-807638.79      3.1635149      34.288384      36.07653       68.120127    
-807643.26      4.1017086      35.266926      36.072531      67.814658    
-807641.4       4.4374458      36.133728      36.046376      67.509572    
-807639.54      3.9516022      35.171032      36.026677      67.20482     
-807630.02      2.9480347      34.497065      36.069132      66.899992    
-807615.48      3.8064214      36.490825      36.070032      66.595362    
-807603.42      3.3726729      37.206896      36.127122      66.290568    
-807610.99      3.7823285      36.448033      36.048037      65.986479    
-807625.42      3.4298434      34.573955      35.995801      65.682914    
-807637.39      3.2850766      34.500087      36.059176      65.379138    
-807640.98      3.5926027      35.333562      36.060956      65.075543    
-807644.84      3.0951415      35.06404       36.079548      64.772023    
-807641.16      3.5999893      34.343154      36.036143      64.468957    
-807627.2       3.7642685      35.228647      36.075166      64.165836    
-807611.42      2.5632259      35.683935      36.135575      63.86254     
-807607.87      2.7091518      35.567066      36.147288      63.559362    
-807615.95      3.8918016      35.921581      36.078121      63.256779    
-807626.32      2.8329081      33.561563      36.075157      62.954392    
-807634.85      3.3330927      34.174132      36.126111      62.651887    
-807643.84      4.0867606      34.281212      36.051186      62.349991    
-807645.53      3.5136022      34.260377      35.882023      62.049238    
-807634.6       4.0866231      35.024472      36.029587      61.747797    
-807622.88      3.1811718      34.450546      36.073285      61.446276    
-807611.98      3.023301       36.290418      36.08775       61.144842    
-807612.14      3.2049189      36.763649      36.069505      60.843676    
-807612.65      3.2554146      36.485775      36.074194      60.542648    
-807624.76      3.4151752      35.882426      36.117955      60.241546    
-807637.21      3.3986106      35.889695      36.057287      59.940935    
-807642.12      2.94851        35.375665      36.050415      59.640518    
-807638.94      3.5985941      35.728596      36.126421      59.339855    
-807631.49      2.8876247      35.07877       36.116716      59.039403    
-807622.97      3.6841481      35.333028      36.084458      58.739278    
-807614.7       3.3475096      35.18888       36.067397      58.439394    
-807607.3       2.9302151      36.089288      36.094318      58.139523    
-807613.13      3.9332791      35.531854      36.04712       57.840044    
-807627.49      3.1493375      34.558826      36.044543      57.540723    
-807637.93      2.8546197      34.595529      36.020151      57.24167     
-807639.61      3.7504418      35.552779      36.057741      56.942571    
-807638.02      3.1616294      35.31751       36.037023      56.643716    
-807633.54      3.2898433      35.018376      36.011554      56.345126    
-807623.58      3.6469622      35.669414      36.045832      56.046505    
-807608.71      3.5396543      37.163805      36.063209      55.747939    
-807606.52      4.6298582      37.981318      36.134343      55.449173    
-807616.01      3.4798076      36.268474      36.070004      55.150852    
-807628.35      3.5381872      35.047963      36.06587       54.852691    
-807634.93      3.6935107      35.18075       36.043962      54.554755    
-807640         4.0676088      36.119399      36.078157      54.256798    
-807642         3.0489881      35.100869      36.153075      53.958633    
-807631.4       4.6898604      35.610525      36.098996      53.660849    
-807619.02      3.2020612      35.588635      36.11024       53.363146    
-807609.56      3.5689116      36.697749      36.065316      53.065772    
-807611.53      3.1592972      36.398667      36.091079      52.768413    
-807617.08      3.1460591      35.883225      36.011744      52.471526    
-807629.43      4.4980479      34.589807      35.93006       52.175115    
-807638.94      2.9652474      34.229637      35.951406      51.878724    
-807643.36      3.744951       34.344783      36.010395      51.582194    
-807639.3       2.574822       33.879279      35.856862      51.286433    
-807630.56      3.3727598      33.841917      36.117217      50.989684    
-807620.03      2.8787076      35.262383      36.102446      50.693118    
-807611.77      4.1117104      36.542494      36.097931      50.396691    
-807611.3       3.1417831      36.054015      36.133687      50.100238    
-807619.18      4.7913521      35.274453      36.064798      49.804181    
-807631.48      3.8477075      34.545538      36.095146      49.508118    
-807639.49      4.5201066      35.561411      36.068641      49.212275    
-807642.64      3.043287       34.591524      36.109584      48.916384    
-807634.38      4.6860278      36.088126      36.076984      48.620733    
-807629.89      3.0204186      34.78708       36.061992      48.325252    
-807619.77      3.4445289      34.885508      36.141056      48.029577    
-807612.48      2.748648       36.156165      36.066306      47.734299    
-807611.15      3.5172504      35.943802      36.093918      47.439024    
-807624.43      2.6633491      34.355356      36.060112      47.143983    
-807633.86      3.8512953      34.495736      36.037095      46.849131    
-807638.64      2.9235031      34.033746      36.053302      46.554323    
-807639.19      3.2928292      35.221589      35.953328      46.25998     
-807636.34      2.8397049      34.299285      36.093236      45.96523     
-807629.77      3.1154303      34.098742      36.138584      45.670423    
-807617.77      2.9666975      35.583652      36.073567      45.375949    
-807610.82      3.4061058      36.556215      36.116843      45.081425    
-807615.26      3.0089726      35.711133      36.070131      44.787164    
-807623.63      3.3733042      35.291763      36.112097      44.492859    
-807630.72      2.8357443      35.399844      36.074675      44.19878     
-807637.02      3.554497       35.271847      35.843416      43.905579    
-807639.38      3.1077554      35.213985      35.990671      43.611967    
-807635.82      3.6846283      35.636913      36.17857       43.317825    
-807626.98      3.2179736      34.682021      36.080139      43.024105    
-807614.77      2.873439       35.229569      36.216703      42.730039    
-807612.92      2.9767022      36.162261      36.194465      42.436146    
-807616.54      3.1479311      35.839276      36.21423       42.14229     
-807623.23      3.6215946      34.976095      36.211281      41.848543    
-807633.6       3.221586       34.840101      36.170902      41.55502     
-807639.06      4.4263225      35.304529      36.140509      41.261685    
-807640.06      3.6616248      35.109999      36.061583      40.968684    
-807632.84      4.1574011      35.185775      36.185199      40.675398    
-807625.38      3.9898213      34.367685      36.269978      40.381954    
-807614.75      4.2470666      36.265371      36.236464      40.088707    
-807613.42      3.1531791      35.674274      36.1997        39.795663    
-807614.55      3.2988247      35.889527      36.266395      39.502519    
-807626.02      3.1139085      34.437855      36.219186      39.209605    
-807632.13      3.2446022      35.676244      36.245463      38.91671     
-807639.58      2.4858195      35.372932      36.28165       38.623806    
-807638.41      3.422338       35.218147      36.211116      38.331192    
-807631.34      3.0606055      35.966143      36.245876      38.038571    
-807624.37      3.6414949      35.338778      36.221559      37.746107    
-807614.75      3.0552612      36.498613      36.229899      37.45371     
-807612.15      3.1782992      36.283939      36.209706      37.161454    
-807615.22      2.9667596      36.247576      36.257588      36.869159    
-807626.67      3.3940142      34.532158      36.209193      36.577078    
-807634.42      3.0472787      35.231213      36.12282       36.285305    
-807637.69      3.116047       35.557828      36.218508      35.993367    
-807637.82      3.1257418      35.590348      36.237106      35.701467    
-807633.99      3.2111167      35.269498      36.21597       35.409704    
-807622.23      3.1367254      35.921782      36.226874      35.117997    
-807614.31      3.0376281      36.303105      36.22549       34.826376    
-807614.03      3.0179433      36.044747      36.243738      34.534793    
-807617.31      4.0977909      36.200465      36.221229      34.243346    
-807627.11      3.0340888      35.37845       36.23685       33.951943    
-807633.48      3.1411025      35.404066      36.202921      33.660699    
-807638.98      3.6456272      35.447067      36.179622      33.369588    
-807638.49      3.3646668      35.284009      36.121763      33.078685    
-807630.5       3.2889994      34.884709      36.063263      32.787987    
-807621.13      4.2934998      36.268943      36.119613      32.497233    
-807614.04      3.6182906      36.23495       36.259204      32.206242    
-807614.66      4.1054689      36.310974      36.397648      31.91503     
-807619         3.4093216      35.503785      36.374882      31.623951    
-807626.23      3.9141482      36.282711      36.330396      31.333049    
-807636.71      3.1067577      35.603341      36.317117      31.042254    
-807641.51      4.0859955      36.273987      36.326248      30.751519    
-807632.5       2.9339125      36.603647      36.122638      30.46128     
-807629.99      3.4548024      35.835607      36.155037      30.171043    
-807617.82      3.5149228      36.959766      36.195563      29.880793    
-807614.96      3.3508596      36.458756      36.243729      29.590519    
-807611.86      3.0677799      37.012017      36.265421      29.300274    
-807621.64      3.5531572      35.598424      36.205924      29.010217    
-807628.65      3.8223031      36.186126      36.247005      28.720151    
-807639.25      4.0133801      35.180823      36.206519      28.430232    
-807637.23      3.2233684      35.781975      36.175956      28.140438    
-807635.77      4.7909139      35.5192        36.109811      27.850832    
-807629.11      3.6385863      35.699914      36.19527       27.561134    
-807620.39      3.0142708      35.976759      36.268241      27.271371    
-807612.67      3.710528       37.050485      36.286744      26.981645    
-807614.12      3.8357891      37.006773      36.307152      26.691953    
-807623.39      3.6047457      36.127957      36.217207      26.402485    
-807631.01      3.2181435      35.871807      36.235089      26.113053    
-807633.71      3.3503541      36.989021      36.197631      25.823748    
-807637.82      3.7422652      35.768246      36.271145      25.534386    
-807636.15      3.9982701      35.027934      36.201777      25.245203    
-807626.94      3.0284199      35.380002      36.263612      24.955984    
-807616.79      3.2356954      36.023919      36.301979      24.666768    
-807615.53      2.8815227      35.814104      36.340428      24.37756     
-807617.79      3.7330761      36.382026      36.236473      24.088578    
-807621.41      3.0524168      36.009913      36.219946      23.799684    
-807629.97      3.8957526      35.247765      36.151048      23.510955    
-807635.42      3.5475574      35.631909      36.146029      23.22229     
-807638.77      2.9199104      34.996377      36.128362      22.933709    
-807631.22      3.3326972      36.395131      36.066306      22.645273    
-807624.65      2.8555177      35.993247      36.267979      22.356605    
-807616.16      3.0830542      36.544533      36.216412      22.068069    
-807617.5       3.0800699      36.529259      36.239695      21.77956     
-807615.3       2.9715293      36.429158      36.221909      21.491135    
-807623.01      2.9122541      36.274976      36.229764      21.202757    
-807631.95      3.2439552      35.791419      36.209918      20.914463    
-807640         2.8197992      35.079047      36.245814      20.626179    
-807634.34      2.827143       35.356405      36.158765      20.338063    
-807631.76      3.5289761      35.127845      36.209085      20.049938    
-807623.59      3.1169041      35.573723      36.254891      19.761813    
-807617.93      3.1727419      36.176993      36.159742      19.473859    
-807612.09      3.5253151      36.693262      36.068307      19.186067    
-807616.78      2.9676657      35.824313      36.243997      18.898118    
-807626.39      2.9044471      35.40248       36.082177      18.61041     
-807633.5       4.4440158      36.610725      36.071197      18.322762    
-807636.18      3.3366914      35.99877       36.178783      18.035043    
-807636.53      3.2438656      36.271455      36.278508      17.747269    
-807632.86      2.9471677      35.422353      36.278885      17.459549    
-807624.32      2.8738454      35.521179      36.248007      17.171916    
-807614.25      4.1500928      36.340415      36.234614      16.884351    
-807613.45      3.0942317      36.430464      36.36005       16.596712    
-807615.42      3.6246619      37.132641      36.274344      16.309214    
-807626.93      2.8189308      35.481812      36.220526      16.021822    
-807632.84      2.7315787      36.108066      36.256754      15.734445    
-807635.94      3.3484108      35.735781      36.293957      15.447087    
-807636.75      4.9994895      36.383959      36.215926      15.159852    
-807631.47      3.0433328      35.138592      36.247089      14.872639    
-807619.91      2.7562181      35.89571       36.219261      14.5855      
-807616.25      3.2202807      35.786983      36.230488      14.298401    
-807614.6       2.895947       36.546091      36.157523      14.011412    
-807618.62      2.7574288      36.057106      36.174532      13.724454    
-807626.97      3.3913169      35.259752      36.161376      13.437554    
-807634.38      3.3024034      35.764531      36.207803      13.150664    
-807635.25      3.033307       36.850123      36.245071      12.863792    
-807636.54      2.9066474      35.435774      36.087134      12.577086    
-807629.61      4.2667583      35.891012      36.180483      12.290353    
-807621.37      2.9300149      35.931191      36.223879      12.003636    
-807616.72      3.6754268      36.554419      36.083932      11.717061    
-807616.83      3.098672       36.902584      36.105497      11.430512    
-807620.09      3.0568417      36.190833      36.16746       11.143965    
-807627.66      2.9851373      36.351481      36.219573      10.857429    
-807634.41      3.6195795      35.44212       36.237292      10.570927    
-807637.38      3.0409317      34.714015      36.217429      10.284482    
-807635.21      3.0149714      35.235876      36.176159      9.9981054    
-807630.4       3.2563108      34.434092      36.170521      9.7117746    
-807621.4       2.8908518      34.607826      36.167752      9.4254875    
-807619.89      3.9226815      34.649937      36.211411      9.1392195    
-807616.23      2.6498243      35.155658      36.168273      8.8530164    
-807621.52      3.096095       35.094975      36.224228      8.5668274    
-807629.76      3.1115999      34.40104       36.238897      8.2806745    
-807635.21      2.7889867      34.695042      36.230076      7.9945689    
-807635.51      3.1678828      35.425586      36.28842       7.7084806    
-807636.79      2.9986275      34.508083      36.237631      7.4224578    
-807628.89      3.7588298      35.844415      36.234201      7.1364789    
-807624.28      3.8173415      36.106802      36.277239      6.8505254    
-807615.84      3.1517696      36.459856      36.190186      6.564647     
-807618.04      3.5991706      36.080321      36.247658      6.2787885    
-807622.61      3.8414493      36.793398      36.243795      5.992973     
-807630.09      3.7187515      35.845713      36.23543       5.7072014    
-807632.85      4.7230795      36.128715      36.187689      5.4214849    
-807636.12      3.4589648      36.050273      36.245649      5.1357908    
-807634.44      3.6121625      35.71749       36.255258      4.8501348    
-807627.04      3.2887602      35.70564       36.221552      4.5645278    
-807619.12      4.3615335      36.499343      36.243575      4.278955     
-807616.16      3.2275175      36.969006      36.225034      3.993426     
-807618.52      3.0571232      35.997588      36.240245      3.7079328    
-807621         3.5885056      36.979454      36.206668      3.422485     
-807630.27      2.8397486      35.63369       36.246887      3.1370683    
-807634.39      3.2402522      36.271992      36.231652      2.8516928    
-807634.27      3.0401977      36.014247      36.279593      2.5663488    
-807632.49      3.1220352      35.682081      36.285514      2.2810435    
-807624.3       3.2451472      36.369784      36.174843      1.9957896    
-807619.52      3.3200762      36.819858      36.213774      1.7105678    
-807616.78      3.4568148      37.36933       36.325531      1.4253741    
-807616.34      3.0085762      36.960473      36.217694      1.140227     
-807622.96      3.3685287      36.134863      36.255552      0.85511447   
-807628.34      3.079151       36.222634      36.079741      0.57004469   
-807634.89      4.0276895      36.399181      36.088571      0.28500646   
-807633.31      3.3062714      36.577072      36.190634      0            
Loop time of 142.495 on 64 procs for 5000 steps with 1080 atoms

Performance: 6.063 ns/day, 3.958 hours/ns, 35.089 timesteps/s, 37.896 katom-step/s
88.5% CPU use with 64 MPI tasks x 1 OpenMP threads

MPI task timing breakdown:
Section |  min time  |  avg time  |  max time  |%varavg| %total
---------------------------------------------------------------
Pair    | 68.84      | 94.232     | 138.22     | 219.1 | 66.13
Neigh   | 0          | 0          | 0          |   0.0 |  0.00
Comm    | 1.8048     | 45.792     | 71.177     | 314.3 | 32.14
Output  | 0.030492   | 0.036776   | 0.038644   |   0.7 |  0.03
Modify  | 2.0623     | 2.0833     | 2.1197     |   0.9 |  1.46
Other   |            | 0.351      |            |       |  0.25

Nlocal:         16.875 ave          32 max           7 min
Histogram: 16 0 16 16 0 0 0 0 8 8
Nghost:        883.125 ave         893 max         868 min
Histogram: 8 8 0 0 0 0 16 16 0 16
Neighs:              0 ave           0 max           0 min
Histogram: 64 0 0 0 0 0 0 0 0 0
FullNghs:      2747.25 ave        5264 max        1126 min
Histogram: 16 0 16 16 0 0 0 0 8 8

Total # of neighbors = 175824
Ave neighs/atom = 162.8
Neighbor list builds = 0
Dangerous builds = 0

reset_timestep 0


variable interval equal 1000
thermo 10

variable nintervals equal $(v_PERIOD/v_interval)
variable nintervals equal 100
variable efield equal 1e-2*36.36*cos((step/${PERIOD})*2*3.14)
variable efield equal 1e-2*36.36*cos((step/100000)*2*3.14)
fix born all addbornforce 0.0 0.0 v_efield

variable Px equal f_born[1]+c_polarization[1]
variable Py equal f_born[2]+c_polarization[2]
variable Pz equal (f_born[3]+c_polarization[3])/vol
variable pe equal pe

fix aveP all ave/time 1 $(v_interval/2) ${interval} v_efield v_Pz v_pe f_born file Pz.${MODEL}.${STRUCTURE}.${TEMP}.$L
fix aveP all ave/time 1 500 ${interval} v_efield v_Pz v_pe f_born file Pz.${MODEL}.${STRUCTURE}.${TEMP}.$L
fix aveP all ave/time 1 500 1000 v_efield v_Pz v_pe f_born file Pz.${MODEL}.${STRUCTURE}.${TEMP}.$L
fix aveP all ave/time 1 500 1000 v_efield v_Pz v_pe f_born file Pz.BaTiO3-E0.${STRUCTURE}.${TEMP}.$L
fix aveP all ave/time 1 500 1000 v_efield v_Pz v_pe f_born file Pz.BaTiO3-E0.BaTiO3-sc333.${TEMP}.$L
fix aveP all ave/time 1 500 1000 v_efield v_Pz v_pe f_born file Pz.BaTiO3-E0.BaTiO3-sc333.340.$L
fix aveP all ave/time 1 500 1000 v_efield v_Pz v_pe f_born file Pz.BaTiO3-E0.BaTiO3-sc333.340.2

thermo_style custom step time temp press pe f_born v_efield v_Pz spcpu cpuremain

dump 4a all custom 100 dump.hyst.${MODEL}.${STRUCTURE}.${TEMP}.$L.bin id type xu yu zu fx fy fz
dump 4a all custom 100 dump.hyst.BaTiO3-E0.${STRUCTURE}.${TEMP}.$L.bin id type xu yu zu fx fy fz
dump 4a all custom 100 dump.hyst.BaTiO3-E0.BaTiO3-sc333.${TEMP}.$L.bin id type xu yu zu fx fy fz
dump 4a all custom 100 dump.hyst.BaTiO3-E0.BaTiO3-sc333.340.$L.bin id type xu yu zu fx fy fz
dump 4a all custom 100 dump.hyst.BaTiO3-E0.BaTiO3-sc333.340.2.bin id type xu yu zu fx fy fz
dump_modify 4a sort id

fix nvt all nvt temp ${TEMP} ${TEMP} $(100*dt)
fix nvt all nvt temp 340 ${TEMP} $(100*dt)
fix nvt all nvt temp 340 340 $(100*dt)
fix nvt all nvt temp 340 340 0.2000000000000000111

run $(v_PERIOD)
run 100000
WARNING: non-constant efield is experimental, strongly distrust scalar/vector output (src/fix_addbornforce.cpp:193)
Per MPI rank memory allocation (min/avg/max) = 3.608 | 3.609 | 3.609 Mbytes
   Step          Time           Temp          Press          PotEng         f_born        v_efield         v_Pz          S/CPU         CPULeft    
         0   0              333.61771      128305.88     -807633.31     -293.36646      0.3636         0.055173954    0              0            
        10   0.02           335.54597      130855.83     -807628.49     -298.54143      0.36359993     0.056147231    43.241202      2312.3961    
        20   0.04           357.0076       136693.8      -807626.13     -303.87281      0.36359971     0.057149947    45.163396      2262.9529    
        30   0.06           361.84183      141337.95     -807620.61     -310.14728      0.36359935     0.058330056    45.362068      2243.0907    
        40   0.08           341.02333      144734.36     -807613.4      -314.60134      0.36359885     0.059167822    45.392124      2232.687     
        50   0.1            350.31386      142473.93     -807616.59     -312.77641      0.36359821     0.058824708    45.431444      2225.9744    
        60   0.12           341.19532      136988.98     -807623.9      -304.29874      0.36359742     0.057230414    45.329712      2222.2498    
        70   0.14           345.09468      131817.22     -807632.18     -296.63031      0.36359649     0.05578833     45.352427      2219.367     
        80   0.16           329.90167      128503.65     -807632.41     -294.49776      0.36359541     0.055387419    45.358648      2217.1128    
        90   0.18           327.98191      129877.29     -807633.43     -293.3479       0.36359419     0.055171345    45.355846      2215.3257    
       100   0.2            345.25801      130725.21     -807633.07     -296.31296      0.36359283     0.055729206    45.434053      2213.4727    
       110   0.22           358.29503      137037.03     -807626.6      -304.7534       0.36359132     0.057316883    45.132774      2213.2512    
       120   0.24           338.7638       140859.38     -807617.63     -311.34892      0.36358968     0.05855761     45.367717      2212.0739    
       130   0.26           351.53176      143659.79     -807616.91     -314.02482      0.36358788     0.059061176    45.350502      2211.1084    
       140   0.28           343.95955      139818.96     -807622.18     -307.99289      0.36358595     0.057927012    45.374143      2210.1675    
       150   0.3            338.65006      137242.3      -807624.79     -304.85922      0.36358387     0.057337961    45.383448      2209.2924    
       160   0.32           337.18276      129977.76     -807632.27     -297.5773       0.36358165     0.055968718    45.435798      2208.3409    
       170   0.34           332.10788      128697.19     -807634.66     -294.65637      0.36357928     0.055419707    45.310304      2207.8333    
       180   0.36           325.6016       127567.14     -807635.65     -293.04536      0.36357677     0.055117084    45.35461       2207.2381    
       190   0.38           329.76842      132899.43     -807631.16     -298.34876      0.36357412     0.056114978    45.364181      2206.6579    
       200   0.4            341.05136      136326.99     -807624.24     -307.13917      0.36357132     0.057768767    45.383189      2206.0676    
       210   0.42           338.08552      142194.09     -807618.9      -312.21865      0.36356838     0.058724624    45.163039      2206.0228    
       220   0.44           326.42131      142301.01     -807618.87     -310.80684      0.3635653      0.058459575    45.330473      2205.5912    
       230   0.46           320.7378       140948.67     -807619.69     -309.28697      0.36356207     0.058174221    45.389721      2205.0529    
       240   0.48           332.41849      134602.96     -807626.6      -304.17877      0.3635587      0.057213942    45.395578      2204.5294    
       250   0.5            325.87058      131341.31     -807631.6      -298.22448      0.36355519     0.056094523    45.371684      2204.0764    
       260   0.52           326.45985      127154.16     -807638.49     -291.31468      0.36355153     0.054795375    45.367444      2203.6492    
       270   0.54           333.39364      128271.25     -807636.59     -294.18765      0.36354773     0.055336351    45.357542      2203.255     
       280   0.56           334.93906      132100.95     -807630.46     -300.64112      0.36354379     0.056550853    45.363433      2202.8631    
       290   0.58           340.47255      137593.73     -807624.54     -307.24072      0.3635397      0.057792893    45.379076      2202.4569    
       300   0.6            340.99351      139131.64     -807622.69     -309.12686      0.36353547     0.058148359    45.375322      2202.0691    
       310   0.62           319.95442      142709.54     -807617.19     -311.6552       0.3635311      0.058624659    45.171959      2202.0112    
       320   0.64           319.76027      140276.37     -807618.09     -310.73727      0.36352658     0.058452715    45.354323      2201.666     
       330   0.66           341.74404      134570.14     -807628.78     -302.95405      0.36352192     0.056989346    45.345331      2201.3412    
       340   0.68           330.79003      130024.56     -807633.96     -296.05956      0.36351712     0.055693144    45.398817      2200.9466    
       350   0.7            331.68838      127032.86     -807636.8      -293.22166      0.36351217     0.055160044    45.315094      2200.6779    
       360   0.72           335.88247      129337.67     -807634.14     -296.35786      0.36350708     0.055750799    45.386714      2200.3152    
       370   0.74           343.89682      132637.3      -807631.35     -300.22413      0.36350185     0.056478933    45.338841      2200.0231    
       380   0.76           341.56586      138706.56     -807625.07     -306.12501      0.36349647     0.057589874    45.391966      2199.6669    
       390   0.78           329.45835      141938.13     -807618.68     -310.70439      0.36349095     0.05845226     45.37781       2199.3353    
       400   0.8            337.05735      143204.42     -807617.36     -312.97134      0.36348529     0.058879654    45.361666      2199.0288    
       410   0.82           331.84194      137480.91     -807621.51     -308.05867      0.36347948     0.057956353    45.174068      2198.9489    
       420   0.84           336.04953      135930.55     -807627.95     -301.99228      0.36347353     0.05681599     45.376343      2198.6283    
       430   0.86           331.11631      129793.45     -807634.06     -295.09468      0.36346744     0.055519225    45.37167       2198.3176    
       440   0.88           335.25085      129306.98     -807633.64     -295.91147      0.3634612      0.05567385     45.398356      2197.9817    
       450   0.9            334.44293      129300.65     -807634.74     -294.65928      0.36345482     0.055439233    45.367429      2197.6842    
       460   0.92           333.50441      134965.34     -807628.67     -300.3944       0.3634483      0.056519291    45.366351      2197.3911    
       470   0.94           349.9786       137067.93     -807625.25     -306.12006      0.36344163     0.057597633    45.378342      2197.0887    
       480   0.96           329.97155      143438.58     -807615.5      -312.94885      0.36343482     0.058883599    45.320874      2196.8479    
       490   0.98           332.11399      140948.25     -807617.86     -310.73014      0.36342786     0.058467252    45.376314      2196.5529    
       500   1              344.58072      139024.29     -807623.55     -306.55126      0.36342077     0.057682075    45.375452      2196.2618    
       510   1.02           340.25786      134064.05     -807627.64     -19315.96       0.36341353     0.056791422    45.142165      2196.1957    
       520   1.04           337.41753      130906.71     -807631.04     -19064.279      0.36340614     0.056052588    45.347112      2195.9321    
       530   1.06           352.80532      128253.72     -807636.77     -18821.974      0.36339862     0.055341312    45.155248      2195.846     
       540   1.08           328.37011      129977.33     -807632.99     -18838.532      0.36339095     0.055391165    45.170633      2195.7409    
       550   1.1            340.91533      134861.63     -807627.26     -19314.65       0.36338313     0.056792323    45.133841      2195.6642    
       560   1.12           343.05115      137403.11     -807620.22     -19782.251      0.36337518     0.058168517    45.215039      2195.5117    
       570   1.14           343.00117      141929.46     -807617.66     -19932.049      0.36336707     0.058610296    45.353375      2195.2392    
       580   1.16           329.04821      140290.76     -807619.04     -19717.982      0.36335883     0.057982146    45.154109      2195.1353    
       590   1.18           342.29417      139560.52     -807620.95     -19701.491      0.36335044     0.057934989    44.982899      2195.1692    
       600   1.2            349.93448      131673.54     -807627.9      -19319.312      0.36334191     0.056812474    45.153013      2195.056     
       610   1.22           351.003        130859.69     -807632.87     -18995.374      0.36333324     0.0558612      45.160618      2194.9332    
       620   1.24           332.6688       127323.27     -807635.68     -18651.607      0.36332442     0.054851588    45.171175      2194.7989    
       630   1.26           330.88042      132919.31     -807629.13     -19045.201      0.36331546     0.056010472    45.174139      2194.6595    
       640   1.28           348.43246      133081.66     -807626.81     -19352.664      0.36330636     0.056916123    45.14793       2194.5374    
       650   1.3            345.59445      140529.63     -807620.77     -19703.632      0.36329711     0.057949793    45.149581      2194.4112    
       660   1.32           345.55203      140391.99     -807621.11     -19681.535      0.36328772     0.057886301    45.175108      2194.2631    
       670   1.34           341.28479      142686.45     -807617.12     -19886.003      0.36327819     0.058489205    45.180511      2194.109     
       680   1.36           354.95776      137122.25     -807623.2      -19623.434      0.36326851     0.057718469    45.136871      2193.9842    
       690   1.38           345.39183      135036.01     -807627.07     -19277.191      0.36325869     0.056701596    45.111785      2193.8742    
       700   1.4            347.37151      128657.26     -807634.51     -18814.476      0.36324873     0.05534209     45.245972      2193.6678    
       710   1.42           341.35223      130163.32     -807631.93     -18919.391      0.36323863     0.055652242    44.940839      2193.6709    
       720   1.44           339.19269      130863.69     -807628.72     -19109.1        0.36322838     0.056211868    45.163894      2193.5161    
       730   1.46           354.55133      134965.38     -807627.11     -19342.957      0.36321798     0.056901416    45.169522      2193.3558    
       740   1.48           340.53611      139315.58     -807620.81     -19622.178      0.36320745     0.057724477    45.154565      2193.2037    
       750   1.5            339.05435      142267.9      -807616.48     -19885.436      0.36319677     0.058500649    45.156402      2193.0485    
       760   1.52           353.59369      140234.28     -807618.65     -19876.456      0.36318595     0.058475973    45.184289      2192.8737    
       770   1.54           351.43628      136617.79     -807624.63     -19471.372      0.36317498     0.057285956    45.139105      2192.7263    
       780   1.56           345.16934      132625.72     -807629.13     -19126.009      0.36316387     0.056271599    45.216723      2192.5286    
       790   1.58           345.29707      129208.15     -807631.99     -18952.094      0.36315262     0.055761644    45.329985      2192.2609    
       800   1.6            349.12552      130160.2      -807632.32     -18966.219      0.36314122     0.055804954    44.633866      2192.4211    
       810   1.62           337.89034      131218.57     -807629.7      -19044.077      0.36312968     0.056035818    44.699189      2192.5316    
       820   1.64           342.39478      136993.04     -807625.01     -19391.82       0.363118       0.057060862    44.955712      2192.4797    
       830   1.66           344.6052       139563.01     -807620.02     -19746.731      0.36310618     0.058107088    45.160233      2192.3031    
       840   1.68           338.17138      142204.62     -807616.87     -19901.041      0.36309421     0.058563093    45.184988      2192.1112    
       850   1.7            345.22208      139068        -807621.82     -19657.769      0.3630821      0.057849144    45.139774      2191.9446    
       860   1.72           344.54294      136564.4      -807625.41     -19432.787      0.36306984     0.057188995    45.161487      2191.7643    
       870   1.74           338.82283      131776.43     -807629.43     -19140.762      0.36305745     0.056331514    45.157669      2191.5852    
       880   1.76           340.51515      130296.83     -807632.32     -18984.949      0.3630449      0.055874884    45.127596      2191.4218    
       890   1.78           326.23791      129828.29     -807631.68     -18914.269      0.36303222     0.05566881     45.22595       2191.2034    
       900   1.8            336.61914      132205.06     -807630.16     -19116.396      0.36301939     0.056265701    45.147688      2191.0271    
       910   1.82           340.58225      136125.07     -807624.97     -19499.516      0.36300642     0.057395397    45.108602      2190.8708    
       920   1.84           346.13549      139442.88     -807621.07     -19814.748      0.36299331     0.058325366    45.189366      2190.6704    
       930   1.86           335.33352      140881.76     -807619.88     -19802.89       0.36298005     0.058292591    45.177817      2190.4755    
       940   1.88           335.6096       138825.01     -807623.14     -19608.541      0.36296665     0.057722628    44.979381      2190.383     
       950   1.9            337.27002      135220.48     -807626.11     -19442.512      0.36295311     0.057236016    45.106299      2190.2226    
       960   1.92           346.21661      130550.44     -807632.52     -19121.405      0.36293942     0.056292847    45.009257      2190.1101    
       970   1.94           321.72061      130014.52     -807632.69     -18896.945      0.36292559     0.055634161    45.20115       2189.8991    
       980   1.96           318.93808      129512.63     -807632.3      -18900.937      0.36291162     0.055648057    45.292889      2189.6427    
       990   1.98           341.39602      132961.72     -807630.42     -19225.175      0.3628975      0.056604878    45.229664      2189.4178    
      1000   2              339.64304      136361.3      -807625.37     -19539.886      0.36288325     0.057533747    45.145866      2189.2336    
      1010   2.02           337.02552      140394.97     -807621.09     -309.18514      0.36286884     0.058266167    45.165062      2189.0395    
      1020   2.04           332.23791      139180.66     -807621.67     -308.01002      0.3628543      0.058047042    45.382916      2188.7417    
      1030   2.06           336.46871      139323.49     -807622.68     -307.49612      0.36283961     0.057952539    45.385765      2188.444     
      1040   2.08           336.09882      133230.41     -807628.06     -302.10777      0.36282478     0.056939347    45.393937      2188.1441    
      1050   2.1            336.47592      131530.08     -807632.24     -297.85695      0.3628098      0.056140496    45.328794      2187.8755    
      1060   2.12           320.53536      129047.02     -807633.71     -294.12494      0.36279469     0.055439392    45.388973      2187.5805    
      1070   2.14           325.266        130621.73     -807631.84     -296.52697      0.36277943     0.055894499    45.361579      2187.2992    
      1080   2.16           340.22817      132793.87     -807630.4      -299.97674      0.36276402     0.056547172    45.348405      2187.025     
      1090   2.18           336.45985      136834.59     -807624.17     -305.54811      0.36274848     0.057599873    45.387333      2186.7345    
      1100   2.2            324.94129      139270.37     -807619.54     -308.43365      0.36273279     0.05814635     45.369384      2186.4531    
      1110   2.22           343.13527      140191.08     -807621.47     -308.73956      0.36271695     0.058206562    34.656163      2192.2431    
      1120   2.24           331.60367      138338.51     -807622.1      -306.30507      0.36270098     0.057750132    45.366711      2191.9103    
      1130   2.26           340.72375      134539.76     -807627.39     -301.94706      0.36268486     0.056931011    45.357283      2191.5834    
      1140   2.28           332.77548      131487.39     -807631.46     -296.46743      0.3626686      0.055900353    45.377091      2191.2501    
      1150   2.3            343.44999      128832.69     -807634.98     -294.10274      0.36265219     0.055456988    45.378659      2190.9181    
      1160   2.32           335.12466      131177.32     -807630.85     -296.75184      0.36263564     0.055959065    45.359467      2190.596     
      1170   2.34           342.49487      133203.94     -807627.25     -301.0728       0.36261895     0.056776491    45.334721      2190.2857    
      1180   2.36           343.82831      137661.88     -807623.12     -305.06849      0.36260212     0.05753267     45.402185      2189.9495    
      1190   2.38           331.56183      141173.59     -807617.94     -308.25308      0.36258514     0.058135973    45.389894      2189.6203    
      1200   2.4            353.88963      140013.67     -807619.76     -309.30009      0.36256802     0.058336191    45.364023      2189.3032    
      1210   2.42           353.48871      137673.46     -807622.99     -305.75093      0.36255076     0.05766954     45.183491      2189.0596    
      1220   2.44           342.2519       134976.47     -807626.42     -300.53225      0.36253335     0.056687934    45.337923      2188.7553    
      1230   2.46           342.71227      130950.41     -807630.71     -296.16011      0.3625158      0.055865942    45.379191      2188.4362    
      1240   2.48           343.95638      129396.97     -807632.04     -294.89338      0.36249811     0.055629709    45.3501        2188.1301    
      1250   2.5            342.22094      131089.71     -807629.79     -296.84449      0.36248028     0.056000528    45.351709      2187.8247    
      1260   2.52           341.67084      134190.14     -807625.68     -300.82536      0.3624623      0.056754345    45.408406      2187.499     
      1270   2.54           346.52937      138389.34     -807621.86     -305.24942      0.36244418     0.057591876    45.332611      2187.2037    
      1280   2.56           349.28822      140996.49     -807619.38     -308.15575      0.36242592     0.058143149    45.400415      2186.8841    
      1290   2.58           362.15463      139865.08     -807620.8      -308.46536      0.36240751     0.058204523    45.361867      2186.5804    
      1300   2.6            350.22103      137388.03     -807622.96     -304.67899      0.36238896     0.057493013    45.384599      2186.2695    
      1310   2.62           342.30809      133359.74     -807626.9      -299.70143      0.36237027     0.056556663    45.141553      2186.0494    
      1320   2.64           339.28479      131122.91     -807629.79     -296.37032      0.36235143     0.055930956    45.387908      2185.7394    
      1330   2.66           336.63876      130178.36     -807631.18     -294.72434      0.36233245     0.055623241    45.400429      2185.4263    
      1340   2.68           337.17112      132676.17     -807629.57     -296.4393       0.36231333     0.055949856    45.319009      2185.1436    
      1350   2.7            340.25227      133136.5      -807626.21     -300.35399      0.36229407     0.056691728    45.372979      2184.8427    
      1360   2.72           352.00703      138639.59     -807622.15     -306.09996      0.36227466     0.057779375    45.315782      2184.5632    
      1370   2.74           350.18904      137750.63     -807621.36     -306.80885      0.36225511     0.05791631     45.219608      2184.3183    
      1380   2.76           356.084        141152.9      -807620.8      -308.1383       0.36223542     0.058170431    45.356478      2184.0261    
      1390   2.78           339.33126      135461.54     -807623.85     -302.98666      0.36221558     0.057201036    45.38083       2183.7265    
      1400   2.8            346.11487      135750.07     -807625.9      -301.77809      0.3621956      0.056976011    45.363721      2183.4339    
      1410   2.82           344.2169       129051.41     -807632.61     -295.06376      0.36217548     0.055711434    45.179257      2183.2052    
      1420   2.84           337.20981      132159.48     -807630.38     -296.30125      0.36215522     0.055948218    45.376875      2182.9098    
      1430   2.86           343.24741      130045.98     -807631.39     -296.33586      0.36213481     0.055957906    45.376516      2182.6155    
      1440   2.88           353.58179      136130.03     -807626.76     -302.4298       0.36211426     0.057111881    45.335741      2182.3358    
      1450   2.9            341.24084      136923.23     -807622.87     -304.85274      0.36209357     0.057572728    45.379939      2182.0423    
      1460   2.92           343.72057      140369.71     -807619.95     -308.07194      0.36207273     0.058184035    45.372691      2181.7522    
      1470   2.94           346.10445      137933.8      -807622.46     -306.10024      0.36205176     0.057815       45.373942      2181.4626    
      1480   2.96           325.71187      139348.77     -807620.79     -304.92224      0.36203064     0.057595864    45.361939      2181.1778    
      1490   2.98           339.66572      132165.66     -807629.03     -298.78558      0.36200937     0.056440043    45.418632      2180.8757    
      1500   3              336.29731      131448.37     -807630.82     -296.49699      0.36198796     0.056011045    45.303852      2180.6114    
      1510   3.02           344.617        129452.28     -807633.78     -18864.759      0.36196642     0.055686578    44.934718      2180.4659    
      1520   3.04           329.76664      132728.93     -807629.05     -19036.409      0.36194472     0.056196636    45.351019      2180.187     
      1530   3.06           347.65204      135426.53     -807627.55     -19299.03       0.36192289     0.056975345    45.149823      2179.9721    
      1540   3.08           354.58743      136635.44     -807625.03     -19527.272      0.36190091     0.057652671    45.161529      2179.7535    
      1550   3.1            339.52275      140779        -807620.18     -19701.959      0.36187879     0.058171976    45.215138      2179.5181    
      1560   3.12           327.1934       138528.67     -807620.92     -19552.919      0.36185653     0.057735474    45.20987       2179.2846    
      1570   3.14           351.72709      136961.67     -807626.08     -19434.242      0.36183412     0.057388601    45.261391      2179.0354    
      1580   3.16           343.40961      132085.29     -807629.44     -19154.635      0.36181157     0.056566456    45.012611      2178.8626    
      1590   3.18           333.51234      132639.74     -807630.28     -19006.85       0.36178888     0.056133545    45.133656      2178.6524    
      1600   3.2            333.12377      128333.29     -807632.96     -18837.69       0.36176605     0.055637472    45.156302      2178.4352    
      1610   3.22           337.42342      133571.35     -807629.59     -19087.371      0.36174307     0.05637849     45.0797        2178.241     
      1620   3.24           337.68029      133246.18     -807627.65     -19220.451      0.36171995     0.056775196    45.236595      2177.9996    
      1630   3.26           340.40052      139538.4      -807622.17     -19584.355      0.36169669     0.057853851    45.001434      2177.8282    
      1640   3.28           349.49704      136636.98     -807624.58     -19518.903      0.36167329     0.057664233    45.182835      2177.6027    
      1650   3.3            340.19538      140989.9      -807620.53     -19681.342      0.36164974     0.058147908    45.1862        2177.3763    
      1660   3.32           344.09187      133623.68     -807626.81     -19325.127      0.36162605     0.057099221    45.139319      2177.1635    
      1670   3.34           344.5499       135219.55     -807627.91     -19246.269      0.36160222     0.056869972    45.187698      2176.9367    
      1680   3.36           324.61486      128432.5      -807632.18     -18805.115      0.36157824     0.05557011     45.290325      2176.6806    
      1690   3.38           320.66516      133684.48     -807627.82     -19032.767      0.36155413     0.056246584    45.192376      2176.4528    
      1700   3.4            337.85285      129540.59     -807631.74     -18943.922      0.36152987     0.055987782    44.997785      2176.2803    
      1710   3.42           339.21252      136954.8      -807625.02     -19366.039      0.36150546     0.057239191    45.149709      2176.0643    
      1720   3.44           354.27097      135049.46     -807626.65     -19404.553      0.36148092     0.057356917    45.125093      2175.8551    
      1730   3.46           340.18087      141136.58     -807620.06     -19687.03       0.36145623     0.058195851    45.136686      2175.6426    
      1740   3.48           348.20175      136384.73     -807623.98     -19508.85       0.3614314      0.057673106    45.175835      2175.4191    
      1750   3.5            338.24335      137765.53     -807624.36     -19384.995      0.36140643     0.057310917    45.155747      2175.2012    
      1760   3.52           333.58116      132698.53     -807628.33     -19089.897      0.36138131     0.056442396    45.162527      2174.9813    
      1770   3.54           337.55384      132476.74     -807630.42     -18979.663      0.36135605     0.056120393    45.178173      2174.7573    
      1780   3.56           347.36415      130375.58     -807633.56     -18863.616      0.36133065     0.05578118     45.167684      2174.536     
      1790   3.58           337.46787      132937.15     -807629.42     -19028.056      0.36130511     0.056271419    45.120315      2174.3275    
      1800   3.6            343.43521      135877.38     -807626.45     -19262.346      0.36127942     0.056968331    45.104949      2174.123     
      1810   3.62           353.76449      136742.98     -807624.87     -19448.073      0.3612536      0.057521731    44.88353       2173.9776    
      1820   3.64           340.57872      140420.17     -807619.89     -19627.637      0.36122763     0.058057002    45.155562      2173.759     
      1830   3.66           339.20599      137045.83     -807622.29     -19447.789      0.36120151     0.057529184    45.159521      2173.5393    
      1840   3.68           344.81977      136419.98     -807623.8      -19363.308      0.36117526     0.057283443    45.127951      2173.3278    
      1850   3.7            344.6528       130993.01     -807629.93     -18941.056      0.36114886     0.056038369    45.075415      2173.13      
      1860   3.72           350.4203       132416.21     -807629.59     -18967.455      0.36112232     0.056120594    45.27138       2172.8812    
      1870   3.74           348.39525      128861.7      -807631.21     -18819.867      0.36109564     0.055688031    45.180311      2172.6561    
      1880   3.76           359.27689      135004.04     -807627.47     -19115.009      0.36106881     0.056565558    45.334635      2172.3917    
      1890   3.78           353.90153      133658.84     -807625.5      -19178.925      0.36104184     0.056758937    45.176705      2172.1677    
      1900   3.8            355.30318      141000.18     -807618.64     -19601.659      0.36101474     0.058014351    45.169052      2171.9458    
      1910   3.82           353.18824      138726.07     -807619.74     -19504.097      0.36098748     0.057729959    45.124026      2171.7352    
      1920   3.84           356.67662      140439.51     -807619.64     -19525.607      0.36096009     0.057798013    45.207815      2171.5035    
      1930   3.86           359.35055      134563.57     -807625.59     -19166.57       0.36093255     0.056739552    45.158867      2171.2841    
      1940   3.88           360.51534      135446.58     -807626.92     -19077.697      0.36090487     0.056480789    45.223332      2171.0487    
      1950   3.9            343.4032       130425.2      -807628.69     -18821.664      0.36087705     0.05572708     45.310473      2170.792     
      1960   3.92           366.71907      133065.83     -807630.31     -18920.29       0.36084909     0.056023433    45.171185      2170.5698    
      1970   3.94           344.23018      132892.4      -807625.64     -19030.313      0.36082098     0.056353605    45.191273      2170.3427    
      1980   3.96           360.69264      138097.99     -807622.7      -19368.056      0.36079273     0.057358237    45.307017      2170.0877    
      1990   3.98           352.90909      138149.83     -807621.45     -19393.505      0.36076434     0.057438124    45.300466      2169.8346    
      2000   4              352.2738       139486.66     -807619.8      -19502.695      0.36073581     0.057766083    45.347655      2169.5705    
      2010   4.02           349.62863      137330.32     -807621.63     -302.77051      0.36070713     0.057399269    45.297643      2169.3188    
      2020   4.04           357.74209      134539.92     -807626.49     -299.25407      0.36067831     0.056737154    45.553984      2169.0071    
      2030   4.06           356.46253      132013.52     -807630.2      -295.65086      0.36064935     0.056058504    45.50288       2168.7082    
      2040   4.08           343.49947      131123.16     -807630.29     -294.10967      0.36062025     0.055770779    45.632295      2168.3802    
      2050   4.1            356.30105      132217.27     -807630.38     -296.03736      0.36059101     0.056140872    45.579376      2168.0654    
      2060   4.12           359.29205      132949.95     -807628.89     -298.30377      0.36056162     0.056575286    45.414624      2167.7893    
      2070   4.14           351.45572      137630.05     -807623.69     -302.68356      0.36053209     0.057410644    45.54361       2167.4843    
      2080   4.16           332.47393      138488.39     -807620.99     -303.11664      0.36050242     0.057497519    45.552825      2167.178     
      2090   4.18           344.45447      140662.98     -807620.1      -305.76712      0.36047261     0.058005081    45.610244      2166.8596    
      2100   4.2            335.30375      135267.46     -807622.88     -302.09999      0.36044265     0.057314176    45.650583      2166.5331    
      2110   4.22           345.81222      137125.29     -807626.47     -299.96859      0.36041256     0.05691456     45.462513      2166.2497    
      2120   4.24           348.27775      129812.37     -807633.29     -293.80994      0.36038232     0.055750726    45.653931      2165.9243    
      2130   4.26           347.55191      132952.56     -807631.01     -295.9758       0.36035193     0.056166435    45.722627      2165.5847    
      2140   4.28           345.75726      128967.59     -807632.11     -294.92942      0.36032141     0.055972609    45.679726      2165.2557    
      2150   4.3            335.36715      136004.79     -807625.6      -300.05768      0.36029075     0.056950713    45.59691       2164.9459    
      2160   4.32           330.36747      134475.01     -807625.14     -300.0662       0.36025994     0.056957199    45.459366      2164.6669    
      2170   4.34           333.46149      140543.49     -807619.95     -305.62937      0.36022899     0.058018159    45.43343       2164.3941    
      2180   4.36           328.5164       136769.03     -807621.04     -304.09466      0.36019789     0.057731805    45.287714      2164.1535    
      2190   4.38           344.25469      138596.97     -807624.27     -303.02317      0.36016666     0.057533374    45.542972      2163.8579    
      2200   4.4            343.61098      132078.39     -807630.26     -297.05555      0.36013528     0.056405249    45.578302      2163.5554    
      2210   4.42           339.62383      131978.87     -807630        -296.72489      0.36010377     0.056347393    45.407207      2163.2902    
      2220   4.44           334.86004      129361.8      -807632.25     -293.94867      0.36007211     0.055825103    45.556216      2162.9937    
      2230   4.46           338.25826      132071.7      -807630.99     -295.72532      0.3600403      0.056167476    45.419364      2162.7269    
      2240   4.48           337.5379       132588.22     -807628.62     -298.05512      0.36000836     0.056615002    45.339053      2162.4776    
      2250   4.5            331.55392      137858.46     -807623.63     -302.25608      0.35997627     0.057418082    45.40329       2162.2149    
      2260   4.52           329.48449      139118.36     -807621.6      -304.06004      0.35994404     0.057765944    45.465588      2161.9396    
      2270   4.54           340.79521      137251.05     -807623.86     -303.37841      0.35991167     0.05764163     45.483742      2161.661     
      2280   4.56           344.23509      135579.86     -807626.67     -301.00373      0.35987916     0.05719561     45.451242      2161.3896    
      2290   4.58           331.57735      132324.26     -807629.09     -296.87103      0.35984651     0.056415449    45.580334      2161.0921    
      2300   4.6            328.13964      132767.81     -807630.26     -295.12323      0.35981371     0.056088421    45.46462       2160.8189    
      2310   4.62           334.82678      128974.26     -807633.19     -293.12238      0.35978077     0.055713256    45.375937      2160.5645    
      2320   4.64           338.79602      132596.09     -807630.21     -296.54967      0.35974769     0.056369858    45.563711      2160.2721    
      2330   4.66           337.47209      133972.95     -807628.34     -298.26749      0.35971447     0.056701628    45.381848      2160.0171    
      2340   4.68           331.57307      138942.48     -807622.24     -303.39312      0.35968111     0.057681376    45.486994      2159.7412    
      2350   4.7            331.73525      136926.89     -807623.13     -302.48633      0.3596476      0.057514334    45.532834      2159.4566    
      2360   4.72           331.27762      138760.73     -807621.74     -303.63634      0.35961396     0.057738398    45.524538      2159.1742    
      2370   4.74           336.20401      134457.68     -807627.21     -298.79998      0.35958017     0.056824073    45.485072      2158.9002    
      2380   4.76           335.41208      134715.5      -807627.7      -297.93099      0.35954624     0.056664159    45.563479      2158.6111    
      2390   4.78           331.20461      130192.5      -807631.7      -293.23621      0.35951216     0.055776534    45.5763        2158.3201    
      2400   4.8            335.38877      132125.54     -807630.47     -294.69453      0.35947795     0.056059256    45.463696      2158.0517    
      2410   4.82           335.26044      131492.12     -807629.41     -295.60718      0.35944359     0.056238243    45.467248      2157.7831    
      2420   4.84           342.25311      136134.32     -807625.48     -300.15277      0.35940909     0.057108507    45.646276      2157.4801    
      2430   4.86           340.44576      136343.69     -807624.3      -300.8503       0.35937446     0.057246739    45.532457      2157.1998    
      2440   4.88           342.27081      139047.01     -807621.67     -303.36306      0.35933967     0.057730463    45.606714      2156.9056    
      2450   4.9            338.69157      136870.27     -807622.78     -301.47817      0.35930475     0.057377343    45.612089      2156.6111    
      2460   4.92           347.12718      135829.42     -807626.35     -298.73796      0.35926969     0.056861375    45.589172      2156.3215    
      2470   4.94           347.17737      131805.11     -807629.67     -295.12503      0.35923448     0.056179201    45.596838      2156.0311    
      2480   4.96           351.58024      131984.56     -807631.1      -293.97044      0.35919913     0.055964923    45.546347      2155.7508    
      2490   4.98           349.71902      131986.31     -807630.78     -293.74761      0.35916364     0.055928026    45.562131      2155.468     
[...]
     98740   197.48         338.05557      136208.28     -807623.67     -19374.442      0.36236891     0.057127578    45.478178      27.706999    
     98750   197.5          341.77747      136461.29     -807624.17     -19373.812      0.36238762     0.057122773    45.452134      27.487104    
     98760   197.52         344.35065      135502.07     -807624.78     -19354.602      0.36240618     0.057063209    45.355381      27.267214    
     98770   197.54         346.5347       135233.46     -807625.2      -19346.586      0.36242459     0.057036678    45.385184      27.047323    
     98780   197.56         342.3519       135623.94     -807623.74     -19399.027      0.36244287     0.057188398    45.377345      26.827432    
     98790   197.58         345.26978      135162.34     -807625.96     -19282.018      0.362461       0.056840612    45.329392      26.607544    
     98800   197.6          356.83182      134612.84     -807628.53     -19219.728      0.36247899     0.056654178    45.380379      26.387652    
     98810   197.62         349.74012      135642.86     -807627.65     -19215.05       0.36249683     0.056637599    45.189689      26.167772    
     98820   197.64         344.56507      135612.2      -807624.46     -19375.298      0.36251453     0.057107153    45.484203      25.947874    
     98830   197.66         354.30974      135166.73     -807626.29     -19351.087      0.36253209     0.05703303     45.436153      25.727979    
     98840   197.68         333.55066      136077.33     -807624.07     -19312.599      0.36254951     0.056916861    45.319004      25.508091    
     98850   197.7          342.18753      135910.64     -807624.31     -19382.396      0.36256678     0.05711984     45.333195      25.288202    
     98860   197.72         337.74996      136431.28     -807622.42     -19475.648      0.36258391     0.057391942    45.355927      25.068311    
     98870   197.74         345.49566      134890.57     -807625.62     -19347.758      0.3626009      0.057012398    45.396235      24.848418    
     98880   197.76         342.60034      135238.68     -807626.79     -19251.217      0.36261774     0.056725285    45.385529      24.628525    
     98890   197.78         350.36798      133759.69     -807628.66     -19217.488      0.36263445     0.056623292    45.343661      24.408635    
     98900   197.8          344.66385      134574.16     -807625.67     -19368.749      0.362651       0.057066368    45.37746       24.188743    
     98910   197.82         341.89397      133686.19     -807627.27     -19257.339      0.36266742     0.056735551    45.168063      23.968861    
     98920   197.84         343.96946      135822.89     -807627.55     -19271.017      0.36268369     0.056773301    45.340473      23.748971    
     98930   197.86         336.71364      135820.1      -807624.8      -19400.352      0.36269982     0.057151786    45.368675      23.529078    
     98940   197.88         344.29232      136809.63     -807624.37     -19512.789      0.36271581     0.057480484    45.36511       23.309186    
     98950   197.9          340.96366      135562.49     -807626.13     -19382.836      0.36273165     0.057095174    45.420025      23.089291    
     98960   197.92         334.66475      134716.62     -807627.11     -19274.399      0.36274735     0.056773299    45.393947      22.869397    
     98970   197.94         332.65381      134365.02     -807625.63     -19367.452      0.36276291     0.057044945    45.384162      22.649504    
     98980   197.96         339.49628      133880.76     -807626.81     -19368.41       0.36277832     0.057045342    45.402497      22.429609    
     98990   197.98         339.43934      133737.14     -807627.84     -19313.933      0.36279359     0.056882498    45.337889      22.209718    
     99000   198            330.04282      135001.31     -807627.17     -19285.21       0.36280872     0.056795535    45.358226      21.989826    
     99010   198.02         336.19331      135721.77     -807626.31     -303.24027      0.3628237      0.057152962    45.378395      21.769932    
     99020   198.04         337.66227      135193.85     -807626.07     -303.85431      0.36283855     0.05726635     45.542434      21.550031    
     99030   198.06         339.64454      134958.62     -807627.73     -302.602        0.36285324     0.057028022    45.514479      21.330131    
     99040   198.08         327.15105      135868.74     -807626.81     -301.82017      0.3628678      0.056878398    45.657597      21.110224    
     99050   198.1          331.14443      134668.36     -807626.79     -302.55215      0.36288221     0.057014076    45.589983      20.89032     
     99060   198.12         338.4822       134853.5      -807627.94     -302.45933      0.36289648     0.056994342    45.621912      20.670416    
     99070   198.14         338.49776      134295.71     -807628.81     -301.66587      0.36291061     0.056842613    45.548229      20.450514    
     99080   198.16         339.87949      134168.91     -807628.56     -302.09486      0.36292459     0.056921253    45.609559      20.23061     
     99090   198.18         332.17019      134872.19     -807626.62     -302.97466      0.36293843     0.057084851    45.583437      20.010707    
     99100   198.2          333.34953      135010.51     -807625.91     -303.89962      0.36295213     0.057256965    45.548417      19.790806    
     99110   198.22         333.02824      135921.15     -807626.29     -303.46589      0.36296568     0.057173112    45.383644      19.570913    
     99120   198.24         334.20811      135155.21     -807626.87     -302.96797      0.36297909     0.057077195    45.5441        19.351012    
     99130   198.26         335.46926      135031.46     -807626.5      -303.45851      0.36299236     0.05716752     45.562824      19.13111     
     99140   198.28         326.89621      134325.17     -807626.22     -302.50283      0.36300548     0.056985424    45.639551      18.911206    
     99150   198.3          345.53713      133165.03     -807630.15     -300.9626       0.36301846     0.056693247    45.5462        18.691305    
     99160   198.32         331.89434      133754.93     -807628.02     -301.02968      0.3630313      0.056703879    45.54494       18.471404    
     99170   198.34         331.45534      134992.26     -807626.58     -302.2729       0.36304399     0.056936069    45.540753      18.251504    
     99180   198.36         340.16878      135490.11     -807626.89     -302.87603      0.36305655     0.057047701    45.615429      18.031601    
     99190   198.38         328.58502      135863.38     -807625.01     -302.7807       0.36306895     0.057027797    45.60263       17.811698    
     99200   198.4          338.20586      137235.66     -807624.72     -304.04124      0.36308122     0.057263281    45.615749      17.591795    
     99210   198.42         348.70995      134426.27     -807625.72     -304.09753      0.36309334     0.05727197     45.491269      17.371897    
     99220   198.44         346.70631      136212.81     -807624.97     -303.99038      0.36310532     0.057249902    45.659519      17.151993    
     99230   198.46         354.68654      133555.09     -807628        -301.70059      0.36311715     0.056816818    45.561186      16.932092    
     99240   198.48         343.97734      135988.55     -807624.84     -302.90814      0.36312885     0.05704239     45.513582      16.712194    
     99250   198.5          345.97387      133637.81     -807627.14     -300.65508      0.3631404      0.056616303    45.492252      16.492296    
     99260   198.52         357.15074      135514.42     -807626.25     -302.73583      0.3631518      0.057006337    45.489795      16.272398    
     99270   198.54         342.55797      134459.64     -807625.05     -301.79419      0.36316306     0.056827261    45.385515      16.052504    
     99280   198.56         336.12828      137891.86     -807621.38     -304.38014      0.36317418     0.057312435    45.50943       15.832605    
     99290   198.58         352.79059      134218.2      -807625.64     -302.45142      0.36318516     0.056947552    45.455164      15.612709    
     99300   198.6          355.23607      137589.21     -807624.08     -304.25142      0.36319599     0.057284758    45.56484       15.392808    
     99310   198.62         350.21389      134702.86     -807625.01     -302.66618      0.36320668     0.056984611    45.465138      15.172912    
     99320   198.64         350.52636      136348.66     -807624.48     -303.17306      0.36321723     0.057078386    45.530558      14.953012    
     99330   198.66         356.64778      133934.38     -807627.49     -301.15436      0.36322763     0.056696702    45.617028      14.733111    
     99340   198.68         349.59218      135650.71     -807625.55     -302.16723      0.36323789     0.056885782    45.546722      14.513211    
     99350   198.7          348.54767      135189.05     -807625.11     -302.59009      0.36324801     0.056963804    45.620531      14.293309    
     99360   198.72         336.31359      135540.13     -807623.74     -302.37053      0.36325798     0.056920907    45.655719      14.073407    
     99370   198.74         359.53302      135039.88     -807626.3      -303.1757       0.36326781     0.057070936    45.603646      13.853506    
     99380   198.76         350.26001      135990.42     -807624.97     -303.40829      0.3632775      0.057113197    45.721748      13.633602    
     99390   198.78         344.17179      136635.1      -807623.24     -304.4484       0.36328704     0.05730748     45.737171      13.413697    
     99400   198.8          344.16808      134619.17     -807625.87     -301.99242      0.36329644     0.05684371     45.647976      13.193795    
     99410   198.82         352.75576      135851.51     -807626.29     -302.88193      0.3633057      0.057009688    45.487179      12.973899    
     99420   198.84         342.84035      134141.91     -807625.86     -302.23337      0.36331481     0.056886187    45.584946      12.753999    
     99430   198.86         351.22595      136400.82     -807626.31     -303.0766       0.36332378     0.057043491    45.627233      12.534098    
     99440   198.88         330.29674      133570.25     -807625.7      -301.04276      0.36333261     0.056659317    45.621475      12.314198    
     99450   198.9          340.25159      136742.53     -807624.96     -303.30121      0.36334129     0.057083015    45.582551      12.094299    
     99460   198.92         345.19974      134420.73     -807626.55     -302.76821      0.36334983     0.056981362    45.526736      11.874401    
     99470   198.94         334.6575       137063.44     -807622.92     -305.00294      0.36335823     0.057400614    45.439008      11.654506    
     99480   198.96         350.28479      134370.58     -807627.53     -302.83228      0.36336648     0.056990808    45.521193      11.434608    
     99490   198.98         325.5129       136780.88     -807623.53     -303.55857      0.3633746      0.057126216    45.403519      11.214714    
     99500   199            341.38059      134977.02     -807627.06     -302.5083       0.36338256     0.056927318    45.48861       10.994817    
     99510   199.02         336.588        135460.82     -807625.73     -19407.083      0.36339039     0.05706297     45.294804      10.774925    
     99520   199.04         335.1154       133560        -807627.14     -19317.62       0.36339807     0.05679872     45.511339      10.555028    
     99530   199.06         342.71189      134354.9      -807628.24     -19322.903      0.3634056      0.056813075    45.35676       10.335134    
     99540   199.08         349.26492      134610.1      -807628.05     -19404.782      0.363413       0.057052655    45.364822      10.11524     
     99550   199.1          336.33602      135438.71     -807625.71     -19447.793      0.36342025     0.05717797     45.352336      9.8953462    
     99560   199.12         343.15043      135495.87     -807627.16     -19419.78       0.36342736     0.057094493    45.386133      9.6754515    
     99570   199.14         337.57592      135783.34     -807626.93     -19394.974      0.36343432     0.057020473    45.340114      9.4555577    
     99580   199.16         331.2835       136694.5      -807623.92     -19533.381      0.36344114     0.057426306    45.404901      9.2356625    
     99590   199.18         342.79021      135723.61     -807626.91     -19449.446      0.36344782     0.057178495    45.369897      9.0157679    
     99600   199.2          324.08601      134431.31     -807626.48     -19310.793      0.36345435     0.056769853    45.399301      8.7958726    
     99610   199.22         349.23061      133447.43     -807629.82     -19322.085      0.36346074     0.05680205     45.369379      8.5759778    
     99620   199.24         330.79813      133974.51     -807625.81     -19417.483      0.36346699     0.057081517    45.356746      8.3560831    
     99630   199.26         324.58755      134322.41     -807625.88     -19356.911      0.3634731      0.056902496    45.364003      8.1361882    
     99640   199.28         334.15101      135339.73     -807627.34     -19348.948      0.36347906     0.056878157    45.378869      7.9162929    
     99650   199.3          331.65146      136319.09     -807625.55     -19444.329      0.36348487     0.057157624    45.356789      7.6963979    
     99660   199.32         331.68507      136739.47     -807623.7      -19561.447      0.36349055     0.057501001    45.38012       7.4765024    
     99670   199.34         334.0832       136515.31     -807625.3      -19477.908      0.36349608     0.057254566    45.472199      7.2566054    
     99680   199.36         331.7892       135150.56     -807627.1      -19337.668      0.36350147     0.056841493    45.47295       7.0367083    
     99690   199.38         339.35621      135446.92     -807627.03     -19401.189      0.36350671     0.057027385    45.338879      6.8168132    
     99700   199.4          332.81292      133956.66     -807626.56     -19374.438      0.36351181     0.056947956    45.318889      6.5969183    
     99710   199.42         339.77306      135024.13     -807627.14     -19389.114      0.36351677     0.056990316    45.099475      6.3770264    
     99720   199.44         339.87799      134561.95     -807628.33     -19305.464      0.36352158     0.056743692    44.986329      6.1571356    
     99730   199.46         336.32891      135636.1      -807625.18     -19468.142      0.36352625     0.057221108    45.032638      5.9372438    
     99740   199.48         348.98574      134727.86     -807626.95     -19457.755      0.36353078     0.057189867    45.322418      5.7173478    
     99750   199.5          333.32274      136252.13     -807624.18     -19484.362      0.36353516     0.057267378    45.415415      5.4974505    
     99760   199.52         336.85215      134974.85     -807626.91     -19324.448      0.3635394      0.056796706    45.365843      5.2775538    
     99770   199.54         337.25555      135490.07     -807625.6      -19391.546      0.3635435      0.056993273    45.382091      5.0576568    
     99780   199.56         345.63111      134468.16     -807625.96     -19422.035      0.36354745     0.057082261    45.361747      4.8377599    
     99790   199.58         343.03859      136284.88     -807625.78     -19375.646      0.36355126     0.056945325    45.407997      4.6178624    
     99800   199.6          348.50504      135717.68     -807626.85     -19329.495      0.36355493     0.056809113    45.369178      4.3979652    
     99810   199.62         350.09682      135591.52     -807624.92     -19436.401      0.36355845     0.057122756    45.35393       4.1780681    
     99820   199.64         357.48415      135169.35     -807624.82     -19478.635      0.36356183     0.057246347    45.358743      3.9581708    
     99830   199.66         351.11251      136003.69     -807625.4      -19363.99       0.36356507     0.056908905    45.409077      3.7382729    
     99840   199.68         347.49207      135289.31     -807624.55     -19367.178      0.36356816     0.056917793    45.530573      3.5183741    
     99850   199.7          359.88026      135622.52     -807625.01     -19432.955      0.36357111     0.05711064     45.409336      3.2984762    
     99860   199.72         348.41742      135689.12     -807623.65     -19411.423      0.36357392     0.05704692     45.323422      3.0785788    
     99870   199.74         346.50575      136414.49     -807623.78     -19376.643      0.36357658     0.056944289    45.374756      2.858681     
     99880   199.76         359.45224      135245.22     -807626.22     -19332.907      0.3635791      0.056815362    45.355683      2.6387831    
     99890   199.78         352.95051      135995.39     -807623.14     -19473.323      0.36358148     0.057227642    45.376899      2.4188851    
     99900   199.8          348.99528      136467.57     -807623.07     -19447.554      0.36358371     0.057151564    45.323695      2.1989872    
     99910   199.82         357.42711      135217.64     -807626        -19336.048      0.3635858      0.056823549    45.195965      1.9790897    
     99920   199.84         355.08417      135320.35     -807625.22     -19370.683      0.36358775     0.056925027    45.34445       1.7591913    
     99930   199.86         361.10421      135056.21     -807624.89     -19453.904      0.36358955     0.057169305    45.377086      1.5392927    
     99940   199.88         361.22708      135289.64     -807625.73     -19410.547      0.36359121     0.057041632    45.384522      1.319394     
     99950   199.9          343.92792      135506.77     -807624.57     -19340.751      0.36359273     0.056836287    45.344307      1.0994954    
     99960   199.92         354.39375      135960.5      -807625.18     -19408.068      0.3635941      0.057033893    45.283616      0.87959666   
     99970   199.94         345.76629      136036.06     -807623.83     -19434.589      0.36359533     0.057111636    45.213762      0.65969787   
     99980   199.96         349.55992      137099.83     -807624.29     -19449.135      0.36359641     0.057154212    45.360482      0.43979869   
     99990   199.98         341.63493      134922.87     -807625.14     -19339.319      0.36359736     0.056831354    45.395026      0.21989939   
    100000   200            351.71976      135415.77     -807625.72     -19407.913      0.36359816     0.057032802    45.382163      0            
Loop time of 2198.99 on 64 procs for 100000 steps with 1080 atoms

Performance: 7.858 ns/day, 3.054 hours/ns, 45.475 timesteps/s, 49.113 katom-step/s
85.4% CPU use with 64 MPI tasks x 1 OpenMP threads

MPI task timing breakdown:
Section |  min time  |  avg time  |  max time  |%varavg| %total
---------------------------------------------------------------
Pair    | 1577.4     | 1745.8     | 1942.6     | 186.4 | 79.39
Neigh   | 0.0018145  | 0.0020121  | 0.0023446  |   0.3 |  0.00
Comm    | 174.1      | 370.39     | 538.3      | 404.5 | 16.84
Output  | 2.8515     | 3.3938     | 3.7116     |  12.0 |  0.15
Modify  | 66.837     | 68.22      | 74.289     |  12.2 |  3.10
Other   |            | 11.23      |            |       |  0.51

Nlocal:         16.875 ave          23 max          11 min
Histogram: 1 4 4 11 6 23 9 2 3 1
Nghost:        823.875 ave         840 max         813 min
Histogram: 3 10 11 8 12 10 2 7 0 1
Neighs:              0 ave           0 max           0 min
Histogram: 64 0 0 0 0 0 0 0 0 0
FullNghs:      2674.28 ave        3679 max        1731 min
Histogram: 1 4 4 12 11 16 10 2 3 1

Total # of neighbors = 171154
Ave neighs/atom = 158.47593
Neighbor list builds = 5
Dangerous builds = 0

Total wall time: 0:39:09
