
units		metal
atom_style	atomic

read_data ${STRUCTURE}.data
read_data BaTiO3-sc333.data
Reading data file ...
  orthogonal box = (0 0 0) to (11.898253 11.898253 12.912076)
  2 by 4 by 4 MPI processor grid
  reading atoms ...
  135 atoms
  read_data CPU = 0.010 seconds
replicate $L $L $L
replicate 2 $L $L
replicate 2 2 $L
replicate 2 2 2
Replication is creating a 2x2x2 = 8 times larger system...
  orthogonal box = (0 0 0) to (23.796507 23.796507 25.824152)
  2 by 4 by 4 MPI processor grid
  1080 atoms
  replicate CPU = 0.003 seconds

pair_style allegro
pair_coeff	* * ${MODEL}.pth Ba Ti O
pair_coeff	* * BaTiO3-E0.pth Ba Ti O
mass 1 137.3
mass 2 47.9
mass 3 15.9994

timestep 0.002
compute polarization all allegro polarization 3
compute allegro will evaluate the quantity polarization of length 3 (src/compute_allegro.cpp:53)
compute polarizability all allegro polarizability 9
compute allegro will evaluate the quantity polarizability of length 9 (src/compute_allegro.cpp:53)

thermo_style custom pe fmax fnorm spcpu cpuremain

variable efield equal 1e-2*36.36
fix born all addbornforce 0.0 0.0 ${efield}
fix born all addbornforce 0.0 0.0 0.3636

thermo 10
min_style fire
#minimize 0.0 1e-6 100 100
velocity all create ${TEMP} ${SEED} dist gaussian rot yes mom yes
velocity all create 340 ${SEED} dist gaussian rot yes mom yes
velocity all create 340 6871 dist gaussian rot yes mom yes
fix nvt all nvt temp ${TEMP} ${TEMP} $(100*dt)
fix nvt all nvt temp 340 ${TEMP} $(100*dt)
fix nvt all nvt temp 340 340 $(100*dt)
fix nvt all nvt temp 340 340 0.2000000000000000111
run 5000
Neighbor list info ...
  update: every = 1 steps, delay = 0 steps, check = yes
  max neighbors/atom: 2000, page size: 100000
  master list distance cutoff = 8
  ghost atom cutoff = 8
  binsize = 8, bins = 3 3 4
  1 neighbor lists, perpetual/occasional/extra = 1 0 0
  (1) pair allegro/kk, perpetual
      attributes: full, newton on, kokkos_device
      pair build: full/bin/kk/device
      stencil: full/bin/3d
      bin: kk/device
Per MPI rank memory allocation (min/avg/max) = 3.516 | 3.516 | 3.516 Mbytes
    PotEng          Fmax          Fnorm          S/CPU         CPULeft    
-807708.29      1.5953708      37.043174      0              0            
-807644.01      3.5912356      45.76586       2.3322852      2139.5335    
-807634.38      2.4736078      35.826539      25.858267      1163.917     
-807606.72      3.0754879      37.679819      25.864778      838.43767    
-807604.14      4.0687911      49.79996       25.814597      675.59784    
-807565.47      3.3313194      40.657632      25.819429      577.73186    
-807597.6       2.9371804      39.991293      25.861886      512.30635    
-807643.93      3.118307       33.714271      25.89354       465.4301     
-807682.11      2.4204921      34.714223      25.856151      430.21071    
-807665.75      3.8309876      34.817806      25.855283      402.73262    
-807649.77      3.5237649      36.183005      25.895483      380.64335    
-807659.07      2.5592546      28.94386       25.859705      362.52389    
-807626.89      3.0698894      32.018492      25.850685      347.36535    
-807584.95      3.5608541      41.308393      25.859668      334.47436    
-807565.02      2.8783124      39.402923      25.898669      323.34947    
-807628.7       3.6973798      35.839649      25.863143      313.67357    
-807650.19      2.9632632      32.386241      25.879154      305.15159    
-807661.37      2.6741017      35.380255      25.890881      297.58176    
-807643         4.4157964      46.092544      25.894172      290.80879    
-807677.34      2.802046       37.708788      25.841377      284.7281     
-807639.96      3.9393635      40.252741      25.824678      279.22276    
-807615.51      2.8576969      39.028125      25.907825      274.17653    
-807561.58      4.0514105      46.008098      25.89946       269.55668    
-807603.07      4.1974541      50.025062      25.88452       265.30959    
-807609.98      4.1908695      39.884734      25.820752      261.40316    
-807637.43      3.3913188      36.542557      25.898397      257.75619    
-807640.89      4.7990959      45.143541      25.898242      254.3601     
-807677.77      3.1978376      38.798221      25.843695      251.20125    
-807662.18      3.5459161      35.174469      25.765682      248.26015    
-807634.11      2.7934876      33.585371      25.888432      245.46522    
-807607.35      3.5634514      34.567856      25.893994      242.82956    
-807601.92      3.8924521      42.394483      25.874411      240.34346    
-807594.61      3.6075741      38.626907      25.797333      238.00548    
-807601.89      4.2719043      35.709743      25.869269      235.77044    
-807639.95      3.0682131      31.561486      25.890595      233.63977    
-807667.54      3.176821       34.174391      25.896537      231.60761    
-807673.61      2.9098767      34.538769      25.806595      229.68423    
-807640.18      5.2660131      41.045905      25.872537      227.83152    
-807645.06      3.3569462      33.202204      25.882821      226.05411    
-807619.62      4.2505111      36.386564      25.859023      224.35224    
-807597.4       4.6085866      44.850837      25.801582      222.72603    
-807565.12      3.9494008      43.273944      25.854121      221.15142    
-807617.4       2.9982551      38.096168      25.879387      219.62925    
-807644.19      3.9735784      36.523226      25.846495      218.16514    
-807668.83      2.9941324      36.077225      25.839162      216.75113    
-807638.06      5.1298693      47.349122      25.895877      215.3742     
-807662.85      3.165114       36.343933      25.884187      214.04206    
-807643.07      4.7903367      37.280301      25.843747      212.756      
-807622.29      3.4916711      38.269362      25.856581      211.50559    
-807563.97      4.1149717      43.724084      25.918781      210.28189    
-807594.94      3.9213976      44.136011      25.895582      209.09482    
-807619.75      4.1136618      36.042751      25.846219      207.94565    
-807649.29      3.0417019      33.673526      25.865535      206.8233     
-807637.62      4.645563       41.885626      25.891466      205.72546    
-807666.82      2.8777669      35.791526      25.874136      204.6561     
-807663.34      2.9934339      35.070896      25.761542      203.62525    
-807640.6       3.1715692      32.793577      25.818824      202.61052    
-807599.17      3.9051172      36.549994      25.909044      201.60732    
-807595.91      4.4030063      38.344448      25.882218      200.62846    
-807601.45      3.8793266      41.444954      25.804483      199.67838    
-807615.52      4.7113666      33.697389      25.827389      198.74453    
-807630.77      2.9213483      34.14729       25.869872      197.82403    
-807656.74      3.953768       35.055648      25.894978      196.9181     
-807671.39      2.8021172      36.779329      25.81201       196.03729    
-807645.27      4.5263892      39.325933      25.816315      195.17145    
-807631.15      3.0717288      35.613682      25.895779      194.31238    
-807611.59      3.7703057      38.110794      25.934588      193.46384    
-807606.03      4.2449444      45.378003      25.847055      192.63757    
-807577.81      4.8965109      42.955177      25.851721      191.82377    
-807609.49      3.6682835      37.975243      25.896584      191.01816    
-807637.61      5.7388559      38.695959      25.864685      190.22751    
-807669.28      3.3261475      37.185015      25.804906      189.45356    
-807647.24      4.8616532      42.002866      25.83753       188.68748    
-807648.52      3.3541279      36.525954      25.879345      187.92812    
-807639.71      3.802882       35.375636      25.892772      187.1777     
-807625.48      3.3465221      37.938303      25.829653      186.44232    
-807580.12      3.3418502      39.16147       25.823606      185.71662    
-807586.82      3.005652       39.908447      25.895699      184.9938     
-807623.09      3.5378244      33.394334      25.866797      184.28193    
-807654.53      3.4962762      32.591514      25.840934      183.58037    
-807649         3.769446       35.628461      25.873626      182.8841     
-807653.27      3.246924       35.744682      25.781321      182.20264    
-807661.94      3.441397       33.462087      25.809856      181.52615    
-807643.43      3.4102627      33.364009      25.836584      180.85461    
-807605.59      3.077177       35.880879      25.858846      180.1882     
-807585.3       3.2481199      38.293848      25.890178      179.52609    
-807605.59      3.5605042      39.873332      25.866404      178.87209    
-807623.31      3.3853383      34.583935      25.833269      178.2266     
-807636.76      3.1578843      34.846999      25.912359      177.58145    
-807647.1       3.9197892      38.682786      25.900496      176.94294    
-807668.74      3.0500715      36.708586      25.856833      176.31301    
-807650.68      4.0668238      37.415667      25.841788      175.68944    
-807630.55      2.9830008      34.930865      25.865073      175.06947    
-807603.53      3.793897       37.260792      25.903152      174.45203    
-807605.01      3.503605       42.827192      25.892753      173.84018    
-807594.47      3.9334448      39.403079      25.849756      173.23581    
-807613.86      3.2037149      36.227499      25.881039      172.63402    
-807634.09      5.1198972      37.825282      25.896856      172.03568    
-807664.98      3.3860083      36.275082      25.852118      171.44442    
-807656.61      5.4613693      37.533642      25.801061      170.86038    
-807644.44      3.5693719      36.054075      25.831335      170.27846    
-807630.59      4.2205198      35.239114      25.879481      169.69755    
-807622.14      3.6162295      36.766072      25.860709      169.12155    
-807593.33      3.5362158      38.572341      25.815789      168.55182    
-807586.72      2.8215452      39.813172      25.864418      167.98282    
-807616.77      3.6088574      36.024329      25.892398      167.41572    
-807652.05      2.8588322      33.945034      25.850069      166.85439    
-807655.94      3.6553814      35.376129      25.7967        166.29926    
-807646.73      3.8964037      37.911462      25.819969      165.74596    
-807650.43      3.8965664      34.657846      25.804492      165.19654    
-807640.13      3.0597487      33.33209       25.877759      164.64618    
-807610.95      3.7519884      36.74696       25.870124      164.09916    
-807579.93      3.3635286      39.264361      25.889588      163.55401    
-807600.93      3.9281128      38.819761      25.876576      163.01234    
-807625.04      3.3338113      35.650267      25.879298      162.47325    
-807646.32      4.7650194      34.303084      25.881352      161.93671    
-807641.59      4.2927932      39.506063      25.896748      161.402      
-807659.77      3.6971403      37.057095      25.822083      160.87348    
-807648.33      3.626241       37.477278      25.793763      160.34874    
-807632.01      3.5650663      35.96967       25.821794      159.82495    
-807594.64      3.8556703      39.47193       25.87942       159.30071    
-807600.4       4.1553857      41.384647      25.865469      158.7794     
-807600.8       3.9914201      38.898414      25.802274      158.26323    
-807625.51      3.9575852      34.711158      25.822349      157.74822    
-807628.95      3.9836965      38.376839      25.868128      157.2332     
-807658.76      3.7189569      35.402739      25.823569      156.72224    
-807654.79      3.3118517      36.339147      25.742839      156.21684    
-807644.25      3.4512114      34.735746      25.872882      155.70755    
-807620.6       4.1190048      36.400365      25.883401      155.19973    
-807615.71      3.5240543      36.455121      25.929553      154.69181    
-807600.29      4.1333589      38.646119      25.818256      154.1905     
-807600.61      2.9823304      37.073475      25.849765      153.6896     
-807616.67      3.2438585      34.597502      25.835567      153.19102    
-807645.8       3.3347527      33.902436      25.838789      152.69399    
-807657.54      2.8296466      34.938821      25.833516      152.19881    
-807645.12      4.0857771      36.8298        25.758895      151.70827    
-807640.96      3.7149213      34.876251      25.821902      151.2167     
-807631.93      3.2734214      34.247699      25.86667       150.72487    
-807615.97      3.5723705      37.59062       25.883593      150.23391    
-807588.52      3.1390844      38.946263      25.857468      149.74546    
-807600.41      3.185277       38.633533      25.84419       149.25898    
-807627.38      3.3631523      35.29481       25.858575      148.77336    
-807648.71      3.3308754      34.528675      25.830864      148.29019    
-807643.78      3.6498023      38.200854      25.763619      147.81087    
-807651.44      3.5583634      35.651559      25.839176      147.33002    
-807645.15      3.5843498      34.925724      25.794084      146.85212    
-807633.11      2.7535571      34.395982      25.79922       146.37527    
-807599.47      3.9664708      37.489056      25.837045      145.89826    
-807594.61      3.5365299      39.648855      25.77069       145.42485    
-807608.77      4.0253434      37.517256      25.84119       144.95009    
-807633.26      3.5060862      35.060677      25.878349      144.4752     
-807636.82      4.308352       36.999229      25.910389      144.00037    
-807651.28      3.5479913      35.478386      25.86205       143.52837    
-807654.7       2.5914165      35.496704      25.782649      143.06019    
-807645.07      3.1375825      34.187331      25.826857      142.59155    
-807620.73      3.8400953      33.73973       25.873911      142.12241    
-807606.53      2.9054345      35.572549      25.887337      141.65387    
-807603.85      3.3528935      37.140826      25.877914      141.1867     
-807611.56      4.4797532      35.450712      25.835199      140.72192    
-807623.97      4.3716002      34.422955      25.881843      140.25663    
-807641.93      3.3912746      35.267519      25.934484      139.79066    
-807657.24      4.4222457      35.854101      25.850461      139.32833    
-807649         4.0932183      35.810223      25.860219      138.86662    
-807636.24      6.3642489      35.752579      25.882919      138.40514    
-807624.39      3.5603117      34.167167      25.919156      137.94346    
-807613.15      4.2246632      37.583226      25.883443      137.48378    
-807596.85      4.3750574      39.002949      25.882769      137.02501    
-807606.83      3.289017       37.369356      25.856179      136.5679     
-807627         3.3613344      34.933395      25.904844      136.11019    
-807651         3.3576004      34.696923      25.883569      135.65394    
-807647.91      4.2791103      36.862047      25.917425      135.19755    
-807645.93      4.3151844      35.59054       25.909386      134.7422     
-807638.9       3.1255338      34.722194      25.938567      134.28684    
-807630.1       2.9716204      35.241511      25.906128      133.83319    
-807603.5       3.0550019      36.944558      25.95396       133.37899    
-807595.61      3.0359125      39.164656      25.962304      132.92535    
-807611.24      3.294029       36.331361      25.957047      132.47263    
-807636.23      3.0718161      34.628747      25.980158      132.02004    
-807641.47      3.2361714      35.698348      25.899919      131.57038    
-807646.29      3.1582937      35.95861       25.888914      131.12171    
-807648.4       3.5892491      35.985902      25.849728      130.67479    
-807639.94      3.1981224      35.283926      25.859191      130.22827    
-807617.77      3.3401001      36.114748      25.900519      129.78134    
-807600.17      3.4611479      37.503504      25.889916      129.33534    
-807600.7       3.6494499      39.313743      25.893427      128.88991    
-807616.58      3.3062793      36.444019      25.891718      128.44515    
-807629.21      3.3941825      35.06047       25.89427       128.00097    
-807640.35      3.5272103      36.227017      25.882891      127.55768    
-807653.41      2.8015122      35.457664      25.853196      127.11574    
-807646.25      3.794501       36.557506      25.899258      126.67325    
-807633.26      2.8679147      35.348234      25.889242      126.2316     
-807615.12      3.3824569      36.513819      25.932295      125.78949    
-807606.64      3.8432057      39.014146      25.917514      125.34832    
-807602.49      3.6289555      38.375922      25.875978      124.90871    
-807612.37      3.0513598      36.403242      25.915895      124.46871    
-807626.7       3.3224343      35.757714      25.906916      124.02948    
-807648.92      2.9224751      35.103642      25.912242      123.59066    
-807648.65      4.0462753      36.055786      25.850727      123.15379    
-807641.74      3.988806       36.3499        25.888305      122.71658    
-807631.42      2.9917883      35.842914      25.922886      122.27909    
-807622.39      3.8504405      36.326999      25.93455       121.84186    
-807604.11      3.0313471      38.022469      25.929074      121.40527    
-807602.16      4.2770892      37.610809      25.915811      120.96947    
-807614.21      3.0779839      36.597564      25.906517      120.53437    
-807634.28      3.273901       35.424491      25.929233      120.09926    
-807645.32      2.785702       35.116439      25.923356      119.66475    
-807643.69      4.9937149      36.755418      25.914085      119.23092    
-807643.26      2.8789435      35.369531      25.901034      118.79782    
-807635.44      4.0664636      35.114865      25.892884      118.36535    
-807620.56      3.6182673      35.148927      25.872284      117.93375    
-807600.29      4.3415967      38.839355      25.869124      117.50264    
-807605.63      3.4687591      37.692368      25.921394      117.07089    
-807621.69      3.103147       36.371251      25.932793      116.63934    
-807635.48      2.6016031      35.335622      25.900406      116.20887    
-807641.3       3.8566937      36.347427      25.941725      115.77799    
-807647.53      3.2502462      36.516145      25.894448      115.34848    
-807645.65      2.8510536      34.844032      25.814304      114.92093    
-807633.25      3.1715757      34.513281      25.856646      114.49293    
-807614.08      3.0543031      34.693272      25.913161      114.06422    
-807604.74      3.5618449      37.106077      25.920061      113.63577    
-807610.89      3.7918194      36.520111      25.921347      113.20768    
-807622.76      3.747049       33.480718      25.899975      112.78037    
-807634.24      4.0705297      34.394046      25.920479      112.35305    
-807645.48      3.4977062      34.779978      25.909724      111.92631    
-807650.99      3.3682658      33.800151      25.855087      111.50093    
-807641.51      2.8175513      34.774501      25.863913      111.07574    
-807626.17      3.5233615      34.765717      25.89671       110.65029    
-807616.5       3.2546594      36.011418      25.891419      110.22529    
-807608.01      4.0367805      36.973004      25.891325      109.80062    
-807608.65      3.8228871      36.963891      25.889705      109.37632    
-807620.7       3.5328165      35.745472      25.909278      108.95201    
-807639.21      3.4020593      34.225954      25.920249      108.52784    
-807647.65      2.9101067      35.305983      25.892411      108.10448    
-807645.22      3.0361855      35.318119      25.861919      107.68197    
-807636.92      2.8389438      35.070851      25.878723      107.25947    
-807630.31      2.6766066      34.044312      25.921206      106.83656    
-807615.29      3.1277643      35.766925      25.923206      106.41394    
-807604.45      3.6914103      36.941935      25.889518      105.99218    
-807606.93      2.7885435      36.341079      25.902983      105.57051    
-807626.21      3.9227998      34.362591      25.937777      105.14856    
-807639.09      3.4179789      34.623788      25.907891      104.7274     
-807643.01      3.986583       35.647834      25.883874      104.30692    
-807642.19      3.273093       36.315471      25.853182      103.8872     
-807640.63      4.0848507      35.326076      25.856296      103.46771    
-807626.12      3.7206464      35.940363      25.856132      103.04849    
-807610.03      3.3367878      36.513259      25.904         102.62879    
-807601.78      3.0859778      38.237947      25.89656       102.20948    
-807611.89      3.2675006      36.985089      25.897877      101.79042    
-807626.39      3.193152       35.629733      25.886438      101.3718     
-807635.07      3.7140558      36.128936      25.926637      100.95283    
-807643.47      3.3934962      36.51417       25.909864      100.53438    
-807645.85      3.8780344      36.387864      25.856702      100.11697    
-807639.83      2.9961655      34.641493      25.862975      99.699719    
-807622.2       2.9192655      36.037121      25.898621      99.282187    
-807609.43      2.8651179      36.676653      25.923558      98.864542    
-807605.39      3.27609        37.903959      25.86782       98.447946    
-807614.56      3.8004794      36.313561      25.879083      98.031425    
-807624.25      3.3298142      35.078827      25.911374      97.614682    
-807636.29      3.2375501      36.315112      25.887463      97.198513    
-807646.15      3.3889568      35.85413       25.885633      96.782599    
-807643.29      3.5845283      36.278269      25.88839       96.366876    
-807633.2       3.8869632      36.370556      25.921474      95.950926    
-807622.48      3.2429667      35.752543      25.931511      95.535072    
-807611.32      3.8098426      37.598027      25.91688       95.119643    
-807607.66      3.2107158      37.78872       25.929266      94.704274    
-807612.63      3.8977254      37.648477      25.927496      94.289152    
-807629.83      2.9401786      35.094836      25.937665      93.874118    
-807640.58      3.1846593      35.415118      25.948796      93.459162    
-807645.62      3.340008       36.02011       25.913184      93.044884    
-807641.24      3.3075833      35.170852      25.905711      92.630913    
-807633.93      3.3955813      35.579064      25.923891      92.216918    
-807624.26      3.6723408      35.748368      25.878564      91.803703    
-807610.31      3.2247288      37.224656      25.884889      91.390605    
-807605.33      4.0561665      38.256116      25.902607      90.977484    
-807615.79      3.1445854      36.456722      25.886594      90.564758    
-807631.87      4.288963       35.579216      25.868967      90.152439    
-807640.43      4.9364329      35.735243      25.891074      89.740039    
-807643.57      3.7981888      35.814273      25.875951      89.328009    
-807642.4       3.0470346      35.138204      25.878776      88.91613     
-807635.86      3.304886       34.463612      25.910138      88.504063    
-807619.85      3.5055043      35.73494       25.864233      88.092721    
-807611.02      2.8880843      35.900555      25.889674      87.681258    
-807607.56      3.6350635      37.857666      25.886299      87.270013    
-807620.75      3.2721831      35.595318      25.930268      86.858442    
-807630.65      3.1135767      34.909053      25.92677       86.447093    
-807640.83      2.9820577      34.920479      25.920392      86.035996    
-807643.79      4.1742665      35.031605      25.872571      85.625609    
-807642.94      3.1499922      35.487501      25.884807      85.215253    
-807631.79      4.0573516      35.486638      25.877064      84.805148    
-807616.18      3.2042271      36.76847       25.897761      84.394983    
-807611.2       3.6108329      37.091124      25.936581      83.984564    
-807610.59      3.7998563      37.874795      25.927179      83.574417    
-807620.33      4.2701825      37.085518      25.931729      83.164389    
-807628.84      3.4671969      36.285471      25.908061      82.754776    
-807641.16      4.2065491      36.054963      25.886496      82.34555     
-807641.79      3.8417723      37.013388      25.89099       81.936432    
-807637.36      4.1718848      36.775817      25.898178      81.527395    
-807625.92      3.0152502      36.233798      25.903426      81.118459    
-807617.29      3.9725547      37.520482      25.858072      80.710135    
-807610.88      3.9031769      37.696745      25.879267      80.301743    
-807610.8       4.374701       39.162129      25.895279      79.893339    
-807619.17      2.8998622      36.068337      25.876728      79.485265    
-807633.34      3.5133309      36.410734      25.861785      79.07748     
-807639.53      3.5510487      36.798502      25.836156      78.670084    
-807640.58      3.9119985      36.491296      25.819775      78.262981    
-807633.13      2.9346065      36.709596      25.857091      77.85565     
-807626.61      3.5876341      37.608027      25.864168      77.448387    
-807616.83      3.0223609      37.531516      25.888448      77.04103     
-807608.12      3.6147371      38.880615      25.890849      76.633787    
-807610.14      3.5983672      38.416707      25.929423      76.226325    
-807623.65      3.1394065      36.771311      25.976465      75.818576    
-807634.86      4.3182399      36.64497       25.986318      75.410885    
-807638.24      3.7593606      37.296816      25.911948      75.004006    
-807637.94      4.1445802      37.109         25.876709      74.597575    
-807636.15      3.9967014      36.47843       25.867429      74.191353    
-807628.36      5.3370684      36.443199      25.892764      73.785034    
-807613.57      3.0863525      36.651716      25.908422      73.378706    
-807609.34      3.2382703      38.138388      25.906941      72.972519    
-807614.17      3.1423191      37.831685      25.902831      72.566494    
-807623.54      3.7865848      36.910426      25.873207      72.160845    
-807631.21      3.8055943      36.971029      25.899827      71.755093    
-807638.5       3.6997276      37.169669      25.896141      71.349493    
-807640.81      3.4976532      36.514157      25.820125      70.944643    
-807634.85      3.7415156      36.785407      25.89667       70.539274    
-807624.53      2.8343504      36.269602      25.933349      70.133727    
-807615.04      2.9052867      36.993551      25.886931      69.728675    
-807613.74      3.0601577      36.495322      25.870434      69.32387     
-807617.12      3.3471254      36.259054      25.911925      68.918849    
-807623.95      2.919324       36.206833      25.924029      68.51385     
-807634.87      3.2147972      35.941004      25.915325      68.109035    
-807641.63      3.8122108      36.03499       25.859842      67.704762    
-807637.23      3.5239314      37.067543      25.885761      67.300397    
-807632.3       3.7552613      36.149331      25.910691      66.895952    
-807624.63      3.1493272      36.073911      25.907119      66.491646    
-807617.56      3.4176417      36.679207      25.894164      66.087545    
-807611.32      3.3230232      37.452764      25.897883      65.683524    
-807616.51      3.4834171      36.665859      25.927972      65.27939     
-807626.8       3.654646       35.876166      25.924001      64.875395    
-807635.77      4.951276       37.006493      25.910987      64.471601    
-807639.72      3.8732762      36.154146      25.901659      64.067977    
-807637.99      3.8294847      35.210409      25.922621      63.664311    
-807631.02      3.2617968      36.182971      25.899677      63.260908    
-807624.24      3.5897529      36.490837      25.87424       62.857782    
-807614.68      3.2077917      36.923147      25.887942      62.45466     
-807611.8       3.2354229      37.719434      25.903487      62.05153     
-807618.63      3.4461978      36.572253      25.91631       61.648413    
-807629.8       3.815034       36.31055       25.863037      61.24575     
-807634.76      3.7368138      35.983741      25.858427      60.84321     
-807637.79      3.7238581      35.799063      25.857731      60.440765    
-807639.43      2.9342644      35.800976      25.904316      60.038109    
-807631.04      3.2911399      36.207499      25.818621      59.636098    
-807621.41      3.5158106      36.045776      25.850346      59.233968    
-807613.04      3.8792543      36.780662      25.832036      58.83204     
-807616.15      3.1655508      36.869287      25.814375      58.430307    
-807620.25      2.9745231      36.390653      25.861421      58.028364    
-807627.83      2.7865689      35.11832       25.895771      57.626298    
-807634.52      3.5065955      35.738836      25.896483      57.224316    
-807639.98      3.3367736      35.82242       25.920171      56.822282    
-807635.23      3.4631407      36.429445      25.904138      56.420434    
-807629.84      3.0751013      35.98574       25.899096      56.018703    
-807620.11      4.0573801      37.183339      25.912703      55.616979    
-807615.58      3.1873845      37.904067      25.924418      55.215277    
-807614.39      3.4528998      37.443547      25.918168      54.813698    
-807619.75      3.1632803      37.181702      25.947269      54.412042    
-807627.26      3.2585864      37.050573      25.917098      54.010644    
-807635.31      3.0656342      36.933189      25.919341      53.609318    
-807636.27      3.2054046      37.552853      25.898192      53.208192    
-807631.86      3.8884534      36.744658      25.915311      52.807056    
-807628.07      3.5653254      36.367879      25.847084      52.406368    
-807620.76      3.777616       36.338738      25.869182      52.005637    
-807615.45      3.0591026      36.247343      25.844121      51.605115    
-807613.93      3.5408339      37.211332      25.82576       51.204762    
-807620.41      3.5630796      36.124538      25.899124      50.804102    
-807629.23      3.726782       36.333486      25.886997      50.403581    
-807634.32      3.4406144      36.007499      25.865322      50.003246    
-807635.31      3.7217218      36.858303      25.894623      49.602838    
-807631.39      3.3477636      36.733953      25.858044      49.202686    
-807627.08      4.0701418      36.787645      25.855266      48.802618    
-807621.1       3.5024022      36.280217      25.818798      48.402798    
-807612.39      3.7518953      37.670658      25.842148      48.002931    
-807614.98      3.4064143      37.847273      25.904297      47.602839    
-807621.66      3.3162302      37.084232      25.911845      47.202786    
-807629.26      3.4659105      36.360966      25.908436      46.802823    
-807632.8       3.3102537      36.567085      25.87589       46.403081    
-807633.48      3.8848061      37.13973       25.903838      46.003282    
-807632.71      3.4495782      36.570479      25.877064      45.603674    
-807625.31      5.9388172      37.630174      25.848292      45.204261    
-807615.59      3.2191709      38.471197      25.849011      44.80491     
-807615.13      3.8464819      37.801377      25.862654      44.405564    
-807613.76      4.2032468      39.67325       25.790369      44.006593    
-807625.21      3.3169879      36.783115      25.871098      43.607338    
-807627.63      5.9969907      38.273159      25.880357      43.20811     
-807637.09      3.7396601      35.962915      25.861524      42.809025    
-807636.59      4.9874004      36.657822      25.852049      42.410041    
-807631.17      3.770842       36.836199      25.837051      42.011179    
-807623.03      3.6626379      36.404397      25.849636      41.612328    
-807617.89      3.5531455      37.268019      25.883791      41.213403    
-807615.06      3.3884933      36.753867      25.895902      40.814494    
-807617.19      4.4663042      38.029244      25.902015      40.415626    
-807625.04      4.5180227      36.948951      25.912633      40.016782    
-807632.5       4.8003465      36.749972      25.89136       39.618082    
-807637.14      3.8881379      36.3682        25.872641      39.219514    
-807635.53      4.3084671      36.371415      25.878687      38.820983    
-807631.28      3.402302       35.59793       25.865985      38.422558    
-807623.05      5.5769196      37.297071      25.864298      38.024198    
-807618.66      4.2152684      36.997798      25.917928      37.625707    
-807616.06      3.636078       36.548669      25.919871      37.227273    
-807619.99      5.1979278      37.153824      25.890175      36.829001    
-807626.74      3.0437045      36.141184      25.868392      36.430862    
-807634.61      3.5314015      35.794254      25.876241      36.032754    
-807636.15      3.1206698      36.21542       25.929165      35.634529    
-807635.26      3.6898579      36.464536      25.868831      35.23656     
-807630.73      4.4491941      36.494289      25.848708      34.83871     
-807624.81      3.5134394      36.441668      25.872865      34.440838    
-807618.39      4.0314899      36.051145      25.870355      34.043029    
-807615.79      3.796781       37.177456      25.844593      33.645352    
-807621.26      3.4011155      36.130255      25.857647      33.247688    
-807628.88      3.5599337      36.577906      25.871851      32.850034    
-807633.03      2.8698864      35.725813      25.886725      32.45239     
-807636.36      4.3528112      36.072995      25.85001       32.054906    
-807634.71      3.6319028      36.240568      25.83776       31.657507    
-807631.16      3.8849796      36.550721      25.849207      31.260126    
-807621.6       3.6398042      37.500783      25.865261      30.86275     
-807618.08      3.3627266      36.953448      25.868406      30.465416    
-807614.93      3.2169869      38.120158      25.918252      30.068       
-807623.3       3.2030929      36.542954      25.890334      29.670712    
-807629.08      3.6495349      36.865263      25.891533      29.273473    
-807633.4       3.4647776      36.791154      25.898787      28.876267    
-807636.45      3.595681       36.484847      25.860538      28.479208    
-807633.69      4.0452379      37.26122       25.827465      28.08228     
-807628.24      3.9238683      36.323888      25.83631       27.685376    
-807622.56      4.1427888      36.393463      25.867616      27.288442    
-807616.03      4.3601993      36.711564      25.897148      26.891487    
-807617.56      3.5312753      36.669093      25.885293      26.494609    
-807621.49      3.8520547      37.107971      25.864742      26.097827    
-807626.88      4.107055       36.370708      25.88819       25.701038    
-807633.16      3.1725259      36.038762      25.856998      25.304367    
-807635.04      3.2901498      36.932208      25.833928      24.907791    
-807633.24      3.4345085      36.594428      25.844051      24.511236    
-807625.5       3.4013369      37.143134      25.847636      24.114718    
-807621.64      3.2322623      37.636206      25.814172      23.718312    
-807615.9       3.8752924      37.817551      25.833757      23.321908    
-807615.53      2.9762397      37.712068      25.813413      22.925586    
-807619.51      4.1249536      37.997136      25.88558       22.529165    
-807628.07      3.6736671      36.696344      25.888679      22.132784    
-807631.71      4.2068043      37.146639      25.893763      21.736439    
-807632.87      3.3991065      37.314565      25.883933      21.340158    
-807632.19      4.2043469      36.483615      25.859049      20.943965    
-807625.69      4.522148       36.97391       25.854366      20.547822    
-807620.68      3.7552792      37.275356      25.86608       20.151701    
-807616.04      3.5388235      37.630691      25.850945      19.755648    
-807616.91      2.9171288      37.513276      25.842145      19.359649    
-807623.57      2.977448       36.305291      25.888061      18.963618    
-807628.89      3.3416138      36.099424      25.912053      18.567593    
-807632.18      3.2811185      36.626933      25.838419      18.171724    
-807633.39      4.151801       36.674318      25.80463       17.775944    
-807632.32      3.4032245      35.89506       25.833738      17.380157    
-807626.79      3.9726798      36.245142      25.863347      16.984368    
-807620.38      2.8588637      36.583204      25.852293      16.588633    
-807617.05      3.4741381      36.976419      25.839095      16.192955    
-807619.31      3.084709       36.407051      25.893454      15.797243    
-807625.85      3.9768665      36.448689      25.862847      15.401612    
-807630.06      3.6169558      35.807198      25.908142      15.005964    
-807633.19      4.01378        36.82142       25.883067      14.610388    
-807634.26      3.3003478      36.720573      25.882141      14.214852    
-807630.92      3.24207        36.864275      25.877875      13.819361    
-807625.12      3.5883501      36.313435      25.869085      13.423918    
-807620.73      3.6588524      37.066284      25.868875      13.028514    
-807618.14      3.0574018      36.130322      25.865697      12.63315     
-807619.16      3.112881       36.604628      25.876921      12.237813    
-807625.41      3.5820723      35.858268      25.851841      11.842538    
-807629.99      3.4449873      35.508406      25.854833      11.447295    
-807635.75      3.4977814      35.449961      25.829255      11.052111    
-807632.42      3.2890161      36.423072      25.860455      10.656935    
-807632.02      3.9687662      35.661715      25.818869      10.261828    
-807623.29      4.2313067      36.753747      25.848242      9.8667315    
-807622.21      4.0765744      36.051079      25.848765      9.4716688    
-807617.75      3.2702656      36.463843      25.838848      9.0766476    
-807619.97      2.7324466      36.202833      25.81191       8.6816785    
-807624.5       3.1774759      36.352636      25.90384       8.2866807    
-807633.22      3.308413       35.975587      25.90324       7.8917205    
-807633.02      3.4172693      36.704221      25.884916      7.4968081    
-807634.21      3.6151189      36.09448       25.802226      7.1019777    
-807629.51      3.4599254      36.030695      25.833804      6.7071606    
-807624.59      3.7382492      36.186286      25.837752      6.3123736    
-807618.65      3.0856555      37.136863      25.845881      5.9176147    
-807618.11      3.4474774      37.133798      25.862417      5.5228811    
-807619.05      3.0754207      37.486218      25.870123      5.1281775    
-807627.08      3.6210071      36.824896      25.860778      4.7335107    
-807632.28      2.967831       36.335174      25.836978      4.3388847    
-807632.31      3.8400812      36.890959      25.857051      3.9442834    
-807633.44      4.4843182      36.563826      25.863543      3.5497124    
-807630.99      3.9572043      36.889346      25.794008      3.1551905    
-807621.9       4.2121466      37.494681      25.845546      2.7606855    
-807617.98      3.3638694      37.314035      25.845807      2.366211     
-807617.25      3.5115175      36.974536      25.881477      1.9717618    
-807621.46      3.2289529      37.160795      25.905049      1.5773423    
-807627.46      3.4687246      36.834497      25.85276       1.1829613    
-807630.11      4.0435189      37.918085      25.910374      0.78860721   
-807633.96      3.3156631      37.382293      25.888384      0.39428751   
-807629.88      3.798273       38.258222      25.800059      0            
Loop time of 197.137 on 32 procs for 5000 steps with 1080 atoms

Performance: 4.383 ns/day, 5.476 hours/ns, 25.363 timesteps/s, 27.392 katom-step/s
73.5% CPU use with 32 MPI tasks x 1 OpenMP threads

MPI task timing breakdown:
Section |  min time  |  avg time  |  max time  |%varavg| %total
---------------------------------------------------------------
Pair    | 101.28     | 143.98     | 192.46     | 318.0 | 73.04
Neigh   | 0          | 0          | 0          |   0.0 |  0.00
Comm    | 2.4112     | 50.89      | 93.586     | 534.9 | 25.81
Output  | 0.026296   | 0.027612   | 0.028416   |   0.3 |  0.01
Modify  | 1.9156     | 1.9274     | 1.9371     |   0.3 |  0.98
Other   |            | 0.3124     |            |       |  0.16

Nlocal:          33.75 ave          48 max          21 min
Histogram: 8 8 0 0 0 0 0 8 0 8
Nghost:        1106.25 ave        1119 max        1092 min
Histogram: 8 0 8 0 0 0 0 0 8 8
Neighs:              0 ave           0 max           0 min
Histogram: 32 0 0 0 0 0 0 0 0 0
FullNghs:       5494.5 ave        7896 max        3378 min
Histogram: 8 8 0 0 0 0 0 8 0 8

Total # of neighbors = 175824
Ave neighs/atom = 162.8
Neighbor list builds = 0
Dangerous builds = 0

reset_timestep 0


variable interval equal 1000
thermo 10

variable nintervals equal $(v_PERIOD/v_interval)
variable nintervals equal 100
variable efield equal 1e-2*36.36*cos((step/${PERIOD})*2*3.14)
variable efield equal 1e-2*36.36*cos((step/100000)*2*3.14)
fix born all addbornforce 0.0 0.0 v_efield

variable Px equal f_born[1]+c_polarization[1]
variable Py equal f_born[2]+c_polarization[2]
variable Pz equal (f_born[3]+c_polarization[3])/vol
variable pe equal pe

fix aveP all ave/time 1 $(v_interval/2) ${interval} v_efield v_Pz v_pe f_born file Pz.${MODEL}.${STRUCTURE}.${TEMP}.$L.${ITER}
fix aveP all ave/time 1 500 ${interval} v_efield v_Pz v_pe f_born file Pz.${MODEL}.${STRUCTURE}.${TEMP}.$L.${ITER}
fix aveP all ave/time 1 500 1000 v_efield v_Pz v_pe f_born file Pz.${MODEL}.${STRUCTURE}.${TEMP}.$L.${ITER}
fix aveP all ave/time 1 500 1000 v_efield v_Pz v_pe f_born file Pz.BaTiO3-E0.${STRUCTURE}.${TEMP}.$L.${ITER}
fix aveP all ave/time 1 500 1000 v_efield v_Pz v_pe f_born file Pz.BaTiO3-E0.BaTiO3-sc333.${TEMP}.$L.${ITER}
fix aveP all ave/time 1 500 1000 v_efield v_Pz v_pe f_born file Pz.BaTiO3-E0.BaTiO3-sc333.340.$L.${ITER}
fix aveP all ave/time 1 500 1000 v_efield v_Pz v_pe f_born file Pz.BaTiO3-E0.BaTiO3-sc333.340.2.${ITER}
fix aveP all ave/time 1 500 1000 v_efield v_Pz v_pe f_born file Pz.BaTiO3-E0.BaTiO3-sc333.340.2.8

thermo_style custom step time temp press pe f_born v_efield v_Pz spcpu cpuremain

# dump 4a all custom 1000 dump.hyst.${MODEL}.${STRUCTURE}.${TEMP}.$L.${ITER}.bin id type xu yu zu fx fy fz
# dump_modify 4a sort id

fix nvt all nvt temp ${TEMP} ${TEMP} $(100*dt)
fix nvt all nvt temp 340 ${TEMP} $(100*dt)
fix nvt all nvt temp 340 340 $(100*dt)
fix nvt all nvt temp 340 340 0.2000000000000000111

run $(v_PERIOD)
run 100000
WARNING: non-constant efield is experimental, strongly distrust scalar/vector output (src/fix_addbornforce.cpp:193)
Per MPI rank memory allocation (min/avg/max) = 3.516 | 3.516 | 3.516 Mbytes
   Step          Time           Temp          Press          PotEng         f_born        v_efield         v_Pz          S/CPU         CPULeft    
         0   0              327.24619      130659.66     -807629.88     -296.67248      0.3636         0.055795723    0              0            
        10   0.02           343.86387      133392.85     -807627.76     -301.23921      0.36359993     0.056654606    28.260159      3538.2162    
        20   0.04           330.58398      140165.67     -807618.98     -308.12838      0.36359971     0.057950299    28.340983      3532.8079    
        30   0.06           352.6083       140088.43     -807620.3      -309.97056      0.36359935     0.05829682     28.201208      3536.5989    
        40   0.08           335.85561      142223.79     -807618.04     -309.85265      0.36359885     0.058274723    28.188577      3538.712     
        50   0.1            340.98684      138069.24     -807621.41     -307.31598      0.36359821     0.057797749    28.186613      3539.8883    
        60   0.12           358.32262      133667.99     -807628.4      -302.71852      0.36359742     0.056933217    28.250875      3539.2102    
        70   0.14           338.09805      129647.39     -807631.65     -296.74812      0.36359649     0.055810488    28.239702      3538.8245    
        80   0.16           339.45184      129825.58     -807633.73     -294.88517      0.36359541     0.055460279    28.19341       3539.1728    
        90   0.18           338.24253      130591.31     -807631.04     -297.53512      0.36359419     0.055958855    28.278738      3538.1769    
       100   0.2            330.149        135270.24     -807624.65     -302.93308      0.36359283     0.056974288    28.308594      3536.9369    
       110   0.22           353.14158      138079.31     -807623.95     -306.98166      0.36359132     0.057735967    28.309266      3535.8504    
       120   0.24           346.08363      141030.17     -807620.61     -309.47609      0.36358968     0.058205372    28.293256      3535.053     
       130   0.26           340.7752       141194.27     -807619.92     -309.63031      0.36358788     0.058234665    28.352991      3533.7511    
       140   0.28           340.34047      137559.59     -807622.34     -307.33511      0.36358595     0.057803297    28.35051       3532.607     
       150   0.3            339.68476      132490.28     -807628.87     -300.9936       0.36358387     0.056610915    28.355686      3531.526     
       160   0.32           333.84654      130192.27     -807632.84     -296.43546      0.36358165     0.05575396     28.309926      3530.8912    
       170   0.34           324.13854      129572.64     -807631.93     -296.26152      0.36357928     0.055721609    28.366871      3529.8733    
       180   0.36           339.93219      131449.32     -807632.11     -298.59996      0.36357677     0.056161816    28.456138      3528.3161    
       190   0.38           330.22334      134594.8      -807626.73     -302.9337       0.36357412     0.056977337    28.331375      3527.6988    
       200   0.4            338.80166      137375.08     -807625        -306.12322      0.36357132     0.057577681    28.354187      3526.9662    
       210   0.42           334.38993      139613.04     -807621.66     -309.18461      0.36356838     0.058153958    28.357292      3526.2514    
       220   0.44           315.57532      140224.93     -807617.96     -310.53416      0.3635653      0.058408287    28.320067      3525.7801    
       230   0.46           324.44277      137983.52     -807623.77     -306.20029      0.36356207     0.057593642    28.274801      3525.5639    
       240   0.48           323.14634      134655.72     -807628.98     -301.03104      0.3635587      0.056621875    28.294922      3525.2317    
       250   0.5            321.50326      131880.8      -807631.94     -298.00477      0.36355519     0.056053196    28.241306      3525.1656    
       260   0.52           326.55579      130349.47     -807632.88     -297.84166      0.36355153     0.05602308     28.264704      3524.9649    
       270   0.54           342.72094      130148.8      -807634.33     -298.74597      0.36354773     0.056193766    28.308504      3524.5508    
       280   0.56           325.07946      133455.07     -807628.82     -301.87933      0.36354379     0.056783762    28.345324      3523.9773    
       290   0.58           335.09129      137080.86     -807625.11     -307.03978      0.3635397      0.057755097    28.281475      3523.6931    
       300   0.6            325.55546      140272.27     -807620.24     -310.61048      0.36353547     0.058427436    28.321198      3523.2395    
       310   0.62           336.36372      139320.08     -807623        -309.29634      0.3635311      0.058180938    28.299843      3522.8779    
       320   0.64           325.17537      135702.01     -807626.07     -304.60345      0.36352658     0.057298884    28.342883      3522.3498    
       330   0.66           328.36902      133033.22     -807629.21     -301.73736      0.36352192     0.056760472    28.363865      3521.7535    
       340   0.68           320.77731      130007.26     -807631.28     -298.53641      0.36351712     0.056159076    28.433754      3520.9174    
       350   0.7            334.54904      130510.32     -807635.03     -296.50957      0.36351217     0.055778558    28.37012       3520.3338    
       360   0.72           318.94814      131559.65     -807630.65     -298.55034      0.36350708     0.056163247    28.35476       3519.8158    
       370   0.74           335.88214      136170.05     -807627.4      -303.96397      0.36350185     0.057182482    28.336298      3519.3684    
       380   0.76           335.07885      138383.51     -807622.32     -308.74972      0.36349647     0.058083649    28.32275       3518.9704    
       390   0.78           339.77071      140383.06     -807621.31     -310.06421      0.36349095     0.058331823    28.396317      3518.3411    
       400   0.8            336.11361      138308.78     -807623.54     -307.10731      0.36348529     0.057776448    28.298769      3518.0279    
       410   0.82           334.40526      137016.44     -807625        -305.17473      0.36347948     0.057413786    28.290678      3517.7372    
       420   0.84           339.42065      132093.36     -807629.99     -300.71682      0.36347353     0.056576027    28.317221      3517.3651    
       430   0.86           322.15553      131304.54     -807631.03     -297.02278      0.36346744     0.055881978    28.353114      3516.8903    
       440   0.88           333.58793      130338.64     -807633.58     -295.86163      0.3634612      0.055664473    28.290734      3516.597     
       450   0.9            327.78756      133606.13     -807627.93     -300.60471      0.36345482     0.056557847    28.341755      3516.1602    
       460   0.92           338.71846      135702.66     -807624.84     -305.14526      0.3634483      0.057413167    28.357332      3515.6852    
       470   0.94           346.03622      139102.76     -807622.43     -308.39411      0.36344163     0.058025504    28.2756        3515.4312    
       480   0.96           345.62861      138953.37     -807622.17     -308.56193      0.36343482     0.058058167    28.221184      3515.3144    
       490   0.98           336.51555      139286.08     -807620.72     -308.66125      0.36342786     0.058077967    28.231322      3515.1623    
       500   1              346.3728       135252.57     -807626.17     -304.55577      0.36342077     0.057306596    28.20923       3515.0571    
       510   1.02           343.04938      132771.09     -807631.09     -9569.5861      0.36341353     0.056271644    28.155822      3515.0734    
       520   1.04           326.24889      129984.29     -807632.1      -9460.581       0.36340614     0.055631796    28.231762      3514.8926    
       530   1.06           343.21936      130910.87     -807631.98     -9537.1809      0.36339862     0.056083394    28.228667      3514.7125    
       540   1.08           341.73031      132744.62     -807629.38     -9614.1672      0.36339095     0.056537306    28.211275      3514.5663    
       550   1.1            352.71833      136501.08     -807626.2      -9761.6869      0.36338313     0.057406048    28.316488      3514.1742    
       560   1.12           340.61984      138417.52     -807622.1      -9837.6075      0.36337518     0.057853785    28.223548      3513.9902    
       570   1.14           339.21579      140244.01     -807619.02     -9927.9351      0.36336707     0.058386292    28.24066       3513.7626    
       580   1.16           338.68284      137703.51     -807621.64     -9839.9787      0.36335883     0.057870333    28.233081      3513.547     
       590   1.18           339.44811      135182.67     -807626.22     -9693.2331      0.36335044     0.057008616    28.231901      3513.3292    
       600   1.2            345.8905       130819.16     -807631.55     -9548.7347      0.36334191     0.0561601      28.218581      3513.1346    
       610   1.22           340.88718      130613.03     -807631.77     -9516.7671      0.36333324     0.055973421    28.223565      3512.9245    
       620   1.24           332.46347      131258.65     -807630.16     -9529.3445      0.36332442     0.056048755    28.241963      3512.6727    
       630   1.26           351.33895      133249.66     -807631.12     -9580.8484      0.36331546     0.056353076    28.257553      3512.3869    
       640   1.28           336.69715      137466.18     -807623.14     -9769.6067      0.36330636     0.057464763    28.157184      3512.2949    
       650   1.3            342.97806      139290.13     -807620.23     -9890.5351      0.36329711     0.058177544    28.204784      3512.1031    
       660   1.32           338.75555      141577.4      -807619.01     -9906.0558      0.36328772     0.058270344    28.227131      3511.8641    
       670   1.34           345.2727       136427.77     -807624.88     -9744.9622      0.36327819     0.057324249    28.295045      3511.4956    
       680   1.36           355.34433      135660.52     -807627.46     -9702.5266      0.36326851     0.057076144    28.294581      3511.1285    
       690   1.38           336.57667      130833.37     -807629.69     -9550.7352      0.36325869     0.056184734    28.251448      3510.8393    
       700   1.4            342.06026      132311.68     -807631.89     -9498.8303      0.36324873     0.055880922    28.301986      3510.4587    
       710   1.42           338.85863      128631.84     -807633.55     -9433.2767      0.36323863     0.055496819    28.248087      3510.1731    
       720   1.44           342.64075      135585.87     -807625.56     -9699.6216      0.36322838     0.05706536     28.273495      3509.8417    
       730   1.46           342.39389      135006.54     -807623.37     -9773.8648      0.36321798     0.057503797    28.219999      3509.6009    
       740   1.48           346.38072      141514.91     -807619.85     -9896.2677      0.36320745     0.058225634    28.180015      3509.4245    
       750   1.5            355.31595      137220.72     -807624.45     -9790.2238      0.36319677     0.057603409    28.181685      3509.2406    
       760   1.52           340.94002      140029.33     -807620.56     -9844.4833      0.36318595     0.057924385    28.185324      3509.0461    
       770   1.54           348.80475      132163.52     -807629.03     -9612.1667      0.36317498     0.056559155    28.240671      3508.758     
       780   1.56           342.60949      132660.91     -807629.94     -9546.8852      0.36316387     0.056176749    28.271446      3508.419     
       790   1.58           332.05924      128921.26     -807632.5      -9422.9376      0.36315262     0.055449122    28.180015      3508.2238    
       800   1.6            342.2546       132716.42     -807628.68     -9586.6199      0.36314122     0.056414078    28.167542      3508.0441    
       810   1.62           345.0647       133798.3      -807625.67     -9698.0582      0.36312968     0.057071669    28.220099      3507.7791    
       820   1.64           344.07367      138451.93     -807622.52     -9792.017       0.363118       0.057626457    28.266836      3507.4411    
       830   1.66           348.66346      139950.98     -807620.88     -9865.6795      0.36310618     0.058061855    28.256521      3507.1181    
       840   1.68           346.47218      139862.83     -807620.33     -9872.9904      0.36309421     0.058106796    28.249447      3506.8048    
       850   1.7            348.16159      136920.47     -807624.44     -9749.0675      0.3630821      0.057379371    28.277548      3506.4496    
       860   1.72           340.8837       132640.8      -807628.87     -9577.0346      0.36306984     0.056368752    28.304649      3506.0553    
       870   1.74           341.65677      131084.51     -807631.04     -9511.553       0.36305745     0.05598525     28.236979      3505.7586    
       880   1.76           328.69055      130787.94     -807629.23     -9515.7134      0.3630449      0.056011673    28.233816      3505.4649    
       890   1.78           342.22281      133838.4      -807628.89     -9587.8882      0.36303222     0.056438483    28.246716      3505.1518    
       900   1.8            348.11481      134038.86     -807627.69     -9659.1101      0.36301939     0.056859735    28.227437      3504.8644    
       910   1.82           334.67168      140393.61     -807620.05     -9846.4505      0.36300642     0.057964612    28.271289      3504.5159    
       920   1.84           338.96118      139422.55     -807620.54     -9857.9839      0.36299331     0.058034604    28.231027      3504.2214    
       930   1.86           344.92608      139883.36     -807621.53     -9853.4103      0.36298005     0.058009797    28.235275      3503.9201    
       940   1.88           343.71462      133494.48     -807627.65     -9661.3545      0.36296665     0.056881211    28.236912      3503.6154    
       950   1.9            327.26826      135079.41     -807627.08     -9608.177       0.36295311     0.056570239    28.226825      3503.3229    
       960   1.92           340.86879      128093.19     -807634.34     -9446.6927      0.36293942     0.055621562    28.233437      3503.0205    
       970   1.94           328.69322      132868.26     -807629.9      -9535.6218      0.36292559     0.056147311    28.252183      3502.6931    
       980   1.96           335.85557      131111.27     -807631.73     -9519.8442      0.36291162     0.056056568    28.233677      3502.3886    
       990   1.98           341.25205      138387.75     -807624.14     -9788.2996      0.3628975      0.057639581    28.227905      3502.0903    
      1000   2              331.13762      136951.61     -807622.59     -9805.3231      0.36288325     0.057742094    28.238432      3501.7778    
      1010   2.02           342.85167      141803.9      -807621.17     -309.50339      0.36286884     0.058326142    28.34074       3501.3392    
      1020   2.04           325.10819      136562.3      -807624.05     -304.44698      0.3628543      0.057375558    28.349982      3500.8912    
      1030   2.06           333.33578      137337.85     -807625.6      -304.02027      0.36283961     0.05729746     28.30245       3500.5019    
      1040   2.08           327.41356      130231.36     -807631.81     -297.25072      0.36282478     0.05602392     28.254564      3500.1703    
      1050   2.1            326.49054      130806.42     -807632.54     -296.33904      0.3628098      0.055854398    28.338053      3499.7399    
      1060   2.12           336.00802      129738.23     -807634.3      -296.07441      0.36279469     0.055806845    28.318398      3499.3339    
      1070   2.14           336.68836      134033.7      -807628.69     -301.78864      0.36277943     0.056886309    28.381581      3498.8562    
      1080   2.16           336.12184      136388.3      -807625.44     -305.0782       0.36276402     0.057508823    28.365477      3498.3992    
      1090   2.18           335.46381      138573.01     -807623.74     -306.73263      0.36274848     0.05782317     28.294335      3498.0245    
      1100   2.2            322.81564      139665.7      -807620.61     -308.04557      0.36273279     0.058073189    28.350201      3497.5876    
      1110   2.22           321.5333       137649.58     -807622.28     -306.24229      0.36271695     0.057735751    28.362292      3497.1388    
      1120   2.24           334.30115      135331.62     -807627.93     -302.2719       0.36270098     0.056989726    28.333253      3496.7236    
      1130   2.26           325.98541      130669.17     -807632.75     -296.22098      0.36268486     0.055851379    28.320111      3496.3238    
      1140   2.28           327.19253      131625.53     -807632.04     -296.88875      0.3626686      0.055979795    28.331347      3495.9128    
      1150   2.3            341.67487      129715.04     -807634.48     -296.46282      0.36265219     0.055902013    28.432777      3495.3945    
      1160   2.32           337.98693      134415.24     -807628.11     -301.99682      0.36263564     0.05694812     28.352839      3494.9635    
      1170   2.34           333.31312      135058.67     -807625.95     -303.39942      0.36261895     0.057215245    28.273589      3494.6175    
      1180   2.36           327.47072      141464.96     -807619.66     -308.56209      0.36260212     0.058191526    28.284463      3494.2598    
      1190   2.38           338.72793      137319.58     -807622.64     -306.94825      0.36258514     0.057889883    28.385605      3493.7977    
      1200   2.4            330.03271      140087.49     -807620.63     -307.16997      0.36256802     0.057934435    28.382195      3493.3409    
      1210   2.42           335.51612      132134.06     -807629.09     -299.29154      0.36255076     0.056451195    28.269421      3493.0005    
      1220   2.44           339.58574      134040.02     -807629.98     -298.42823      0.36253335     0.056291062    28.229392      3492.7006    
      1230   2.46           336.81575      128726.48     -807633.18     -294.53495      0.3625158      0.055559382    28.238556      3492.3905    
      1240   2.48           348.08388      132844.92     -807630.35     -298.36997      0.36249811     0.056285546    28.29125       3492.0272    
      1250   2.5            344.76004      132153.4      -807629.66     -298.4261       0.36248028     0.056298904    28.371532      3491.5851    
      1260   2.52           346.52566      139376.8      -807621.86     -306.12166      0.3624623      0.057753557    28.299447      3491.2147    
      1270   2.54           336.40073      138472.61     -807619.57     -306.87465      0.36244418     0.057898512    28.333417      3490.8117    
      1280   2.56           343.66061      141298.26     -807618.62     -308.53411      0.36242592     0.058214539    28.296226      3490.4451    
      1290   2.58           340.46609      136742.68     -807622.99     -303.65556      0.36240751     0.057296959    28.303397      3490.072     
      1300   2.6            353.43416      135076.57     -807627.35     -300.93173      0.36238896     0.056785904    28.283851      3489.7177    
      1310   2.62           350.57486      130964.05     -807630.99     -296.82867      0.36237027     0.056014544    28.271961      3489.3746    
      1320   2.64           340.6699       130854.68     -807630.71     -295.66499      0.36235143     0.055797846    28.294465      3489.0104    
      1330   2.66           340.33334      130991.43     -807630.11     -296.18238      0.36233245     0.055898416    28.30493       3488.6365    
      1340   2.68           349.12824      133185.79     -807627.82     -299.75523      0.36231333     0.056575705    28.302737      3488.265     
      1350   2.7            342.96441      139384.63     -807620.76     -305.90443      0.36229407     0.057739373    28.359423      3487.8422    
      1360   2.72           340.18223      138445.38     -807618.88     -307.49733      0.36227466     0.058043142    28.434885      3487.3526    
      1370   2.74           352.88784      140254.98     -807621.1      -306.97127      0.36225511     0.057946969    28.345101      3486.9451    
      1380   2.76           353.74335      135945.39     -807625.59     -302.75546      0.36223542     0.057154258    28.306318      3486.573     
      1390   2.78           355.84481      135148.71     -807626.75     -301.91112      0.36221558     0.056997985    28.293084      3486.2129    
      1400   2.8            349.64067      129546.77     -807631.62     -296.26947      0.3621956      0.055935979    28.235799      3485.9034    
      1410   2.82           343.50227      131603.41     -807631.39     -295.63287      0.36217548     0.05581889     28.3599        3485.4848    
      1420   2.84           342.9425       131421.79     -807631.61     -295.57544      0.36215522     0.055811169    28.3006        3485.1186    
      1430   2.86           343.34158      137057.34     -807623.23     -304.06273      0.36213481     0.057416992    28.319766      3484.7359    
      1440   2.88           341.29417      136630.78     -807622.99     -304.2744       0.36211426     0.057460222    28.28931       3484.3797    
      1450   2.9            353.21425      140742.42     -807622.21     -306.69977      0.36209357     0.057921548    28.223176      3484.0799    
      1460   2.92           338.80583      136793.15     -807621.98     -305.21883      0.36207273     0.057645183    28.262842      3483.7458    
      1470   2.94           349.90182      137562.16     -807624.12     -304.66105      0.36205176     0.057543172    28.269996      3483.4053    
      1480   2.96           332.5041       131248.45     -807628.24     -298.37444      0.36203064     0.056359069    28.343002      3483.0041    
      1490   2.98           339.52588      133468.82     -807630.94     -296.58909      0.36200937     0.056025131    28.346515      3482.6006    
      1500   3              337.45298      128737.17     -807633.01     -294.58263      0.36198796     0.055649404    28.335318      3482.2069    
      1510   3.02           331.68472      134846.31     -807626.48     -9610.1479      0.36196642     0.056736081    28.266296      3481.87      
      1520   3.04           337.74773      133397.79     -807627.1      -9626.8937      0.36194472     0.05683835     28.240104      3481.5542    
      1530   3.06           348.01837      139566.92     -807623.87     -9775.1225      0.36192289     0.057716993    28.225012      3481.25      
      1540   3.08           335.90542      137805.63     -807622.34     -9780.5463      0.36190091     0.057752525    28.307263      3480.8793    
      1550   3.1            337.89484      140633.52     -807620.7      -9841.7886      0.36187879     0.058117703    28.244527      3480.5587    
      1560   3.12           338.71171      135200.69     -807626.87     -9654.295       0.36185653     0.057014024    28.228167      3480.2506    
      1570   3.14           335.68517      133155.7      -807629.63     -9553.0614      0.36183412     0.056419676    28.193322      3479.9694    
      1580   3.16           325.73225      130069.09     -807631.4      -9457.6322      0.36181157     0.055859559    28.217681      3479.6682    
      1590   3.18           337.19414      131653.9      -807631.47     -9508.274       0.36178888     0.056162187    28.250758      3479.3406    
      1600   3.2            334.9857       131694.67     -807630.55     -9531.0692      0.36176605     0.056300384    28.331903      3478.9504    
      1610   3.22           336.49098      135837        -807628.03     -9620.6011      0.36174307     0.056832862    28.302815      3478.5828    
      1620   3.24           334.02338      138084.86     -807623.55     -9754.9096      0.36171995     0.057629961    28.25068       3478.255     
      1630   3.26           339.10416      139526.56     -807621.05     -9857.0618      0.36169669     0.0582372      28.261659      3477.9185    
      1640   3.28           331.60785      138223.13     -807623.03     -9761.5592      0.36167329     0.057676686    28.236039      3477.6011    
      1650   3.3            349.87871      134700.24     -807629.61     -9630.4041      0.36164974     0.056905454    28.217375      3477.2972    
      1660   3.32           343.13978      132377.47     -807630.74     -9563.0004      0.36162605     0.056510871    28.339216      3476.9024    
      1670   3.34           332.42276      130910.71     -807631.05     -9506.6342      0.36160222     0.056181488    28.267294      3476.561     
      1680   3.36           326.49419      131048.1      -807630.89     -9483.8725      0.36157824     0.056050689    28.274311      3476.2143    
      1690   3.38           333.63109      131969.03     -807632.13     -9474.8501      0.36155413     0.056001101    28.188466      3475.9302    
      1700   3.4            329.30401      136091.18     -807625.41     -9667.1382      0.36152987     0.057141454    28.132759      3475.6859    
      1710   3.42           336.51396      137010.16     -807622.27     -9799.1482      0.36150546     0.057925661    28.171583      3475.4121    
      1720   3.44           334.27121      139540.7      -807621.48     -9805.0533      0.36148092     0.057964504    28.220528      3475.1022    
      1730   3.46           341.19078      137059.96     -807625.95     -9685.2836      0.36145623     0.057260372    28.172381      3474.8261    
      1740   3.48           344.05436      135579.91     -807625.98     -9685.2192      0.3614314      0.057263925    28.162795      3474.556     
      1750   3.5            336.68612      132510.79     -807627.65     -9587.51        0.36140643     0.056690136    28.237748      3474.232     
      1760   3.52           330.6447       131880.12     -807629.96     -9470.1752      0.36138131     0.056000237    28.239163      3473.9067    
      1770   3.54           326.20526      131860.03     -807630.21     -9427.5525      0.36135605     0.055752092    28.234697      3473.5842    
      1780   3.56           342.92593      133647.03     -807627.93     -9562.182       0.36133065     0.05655223     28.213022      3473.2763    
      1790   3.58           344.41214      136947.17     -807623.46     -9699.2158      0.36130511     0.057366725    28.208686      3472.9709    
      1800   3.6            359.76168      138020.22     -807624.64     -9716.2136      0.36127942     0.057471345    28.201124      3472.6701    
      1810   3.62           355.06496      138322.89     -807622.79     -9744.7982      0.3612536      0.057644544    28.228679      3472.3499    
      1820   3.64           345.05913      138217.27     -807621.85     -9722.349       0.36122763     0.057515883    28.202202      3472.0474    
      1830   3.66           337.1368       136726.09     -807622.68     -9654.1012      0.36120151     0.057116269    28.208297      3471.7401    
      1840   3.68           349.67716      132645.34     -807629.12     -9496.6281      0.36117526     0.056188699    28.227377      3471.4195    
      1850   3.7            343.23114      131874.76     -807630.47     -9418.6261      0.36114886     0.055731258    28.178963      3471.1309    
      1860   3.72           347.26777      131885.63     -807629.05     -9479.7865      0.36112232     0.056097275    28.128233      3470.8753    
      1870   3.74           351.41693      134511.06     -807625.84     -9597.4403      0.36109564     0.056797696    28.11336       3470.6286    
      1880   3.76           357.81852      136047.2      -807625.55     -9634.1972      0.36106881     0.057019459    28.138282      3470.3642    
      1890   3.78           353.37098      139397.91     -807622.17     -9718.8178      0.36104184     0.057524578    28.202796      3470.0567    
      1900   3.8            347.28421      139693.99     -807619.85     -9769.1698      0.36101474     0.057826948    28.215701      3469.7403    
      1910   3.82           351.31768      139109.36     -807620.86     -9755.37        0.36098748     0.057749622    28.207402      3469.4288    
      1920   3.84           349.96771      135075.67     -807626.77     -9562.0293      0.36096009     0.056609383    28.248701      3469.0904    
      1930   3.86           362.55457      132569.66     -807631.25     -9475.6541      0.36093255     0.056102302    28.213978      3468.7741    
      1940   3.88           342.44244      132952.65     -807629.51     -9447.9341      0.36090487     0.055942471    28.231084      3468.4464    
      1950   3.9            347.26854      133151.05     -807628.72     -9500.2677      0.36087705     0.056256682    28.238868      3468.1136    
      1960   3.92           348.72803      134878.24     -807627.75     -9544.9155      0.36084909     0.056525449    28.223304      3467.7903    
      1970   3.94           333.74824      137438.7      -807622.94     -9639.9784      0.36082098     0.057092863    28.194266      3467.4849    
      1980   3.96           349.4471       140040.58     -807620.51     -9794.2626      0.36079273     0.058011154    28.246193      3467.1467    
      1990   3.98           335.65319      138931.72     -807619.54     -9772.433       0.36076434     0.057886413    28.187977      3466.8443    
      2000   4              341.56311      137904.13     -807623.33     -9682.9962      0.36073581     0.057361176    28.228468      3466.5165    
      2010   4.02           346.1459       133765.48     -807628.99     -297.83567      0.36070713     0.05646372     28.229253      3466.1879    
      2020   4.04           349.46942      133476.19     -807628.94     -298.48211      0.36067831     0.056590795    28.295723      3465.8188    
      2030   4.06           325.27006      131115.86     -807629.54     -294.79852      0.36064935     0.055896892    28.257777      3465.4727    
      2040   4.08           338.93297      132338.53     -807631.86     -294.49601      0.36062025     0.055844038    28.215933      3465.1517    
      2050   4.1            345.29704      132715.32     -807629.76     -297.73561      0.36059101     0.056462929    28.272845      3464.7963    
      2060   4.12           350.8442       136970.67     -807625.4      -303.05586      0.36056162     0.057476553    28.367207      3464.3849    
      2070   4.14           341.18604      138579.5      -807622.56     -304.70229      0.36053209     0.057793541    28.521504      3463.8839    
      2080   4.16           331.19172      139681.5      -807622.13     -303.81553      0.36050242     0.057630091    28.417297      3463.445     
      2090   4.18           336.17556      137586.85     -807624.93     -301.833        0.36047261     0.057258765    28.345013      3463.0488    
      2100   4.2            341.61457      135136.39     -807625.97     -301.67581      0.36044265     0.0572337      28.36488       3462.6416    
      2110   4.22           335.20333      133224.46     -807629.72     -297.04678      0.36041256     0.05636019     28.365976      3462.2342    
      2120   4.24           320.88231      130650.68     -807630.61     -294.19519      0.36038232     0.055823829    28.196606      3461.9252    
      2130   4.26           329.32024      131720.33     -807630.88     -295.11353      0.36035193     0.056002806    28.175361      3461.628     
      2140   4.28           346.00439      132367.3      -807630.25     -298.17349      0.36032141     0.056588278    28.276045      3461.2724    
      2150   4.3            342.16452      135473.99     -807625.87     -302.00512      0.36029075     0.057320334    28.305766      3460.9       
      2160   4.32           337.62675      136845.44     -807625.32     -301.95689      0.36025994     0.057316081    28.350261      3460.5026    
      2170   4.34           334.01375      138800.6      -807623.19     -303.44803      0.36022899     0.057604071    28.301044      3460.1333    
      2180   4.36           348.57889      135335.36     -807625.87     -302.88704      0.36019789     0.057502541    28.307355      3459.7607    
      2190   4.38           336.09706      136008.21     -807626.35     -300.5254       0.36016666     0.057059137    28.32541       3459.3781    
      2200   4.4            325.82218      132048.92     -807630.76     -294.70425      0.36013528     0.055958782    28.23637       3459.0453    
      2210   4.42           338.0248       133175.88     -807630.97     -295.98642      0.36010377     0.05620716     28.229639      3458.716     
      2220   4.44           327.25568      130776.08     -807629.34     -296.17385      0.36007211     0.056247698    28.262554      3458.3684    
      2230   4.46           335.27771      135443.1      -807626.47     -299.92375      0.3600403      0.05696489     28.293148      3458.0039    
      2240   4.48           333.11011      134011.28     -807627.25     -298.85297      0.36000836     0.05676655     28.354567      3457.6061    
      2250   4.5            340.99216      139032.17     -807623.36     -303.60163      0.35997627     0.05767369     28.358667      3457.2065    
      2260   4.52           329.48931      135993.83     -807622.96     -302.40379      0.35994404     0.057451286    28.318015      3456.8292    
      2270   4.54           341.28649      138427.42     -807624.37     -302.34531      0.35991167     0.057445343    28.313026      3456.4548    
      2280   4.56           340.59807      132013.08     -807629.98     -296.54227      0.35987916     0.056347861    28.46302       3456.0008    
      2290   4.58           341.74543      133841.56     -807629.42     -297.02098      0.35984651     0.056443944    28.28815       3455.6403    
      2300   4.6            338.55488      130787.06     -807630.83     -295.03995      0.35981371     0.056072593    28.311453      3455.2676    
      2310   4.62           337.38145      133655.06     -807628.02     -297.43373      0.35978077     0.056532707    28.316178      3454.8925    
      2320   4.64           341.57068      133742.61     -807628.58     -297.34196      0.35974769     0.056520461    28.345704      3454.5022    
      2330   4.66           346.25865      137260.57     -807625.1      -301.22804      0.35971447     0.057264438    28.301671      3454.1351    
      2340   4.68           330.86265      138765.04     -807620.98     -302.89523      0.35968111     0.057586718    28.298779      3453.7697    
      2350   4.7            349.72799      136194.07     -807624.07     -302.16403      0.3596476      0.057453053    28.322748      3453.392     
      2360   4.72           346.96061      136004.11     -807625.29     -300.05875      0.35961396     0.057058095    28.374605      3452.9878    
      2370   4.74           344.6576       132986.18     -807628.1      -296.50883      0.35958017     0.056388355    28.407171      3452.5674    
      2380   4.76           346.94577      133928.61     -807626.82     -297.57263      0.35954624     0.056596003    28.292829      3452.2059    
      2390   4.78           352.33497      129913.71     -807630.71     -294.17145      0.35951216     0.055954428    28.346832      3451.817     
      2400   4.8            359.97633      134962.7      -807627.97     -297.38541      0.35947795     0.056571139    28.442106      3451.3803    
      2410   4.82           354.06361      132209.38     -807626.86     -297.4725       0.35944359     0.056593115    28.90607       3450.7158    
      2420   4.84           356.12435      139200.91     -807621.08     -303.08608      0.35940909     0.057666613    28.872566      3450.0701    
      2430   4.86           356.53153      135279.25     -807623.38     -300.73355      0.35937446     0.057224524    28.81503       3449.4547    
      2440   4.88           355.43897      138624.46     -807621.37     -302.2482       0.35933967     0.057518304    28.772586      3448.8619    
      2450   4.9            351.80577      134129.33     -807625.1      -298.0014       0.35930475     0.056715643    28.821799      3448.2475    
      2460   4.92           350.12211      136416.35     -807623.77     -298.83114      0.35926969     0.056879111    28.769614      3447.6602    
      2470   4.94           353.41852      130878.54     -807629.04     -294.12167      0.35923448     0.055988203    28.732833      3447.0925    
      2480   4.96           340.88064      134584.13     -807625.57     -295.71234      0.35919913     0.056296539    28.759242      3446.5139    
      2490   4.98           344.76385      132234.17     -807627.02     -294.9286       0.35916364     0.056152881    28.786666      3445.9242    
      2500   5              358.92243      136031.2      -807624.64     -299.23845      0.35912801     0.056979107    28.820743      3445.3205    
[...]
     98740   197.48         349.07574      135870.43     -807624.61     -9714.8868      0.36236891     0.057290729    30.175823      43.821065    
     98750   197.5          349.72653      133672.98     -807628.92     -9572.6717      0.36238762     0.056449144    30.181955      43.473071    
     98760   197.52         344.90274      135699.19     -807628.04     -9572.3296      0.36240618     0.056444235    30.214731      43.125075    
     98770   197.54         346.60864      134983.27     -807625.04     -9673.3654      0.36242459     0.057037105    30.238494      42.777079    
     98780   197.56         357.02933      137322.68     -807624.84     -9724.6225      0.36244287     0.057336442    30.318999      42.429076    
     98790   197.58         341.59161      135498.84     -807625.1      -9643.2146      0.362461       0.056853616    30.313787      42.081078    
     98800   197.6          355.57386      136428.45     -807626.92     -9644.1843      0.36247899     0.056856511    30.247846      41.733092    
     98810   197.62         346.37929      135628.26     -807623.97     -9700.6684      0.36249683     0.057186693    30.18604       41.385117    
     98820   197.64         346.60776      136379.11     -807622.97     -9731.7586      0.36251453     0.057367172    30.162792      41.037149    
     98830   197.66         341.07522      132871.63     -807628.16     -9543.5743      0.36253209     0.056255131    30.119494      40.68919     
     98840   197.68         352.5244       135194.35     -807628.1      -9593.184       0.36254951     0.056544842    30.146693      40.341231    
     98850   197.7          349.13666      133640.48     -807626.33     -9642.2582      0.36256678     0.056831391    30.149505      39.993274    
     98860   197.72         350.18665      137525.74     -807623.02     -9752.7903      0.36258391     0.05748015     30.203813      39.645314    
     98870   197.74         353.03245      135157.65     -807627.93     -9613.9674      0.3626009      0.056659313    30.282045      39.297348    
     98880   197.76         338.98149      137901.56     -807623.34     -9698.4073      0.36261774     0.057154299    30.240352      38.949391    
     98890   197.78         347.6497       135782.82     -807623.08     -9755.963       0.36263445     0.057490837    30.25698       38.601434    
     98900   197.8          346.84602      137230.91     -807622.66     -9770.9606      0.362651       0.057576587    30.258028      38.253482    
     98910   197.82         341.97175      133877.92     -807628.08     -9580.6881      0.36266742     0.056452827    30.259211      37.905532    
     98920   197.84         350.51397      134773.78     -807629.02     -9593.1815      0.36268369     0.056523907    30.146915      37.5576      
     98930   197.86         333.6136       134371.49     -807624.63     -9670.3779      0.36269982     0.056976222    30.190324      37.209666    
     98940   197.88         343.47775      135151.74     -807626.12     -9672.6426      0.36271581     0.056987053    30.235716      36.861729    
     98950   197.9          347.46206      135051.4      -807628.83     -9611.0382      0.36273165     0.056621633    30.198156      36.513801    
     98960   197.92         333.28771      135398.23     -807624.98     -9679.0533      0.36274735     0.057019863    30.176192      36.165879    
     98970   197.94         333.62231      138116.75     -807621.69     -9794.3697      0.36276291     0.057696725    30.238532      35.817952    
     98980   197.96         344.14739      135471.42     -807626.31     -9702.7247      0.36277832     0.057154433    30.265448      35.470027    
     98990   197.98         340.38769      136541.58     -807626.84     -9671.4174      0.36279359     0.056967618    30.261136      35.122105    
     99000   198            330.00239      132763.63     -807628.21     -9592.0482      0.36280872     0.056497753    30.30841       34.774181    
     99010   198.02         338.03852      136097.71     -807625.1      -304.06322      0.3628237      0.057308066    30.393223      34.426252    
     99020   198.04         339.1426       131656.63     -807629.83     -299.80228      0.36283855     0.056502677    30.360768      34.078331    
     99030   198.06         337.12223      136632.22     -807627.22     -302.10083      0.36285324     0.056933572    30.300354      33.730419    
     99040   198.08         338.21747      132903.69     -807628.81     -301.051        0.3628678      0.056733445    30.312016      33.38251     
     99050   198.1          334.61161      139242.55     -807622.79     -306.56         0.36288221     0.05776933     30.365565      33.034599    
     99060   198.12         338.04143      134223.6      -807626.07     -304.01392      0.36289648     0.057287284    30.391275      32.686689    
     99070   198.14         340.92851      137620.27     -807627.13     -303.31403      0.36291061     0.057153175    30.360832      32.338786    
     99080   198.16         331.87352      133854.48     -807628.13     -301.27845      0.36292459     0.056767424    30.357389      31.990887    
     99090   198.18         330.47876      136855.15     -807624.41     -304.79607      0.36293843     0.057428032    30.277646      31.643       
     99100   198.2          333.02525      132661.52     -807628.78     -300.94636      0.36295213     0.05670055     30.226978      31.295121    
     99110   198.22         335.39812      135173.33     -807629.26     -300.67625      0.36296568     0.056647543    30.25845       30.947243    
     99120   198.24         330.89546      133356.98     -807629.14     -300.33619      0.36297909     0.056581386    30.209197      30.599372    
     99130   198.26         334.10002      137712.37     -807623.65     -306.26096      0.36299236     0.057695465    30.193214      30.251507    
     99140   198.28         334.18086      135029.35     -807626.27     -303.71928      0.36300548     0.057214578    30.22484       29.903643    
     99150   198.3          329.59403      137565.26     -807626.34     -302.86869      0.36301846     0.057052304    30.365662      29.555768    
     99160   198.32         326.42255      134702.1      -807626.47     -302.33367      0.3630313      0.056949506    30.323635      29.207901    
     99170   198.34         341.62378      135369.67     -807626.43     -304.41209      0.36304399     0.057339005    30.339789      28.860036    
     99180   198.36         326.73407      134416.91     -807626.39     -302.25538      0.36305655     0.0569308      30.319192      28.512177    
     99190   198.38         332.16489      133364.35     -807630.31     -298.94397      0.36306895     0.056305161    30.30104       28.164323    
     99200   198.4          332.86932      134495.63     -807628.07     -301.13797      0.36308122     0.056716479    30.328568      27.816471    
     99210   198.42         331.80921      134995.21     -807624.97     -304.04958      0.36309334     0.05726294     30.3359        27.468621    
     99220   198.44         334.24462      137400.49     -807623.72     -305.25962      0.36310532     0.057488936    30.328408      27.120776    
     99230   198.46         331.73001      134965.84     -807627.07     -301.30884      0.36311715     0.056743044    30.316027      26.772935    
     99240   198.48         339.60938      138378.29     -807624.98     -304.06969      0.36312885     0.057261128    30.342123      26.425096    
     99250   198.5          343.91266      134680.25     -807625.3      -304.2614       0.3631404      0.057295408    30.32826       26.077261    
     99260   198.52         346.20558      137030.32     -807625.88     -303.45017      0.3631518      0.057140851    30.31079       25.729432    
     99270   198.54         347.98308      131363.74     -807631.7      -297.58254      0.36316306     0.056034215    30.272429      25.381609    
     99280   198.56         342.36674      135346.67     -807626.87     -301.21532      0.36317418     0.056716524    30.226206      25.033794    
     99290   198.58         344.80042      132850.29     -807625.85     -302.40511      0.36318516     0.056938832    30.230066      24.685981    
     99300   198.6          347.55282      137200.18     -807623.9      -304.34489      0.36319599     0.057302357    30.261028      24.33817     
     99310   198.62         352.87547      134177.48     -807627.52     -301.36962      0.36320668     0.056740501    30.257677      23.990362    
     99320   198.64         338.88482      139687.77     -807620.74     -305.87627      0.36321723     0.05758732     30.311984      23.642554    
     99330   198.66         354.17245      135699.88     -807623.16     -305.63397      0.36322763     0.057540053    30.336433      23.294748    
     99340   198.68         345.44722      138330.94     -807622.24     -305.07464      0.36323789     0.05743313     30.354254      22.946944    
     99350   198.7          356.78682      133037.75     -807629.87     -299.11051      0.36324801     0.056308758    30.304048      22.599147    
     99360   198.72         349.36556      134821.6      -807626.01     -301.81239      0.36325798     0.056815839    30.279067      22.251356    
     99370   198.74         342.64594      133487.31     -807625.08     -301.93268      0.36326781     0.056836944    30.244428      21.90357     
     99380   198.76         340.84449      136314.21     -807624.3      -302.42918      0.3632775      0.05692889     30.275693      21.555786    
     99390   198.78         349.68421      134086.39     -807627.68     -300.35189      0.36328704     0.056536378    30.300065      21.208004    
     99400   198.8          354.53906      136251.93     -807624.81     -303.93299      0.36329644     0.057208982    30.287637      20.860226    
     99410   198.82         338.98687      136999.29     -807620.94     -305.81219      0.3633057      0.057561236    30.341673      20.512448    
     99420   198.84         361.16258      135717.88     -807626.07     -303.85605      0.36331481     0.057191608    30.299148      20.164677    
     99430   198.86         349.22766      135658.79     -807626.93     -301.37825      0.36332378     0.056723837    30.296186      19.816909    
     99440   198.88         341.98512      134501.51     -807625.42     -302.10647      0.36333261     0.056859517    30.328562      19.469143    
     99450   198.9          350.64941      135434.16     -807624.99     -303.84434      0.36334129     0.057185236    30.393585      19.121376    
     99460   198.92         340.60637      133989.9      -807626.78     -300.82126      0.36334983     0.056614944    30.360272      18.773616    
     99470   198.94         334.97335      136938.17     -807625.09     -301.77427      0.36335823     0.056792989    30.278395      18.425864    
     99480   198.96         348.89147      133937.33     -807626.88     -302.16099      0.36336648     0.056864477    30.339712      18.078111    
     99490   198.98         355.40684      137250.86     -807623.55     -306.50847      0.3633746      0.057681353    30.358534      17.730362    
     99500   199            343.16785      134211.98     -807625.84     -302.76729      0.36338256     0.056976056    30.313549      17.382618    
     99510   199.02         338.83056      138301.17     -807624.11     -9724.3393      0.36339039     0.057185275    30.189535      17.034885    
     99520   199.04         343.9602       133877        -807626.69     -9676.0477      0.36339807     0.056900086    30.181764      16.687156    
     99530   199.06         340.55205      136573.99     -807623.33     -9770.3203      0.3634056      0.057453266    30.213054      16.339428    
     99540   199.08         344.28988      132807.4      -807628.6      -9624.5231      0.363413       0.05659477     30.237121      15.991702    
     99550   199.1          339.34021      136509.75     -807626.95     -9655.9843      0.36342025     0.056778638    30.254934      15.643979    
     99560   199.12         330.87472      133878.14     -807626        -9657.728       0.36342736     0.05678778     30.206425      15.296262    
     99570   199.14         343.74135      136919.68     -807623.78     -9785.9753      0.36343432     0.057540776    30.200723      14.948548    
     99580   199.16         346.16579      134139.26     -807627.35     -9689.9023      0.36344114     0.056974805    30.215923      14.600837    
     99590   199.18         339.5772       137773.54     -807625.51     -9718.4912      0.36344782     0.057141853    30.23721       14.253129    
     99600   199.2          333.40081      135624        -807624.57     -9727.7226      0.36345435     0.057195102    30.281552      13.905421    
     99610   199.22         341.1271       135770.38     -807625.08     -9747.8158      0.36346074     0.057312235    30.270093      13.557718    
     99620   199.24         337.51414      134515.18     -807626.98     -9673.9554      0.36346699     0.056876995    30.277633      13.210018    
     99630   199.26         338.55198      135147.2      -807627.58     -9660.7393      0.3634731      0.056798339    30.201519      12.862325    
     99640   199.28         337.56125      136060.35     -807626.19     -9703.7749      0.36347906     0.057050422    30.235537      12.514633    
     99650   199.3          337.94501      135045.17     -807626.41     -9702.3166      0.36348487     0.057040936    30.234631      12.166945    
     99660   199.32         336.07387      136108.12     -807625.77     -9713.3678      0.36349055     0.057105015    30.201939      11.819262    
     99670   199.34         337.61387      134165.35     -807627.03     -9682.6881      0.36349608     0.056923783    30.204966      11.471582    
     99680   199.36         340.0861       136910.71     -807624.88     -9762.5404      0.36350147     0.057392378    30.251054      11.123903    
     99690   199.38         337.01915      133804.34     -807625.98     -9717.3931      0.36350671     0.05712614     30.273082      10.776228    
     99700   199.4          330.99564      136950.33     -807624.51     -9735.7621      0.36351181     0.057233324    30.177121      10.428558    
     99710   199.42         342.08935      133193.59     -807629.12     -9639.4469      0.36351677     0.056666346    30.202551      10.080892    
     99720   199.44         333.27855      136244.45     -807624.69     -9738.3487      0.36352158     0.057246991    30.291322      9.7332257    
     99730   199.46         338.4298       132710.55     -807627.93     -9663.7136      0.36352625     0.056807518    30.202679      9.3855658    
     99740   199.48         349.519        136505.85     -807627.36     -9725.2788      0.36353078     0.057168713    30.154921      9.0379106    
     99750   199.5          342.38141      133892.98     -807628.3      -9666.5511      0.36353516     0.056822805    30.201882      8.6902573    
     99760   199.52         341.6826       136824.22     -807625.61     -9746.9244      0.3635394      0.057294594    30.274298      8.3426054    
     99770   199.54         345.06224      135514.54     -807626.58     -9732.6631      0.3635435      0.057210118    30.243131      7.9949577    
     99780   199.56         340.67846      136267.6      -807625.84     -9733.2601      0.36354745     0.057213006    30.196373      7.6473146    
     99790   199.58         335.22788      134741.09     -807626.72     -9681.8465      0.36355126     0.056910195    30.256245      7.2996734    
     99800   199.6          337.64629      135295.85     -807626.94     -9684.7368      0.36355493     0.05692661     30.228137      6.9520363    
     99810   199.62         329.37653      135091        -807625.44     -9695.1321      0.36355845     0.056987161    30.219674      6.6044027    
     99820   199.64         350.12947      133856.11     -807629.31     -9660.8495      0.36356183     0.056785123    30.225134      6.2567724    
     99830   199.66         334.42351      135163.51     -807626.39     -9683.3414      0.36356507     0.056916821    30.214247      5.9091456    
     99840   199.68         333.59831      135719.37     -807625.49     -9708.241       0.36356816     0.05706269     30.283519      5.5615209    
     99850   199.7          336.09097      136133.38     -807624.45     -9749.7836      0.36357111     0.057306402    30.295822      5.2138995    
     99860   199.72         331.27843      135346.61     -807624.91     -9713.9354      0.36357392     0.057095257    30.240972      4.8662825    
     99870   199.74         344.39731      135740.48     -807626.28     -9726.0314      0.36357658     0.057165934    30.2182        4.5186692    
     99880   199.76         340.1311       135116.57     -807625.95     -9716.5901      0.3635791      0.057110046    30.175678      4.1710598    
     99890   199.78         344.22303      136219.53     -807626.27     -9722.4417      0.36358148     0.057144065    30.292604      3.8234523    
     99900   199.8          334.22723      134026.83     -807626.23     -9680.557       0.36358371     0.056897537    30.311695      3.475848     
     99910   199.82         350.21129      135527.05     -807627.51     -9708.6197      0.3635858      0.057062148    30.219941      3.1282482    
     99920   199.84         339.37618      134944.17     -807626.23     -9703.4503      0.36358775     0.057031459    30.180989      2.780652     
     99930   199.86         334.08298      136822.36     -807623.98     -9749.4423      0.36358955     0.057301491    30.228752      2.4330588    
     99940   199.88         333.95539      134603.86     -807625.6      -9698.4933      0.36359121     0.057001782    30.207866      2.085469     
     99950   199.9          341.25807      136689.28     -807626.1      -9712.1781      0.36359273     0.057081975    30.201889      1.7378826    
     99960   199.92         347.48125      133682.73     -807627.02     -9710.9948      0.3635941      0.057074805    30.204253      1.3902995    
     99970   199.94         337.33093      136278.35     -807624.94     -9729.5442      0.36359533     0.057183633    30.198787      1.0427197    
     99980   199.96         344.7959       133970.42     -807628.58     -9647.9679      0.36359641     0.056704013    30.181288      0.69514321   
     99990   199.98         347.56934      135588.77     -807628.09     -9674.2514      0.36359736     0.056858342    30.184635      0.34756998   
    100000   200            338.21127      134748.32     -807625.75     -9711.7409      0.36359816     0.057078553    30.26534       0            
Loop time of 3475.68 on 32 procs for 100000 steps with 1080 atoms

Performance: 4.972 ns/day, 4.827 hours/ns, 28.771 timesteps/s, 31.073 katom-step/s
67.0% CPU use with 32 MPI tasks x 1 OpenMP threads

MPI task timing breakdown:
Section |  min time  |  avg time  |  max time  |%varavg| %total
---------------------------------------------------------------
Pair    | 2559.2     | 2803.3     | 3026.8     | 199.1 | 80.66
Neigh   | 0.001643   | 0.0017678  | 0.0019639  |   0.2 |  0.00
Comm    | 374.35     | 598.24     | 842.94     | 431.0 | 17.21
Output  | 2.3485     | 2.3596     | 2.3668     |   0.3 |  0.07
Modify  | 64.394     | 65.583     | 66.792     |   6.8 |  1.89
Other   |            | 6.185      |            |       |  0.18

Nlocal:          33.75 ave          40 max          28 min
Histogram: 2 4 4 3 4 5 1 2 5 2
Nghost:        1030.94 ave        1045 max        1012 min
Histogram: 1 1 3 3 5 5 4 2 3 5
Neighs:              0 ave           0 max           0 min
Histogram: 32 0 0 0 0 0 0 0 0 0
FullNghs:      5352.19 ave        6340 max        4410 min
Histogram: 2 4 4 4 4 4 1 2 5 2

Total # of neighbors = 171270
Ave neighs/atom = 158.58333
Neighbor list builds = 4
Dangerous builds = 0

Total wall time: 1:01:18
