
units		metal
atom_style	atomic

read_data ${STRUCTURE}.data
read_data BaTiO3-sc333.data
Reading data file ...
  orthogonal box = (0 0 0) to (11.898253 11.898253 12.912076)
  2 by 4 by 4 MPI processor grid
  reading atoms ...
  135 atoms
  read_data CPU = 0.319 seconds
replicate $L $L $L
replicate 2 $L $L
replicate 2 2 $L
replicate 2 2 2
Replication is creating a 2x2x2 = 8 times larger system...
  orthogonal box = (0 0 0) to (23.796507 23.796507 25.824152)
  2 by 4 by 4 MPI processor grid
  1080 atoms
  replicate CPU = 0.004 seconds

pair_style allegro
pair_coeff	* * ${MODEL}.pth Ba Ti O
pair_coeff	* * BaTiO3-E0.pth Ba Ti O
mass 1 137.3
mass 2 47.9
mass 3 15.9994

timestep 0.002
compute polarization all allegro polarization 3
compute allegro will evaluate the quantity polarization of length 3 (src/compute_allegro.cpp:53)
compute polarizability all allegro polarizability 9
compute allegro will evaluate the quantity polarizability of length 9 (src/compute_allegro.cpp:53)

thermo_style custom pe fmax fnorm spcpu cpuremain

variable efield equal 1e-2*36.36
fix born all addbornforce 0.0 0.0 ${efield}
fix born all addbornforce 0.0 0.0 0.3636

thermo 10
min_style fire
#minimize 0.0 1e-6 100 100
velocity all create ${TEMP} ${SEED} dist gaussian rot yes mom yes
velocity all create 300 ${SEED} dist gaussian rot yes mom yes
velocity all create 300 25721 dist gaussian rot yes mom yes
fix nvt all nvt temp ${TEMP} ${TEMP} $(100*dt)
fix nvt all nvt temp 300 ${TEMP} $(100*dt)
fix nvt all nvt temp 300 300 $(100*dt)
fix nvt all nvt temp 300 300 0.2000000000000000111
run 5000
Neighbor list info ...
  update: every = 1 steps, delay = 0 steps, check = yes
  max neighbors/atom: 2000, page size: 100000
  master list distance cutoff = 8
  ghost atom cutoff = 8
  binsize = 8, bins = 3 3 4
  1 neighbor lists, perpetual/occasional/extra = 1 0 0
  (1) pair allegro/kk, perpetual
      attributes: full, newton on, kokkos_device
      pair build: full/bin/kk/device
      stencil: full/bin/3d
      bin: kk/device
Per MPI rank memory allocation (min/avg/max) = 3.516 | 3.516 | 3.516 Mbytes
    PotEng          Fmax          Fnorm          S/CPU         CPULeft    
-807708.29      1.5954829      37.042387      0              0            
-807647.51      3.5422938      44.731113      2.2283035      2239.3728    
-807636.15      2.5315257      35.134614      25.909909      1213.5448    
-807604.99      3.5332491      37.962611      25.877275      871.42541    
-807604.56      4.2026208      50.056232      25.831878      700.25672    
-807571.01      3.9625893      39.726305      25.832241      597.40015    
-807604.72      2.8673941      38.233053      25.914055      528.59942    
-807645.18      4.2436691      34.447697      25.891131      479.36985    
-807684.9       2.6527078      34.027199      25.865813      442.37437    
-807669.34      3.972848       33.859659      25.827097      413.54581    
-807653.29      3.1833835      34.294782      25.873698      390.37136    
-807659.4       2.4284889      26.555388      25.894048      371.32666    
-807628.3       2.9637697      30.593599      25.880409      355.39999    
-807587.83      3.2035226      39.617677      25.874353      341.86751    
-807571.33      4.1769583      37.211762      25.8989        330.20034    
-807632.84      3.3056119      32.393081      25.880568      320.04614    
-807655.45      2.7494196      29.86622       25.864715      311.12008    
-807667.33      2.7563386      33.384178      25.860198      303.20058    
-807647.24      4.2666869      44.398048      25.900587      296.10191    
-807681.13      2.7951982      35.335586      25.901313      289.70955    
-807641.18      3.6090687      38.609622      25.83874       283.94026    
-807617.79      2.7565596      38.473908      25.891604      278.66555    
-807562.65      4.1961306      45.178291      25.895842      273.83386    
-807607.25      3.9089179      48.297463      25.833416      269.4081     
-807616.49      4.1043813      38.473073      25.823315      265.32189    
-807645.39      3.0342539      34.782474      25.856266      261.52223    
-807644.47      4.6087099      45.033994      25.882238      257.97803    
-807683.09      3.1978257      37.259943      25.880634      254.66815    
-807663.18      2.9067414      34.238471      25.83048       251.57975    
-807639.15      2.8874692      31.280546      25.89786       248.66128    
-807605.67      3.5536721      33.405074      25.912915      245.90811    
-807605.49      4.0429121      41.826829      25.900015      243.31058    
-807600.44      3.4890708      35.344662      25.841141      240.86414    
-807614.78      2.7487493      32.100518      25.879867      238.53431    
-807643.93      3.428774       30.479461      25.893987      236.31591    
-807675.4       2.2453712      30.832701      25.87548       234.20588    
-807678.27      2.1593693      31.836837      25.812929      232.20368    
-807645.74      4.0323342      36.864642      25.912587      230.27011    
-807646.53      2.4239081      30.638296      25.893317      228.42149    
-807620.71      3.4495717      33.938507      25.888711      226.64869    
-807603.04      3.6199472      42.612118      25.843044      224.95306    
-807574.76      3.7178703      40.064067      25.898038      223.31206    
-807627.54      3.1302279      34.135604      25.877542      221.73416    
-807652.31      3.6569453      35.076454      25.852577      220.21564    
-807675.69      2.6431379      34.97441       25.910247      218.73964    
-807643.89      4.3298187      46.046233      25.903694      217.31308    
-807667.03      2.7877978      34.370617      25.890649      215.93367    
-807643.58      3.5086826      35.70922       25.856564      214.60143    
-807623.18      3.3145429      38.172716      25.893308      213.30342    
-807567.11      4.3664309      42.320078      25.894961      212.0424     
-807604.67      4.1500386      41.709908      25.882547      210.81804    
-807628.06      3.3750829      33.325487      25.838567      209.63234    
-807657.87      3.2899517      32.148023      25.890873      208.47062    
-807647.29      4.6607215      39.744327      25.917352      207.33483    
-807672.97      2.8245563      33.797806      25.858194      206.23411    
-807666.49      3.1137521      31.945502      25.818905      205.16411    
-807642.34      3.9376421      30.321389      25.858035      204.11384    
-807600.47      3.1817616      34.405935      25.903759      203.08156    
-807596.75      3.9149413      38.312681      25.908972      202.07097    
-807608.34      4.3571813      38.067247      25.807615      201.09288    
-807625.84      3.318315       31.77016       25.88301       200.1262     
-807641.6       3.7963506      31.818295      25.901294      199.17658    
-807664.94      2.6730999      33.08559       25.878922      198.24751    
-807676.81      2.7151551      34.589238      25.790783      197.34481    
-807649.25      3.7018959      35.366007      25.827563      196.45445    
-807633.14      2.9965666      32.454984      25.885509      195.57377    
-807613.17      4.0350734      33.801096      25.896488      194.707      
-807604.55      3.8210701      43.989596      25.785093      193.86535    
-807586.31      3.8573209      38.809761      25.844379      193.0314     
-807621.22      2.9539126      34.936364      25.890564      192.2061     
-807647.12      4.0697589      36.72509       25.912596      191.39132    
-807675.89      3.23856        35.728929      25.886487      190.59097    
-807650.6       4.9005061      41.668472      25.862122      189.80429    
-807652.75      3.076336       34.606195      25.875938      189.02736    
-807639.95      3.4198347      34.726256      25.899715      188.25894    
-807623.7       3.0589614      37.755816      25.877701      187.50258    
-807577.99      3.6032084      38.642314      25.889366      186.75498    
-807594.58      2.8467609      38.459726      25.906074      186.0154     
-807630.69      3.0274548      31.66529       25.86636       185.28809    
-807661.92      2.7663152      31.580368      25.857232      184.57014    
-807653.66      3.6580348      36.262835      25.832088      183.86244    
-807659.77      3.122365       34.47438       25.785297      183.16629    
-807664.19      2.3230727      31.536559      25.795745      182.47686    
-807643.67      3.2899083      31.309272      25.841771      181.79123    
-807602.73      3.2741685      34.747031      25.864304      181.11104    
-807586.65      3.5273863      37.731366      25.897481      180.43535    
-807610.43      3.734646       38.131122      25.84345       179.77027    
-807633.85      3.2296602      31.172507      25.871029      179.10963    
-807644.5       3.3209362      32.542893      25.926428      178.45135    
-807655.72      3.7460636      35.297088      25.921481      177.79953    
-807672.25      2.7254802      35.218826      25.854006      177.15822    
-807653.12      3.610215       34.386254      25.832162      176.52397    
-807629.4       2.7319653      33.135945      25.917394      175.88944    
-807603.14      3.5772411      36.047494      25.89912       175.26146    
-807605.16      3.9778875      43.193901      25.847584      174.64195    
-807600.31      4.1153187      37.006597      25.825802      174.02872    
-807622.69      4.1288526      34.277387      25.897584      173.41569    
-807644.12      4.7116112      35.712957      25.921838      172.80583    
-807672.34      2.9242217      34.742016      25.855047      172.20464    
-807658.44      3.7621932      36.099715      25.792799      171.61156    
-807646.56      3.0143678      33.335752      25.856536      171.01876    
-807632.4       3.3128942      32.431586      25.884569      170.42839    
-807623         3.2044729      36.150585      25.877322      169.84244    
-807590.51      2.8817183      37.949069      25.853124      169.26176    
-807595.7       3.1746916      37.138055      25.890869      168.68266    
-807630.1       2.6898543      31.471021      25.893823      168.10706    
-807662.55      2.9484643      31.666952      25.911292      167.53408    
-807661.57      3.2914067      33.95461       25.836194      166.96871    
-807653         3.6590167      35.142168      25.878117      166.40437    
-807657.91      2.666401       31.117611      25.832335      165.84575    
-807641.77      2.5849584      30.300096      25.88222       165.2876     
-807609.36      2.6323753      33.930276      25.838931      164.73481    
-807581.72      3.0862882      37.912394      25.852465      164.18428    
-807610.42      3.194202       35.996309      25.814255      163.63862    
-807638.26      3.0380077      32.124034      25.846245      163.0941     
-807653.37      3.0711673      32.547962      25.809295      162.55418    
-807648.38      3.9081598      38.339871      25.918079      162.01151    
-807669.18      2.564944       33.650099      25.854814      161.47461    
-807653.33      3.5003409      34.729802      25.848041      160.94058    
-807631.61      2.9634807      32.861838      25.850155      160.40892    
-807594.34      2.744225       36.594847      25.854384      159.87947    
-807603.36      3.8499674      40.108845      25.791126      159.35536    
-807609.44      3.9104576      34.857829      25.808727      158.83266    
-807632.77      2.498635       31.261143      25.876303      158.30906    
-807641.07      3.6329539      35.31988       25.916996      157.78583    
-807669.5       2.7938386      32.873269      25.852167      157.2677     
-807661.45      2.7629014      33.7           25.811207      156.75348    
-807647.75      3.7594273      31.991641      25.88295       156.2381     
-807622.17      2.9697578      33.177785      25.892882      155.7243     
-807617.56      3.6345293      35.980054      25.909689      155.21177    
-807599.27      3.5376042      38.039239      25.815884      154.70517    
-807603.75      3.143712       35.801397      25.84096       154.19934    
-807627.16      3.4324935      32.898518      25.901735      153.69277    
-807658.16      3.3594306      32.410033      25.921533      153.1872     
-807662.75      3.3764865      34.253583      25.86016       152.68592    
-807651.37      3.6718763      35.466297      25.880311      152.18553    
-807646.08      3.3317578      32.957282      25.902021      151.68594    
-807635.57      2.9055113      31.783373      25.91663       151.18743    
-807611.64      3.4403921      36.658356      25.869065      150.69242    
-807588.48      3.103375       36.99849       25.922054      150.19692    
-807609.27      3.2571698      35.706322      25.811048      149.70725    
-807639.05      2.9198998      32.688064      25.901762      149.21557    
-807658.56      2.4932047      32.66736       25.864312      148.72679    
-807650.37      3.6664523      36.660133      25.883196      148.23874    
-807657.85      2.8662087      33.583325      25.914002      147.75096    
-807649.6       2.8310752      32.692388      25.868298      147.26626    
-807633.96      2.8577671      31.851112      25.89629       146.78189    
-807593.9       2.9851774      36.413107      25.861065      146.30012    
-807598.15      3.165645       38.612883      25.919481      145.81756    
-807615.42      3.0036014      34.638672      25.837023      145.3392     
-807641.89      3.5409886      32.360015      25.830865      144.86227    
-807641.71      3.3849502      36.366324      25.910719      144.38378    
-807659.92      2.9251766      34.533727      25.917721      143.90626    
-807658.51      3.0636933      34.749287      25.855779      143.43204    
-807646.84      3.4176663      32.4478        25.893962      142.95767    
-807616.8       4.17467        33.817427      25.926868      142.48335    
-807606.77      3.2123307      35.47371       25.896515      142.01117    
-807604.38      3.5223074      37.264663      25.879196      141.54064    
-807617.28      2.8896967      33.436679      25.856591      141.07191    
-807630.54      3.0983459      32.263621      25.857553      140.60418    
-807653.98      2.9148655      32.26935       25.909008      140.13583    
-807664.21      2.5348117      33.66252       25.854135      139.67023    
-807653.22      3.3843668      34.217076      25.824133      139.20653    
-807639.02      2.3858746      32.251323      25.852529      138.7429     
-807625.55      2.8516672      31.789653      25.918312      138.2782     
-807610.87      3.6340493      36.917753      25.872785      137.81582    
-807596.44      2.7200579      36.37945       25.828848      137.35569    
-807613.36      2.666323       33.854287      25.869073      136.89523    
-807640.35      2.7194037      31.395164      25.905632      136.43457    
-807659.93      2.2836979      32.847019      25.882223      135.97547    
-807654.04      3.6887509      35.011077      25.864354      135.51775    
-807652.38      2.7547238      32.734632      25.900909      135.05982    
-807643.47      2.8796837      31.916962      25.914119      134.60234    
-807630.48      2.9953042      32.700995      25.850732      134.14748    
-807599.83      2.8659591      35.327959      25.859337      133.69316    
-807599.15      3.0462538      37.105232      25.888049      133.23881    
-807620.58      3.4575996      33.075272      25.907264      132.78471    
-807647.61      2.9271069      31.153237      25.918833      132.33107    
-807647.99      3.5795952      33.715452      25.923906      131.87805    
-807655.07      4.4013738      33.875285      25.892038      131.42664    
-807656.78      3.3261462      32.844085      25.914245      130.97536    
-807645.25      3.0705984      32.170622      25.866148      130.52607    
-807617.98      2.9353711      33.063757      25.924432      130.07594    
-807601.77      3.3231762      35.611858      25.924286      129.62653    
-807607.69      2.7889319      35.652234      25.919889      129.17792    
-807624.77      2.8507348      32.72803       25.855667      128.73162    
-807637.77      3.5720492      31.864677      25.855965      128.28596    
-807649.5       3.5406235      33.399476      25.866274      127.84066    
-807660.92      2.5716081      33.105665      25.88943       127.39542    
-807654.64      3.0676758      32.30427       25.820384      126.9525     
-807636.6       2.8277066      31.83745       25.845977      126.50954    
-807617.25      2.8020944      33.391945      25.909275      126.06564    
-807609.23      3.3052578      36.804199      25.818429      125.62452    
-807606.61      3.4115644      35.851862      25.841704      125.1834     
-807618.46      3.0495542      33.710886      25.875773      124.74204    
-807638.59      2.7883263      32.400217      25.901743      124.30063    
-807657.33      3.4292739      33.620622      25.896889      123.8599     
-807655.5       2.9259521      33.814564      25.833219      123.42119    
-807648.06      3.0127108      33.298419      25.802442      122.9837     
-807635.03      3.7338717      32.504262      25.932743      122.54377    
-807624.4       2.4985227      33.786781      25.878139      122.10561    
-807602.37      3.1583553      36.325957      25.893962      121.66761    
-807601.72      3.5601624      36.658907      25.893297      121.23013    
-807619.84      3.4056883      33.754387      25.798686      120.79523    
-807647.05      3.5763704      32.555141      25.854747      120.35958    
-807651.9       2.7266009      34.335923      25.859972      119.92429    
-807649.87      3.1123802      34.80632       25.85084       119.48967    
-807646.87      2.9244131      34.396832      25.884165      119.05481    
-807640.93      2.8653186      32.25298       25.84656       118.6212     
-807616.29      3.5616912      34.488326      25.891921      118.18709    
-807600.63      3.0863038      36.971193      25.845124      117.75441    
-807605.04      3.0146659      35.62882       25.898018      117.32107    
-807630.94      2.8816783      32.464075      25.880169      116.88855    
-807641.97      3.4768319      32.390776      25.907357      116.45591    
-807649.14      3.2778252      33.810006      25.929183      116.02327    
-807653.4       3.138186       34.152981      25.911174      115.59142    
-807650.38      2.8918651      33.533156      25.857268      115.16106    
-807634.6       2.7330408      32.109727      25.830679      114.73162    
-807612.02      3.2041541      34.329626      25.908075      114.30107    
-807606.18      3.6476438      36.799879      25.858524      113.87188    
-807612.07      3.4681879      35.908046      25.80181       113.44415    
-807627.53      3.4039028      32.824344      25.873954      113.01543    
-807637.58      3.1952318      33.044966      25.91281       112.58636    
-807654.93      2.5958062      32.890288      25.919593      112.15755    
-807654.86      3.1312344      34.233853      25.86648       111.7301     
-807646.92      2.8271738      32.498913      25.886004      111.30266    
-807628.18      2.7670978      33.719044      25.877634      110.87573    
-807619.66      3.920899       34.738396      25.851624      110.44963    
-807607.29      3.2268007      36.274191      25.810019      110.02461    
-807611.13      3.0511042      35.372012      25.850406      109.59921    
-807623.9       3.1885882      32.96707       25.905454      109.17318    
-807648.03      2.4893776      31.965962      25.915854      108.74731    
-807654.27      2.7717709      33.966907      25.872841      108.32253    
-807650.39      3.4784901      34.28437       25.905389      107.89752    
-807641.89      3.1845904      33.501371      25.880469      107.47327    
-807635.83      3.3368349      32.833209      25.899142      107.04903    
-807616.55      3.2155773      35.091912      25.836948      106.62614    
-807602.6       3.6826884      37.048141      25.883365      106.2028     
-807610.76      3.320631       35.162367      25.941637      105.7788     
-807631.77      3.7015395      34.032494      25.916417      105.35554    
-807648.48      3.2942844      33.268623      25.937243      104.93225    
-807649.91      3.1615157      34.444158      25.910921      104.5097     
-807648.99      3.001902       34.575319      25.830129      104.08874    
-807647.2       3.0139         33.056921      25.880085      103.66727    
-807632.26      3.1865735      33.083473      25.884431      103.24601    
-807610.71      3.1169903      35.072898      25.914419      102.82458    
-807603.71      3.7020339      35.916965      25.91252       102.40346    
-807617.85      3.4789905      34.562934      25.863401      101.98338    
-807634.56      2.7952038      32.425115      25.931451      101.56254    
-807643.12      4.9818431      33.174401      25.924455      101.14208    
-807650.06      3.331474       33.882819      25.918275      100.722      
-807653.22      3.2905496      33.544898      25.917585      100.30219    
-807644.1       4.0241076      33.48749       25.884651      99.883146    
-807624.17      3.8369734      34.100453      25.906837      99.464033    
-807612.65      3.7417813      35.37848       25.934471      99.044782    
-807609.74      3.7456141      36.167935      25.922789      98.625962    
-807619.37      3.7040345      34.005159      25.922381      98.207406    
-807628.13      3.5905601      33.338492      25.928094      97.789025    
-807645.71      3.267008       33.01825       25.92923       97.370881    
-807653.4       3.4391396      34.229748      25.911324      96.953237    
-807651         3.5804172      33.605604      25.921428      96.535697    
-807637.4       3.5216792      33.739674      25.890736      96.11882     
-807626.34      3.0997356      33.271921      25.922545      95.701745    
-807615.24      3.143089       35.523455      25.921395      95.284925    
-807609.53      2.8661541      35.419966      25.900262      94.868621    
-807614.85      3.1580785      34.280642      25.896936      94.452588    
-807633.32      2.9885939      33.402819      25.925136      94.036412    
-807650.87      2.4887492      32.518203      25.907371      93.620694    
-807651.31      3.7097368      34.077549      25.841009      93.206056    
-807647.3       3.7072534      33.506747      25.821027      92.79188     
-807640.56      3.285915       33.176116      25.860663      92.377399    
-807627.19      2.8783631      33.606572      25.859659      91.963135    
-807611.82      3.0694233      35.170252      25.823537      91.549527    
-807603.41      3.1586079      36.40368       25.862247      91.13563     
-807620.76      3.0571672      34.147097      25.91296       90.721308    
-807638.95      2.5500929      32.564575      25.883243      90.307555    
-807647.7       2.7398543      33.846776      25.856967      89.89432     
-807648.29      3.7403618      34.995776      25.891761      89.480857    
-807649.12      3.4409034      33.651398      25.899845      89.067494    
-807641.67      3.0654813      32.793143      25.935716      88.653904    
-807621.65      3.395547       34.52132       25.931324      88.240564    
-807606.49      2.5354559      34.938335      25.921986      87.827531    
-807612.31      2.8443328      34.952323      25.952216      87.414343    
-807625.38      3.559791       33.764454      25.927103      87.001638    
-807637.31      3.2566486      32.950594      25.918261      86.589224    
-807644.72      2.8317326      33.630441      25.900721      86.177193    
-807652.87      3.4913523      34.231882      25.918068      85.765151    
-807648.72      2.7968676      33.59035       25.909354      85.353386    
-807635.88      3.1089448      32.998861      25.915615      84.941734    
-807617.64      2.8697497      33.541553      25.916389      84.53025     
-807612.47      3.5493954      34.699712      25.916816      84.118939    
-807613.55      3.3743881      34.970137      25.861756      83.708393    
-807623.65      3.6198337      33.464323      25.897952      83.297626    
-807637.41      3.4048825      32.403177      25.933485      82.886653    
-807649.15      3.6063311      33.456862      25.90792       82.476119    
-807653.56      4.0086774      33.53306       25.847783      82.066376    
-807643.09      3.8040589      34.524478      25.865709      81.656603    
-807633.45      4.1270289      33.546518      25.928685      81.246343    
-807621.1       3.0438263      34.707973      25.925375      80.836282    
-807613.13      3.3224919      35.765758      25.867223      80.426966    
-807611.23      3.5325343      34.939189      25.917107      80.017307    
-807623.93      2.9120055      33.934485      25.939094      79.607589    
-807643.86      2.8226796      31.710306      25.92523       79.198166    
-807649.54      3.1126482      33.80483       25.908843      78.789059    
-807649.09      3.4133378      33.12518       25.94026       78.379802    
-807641.62      4.0148276      33.320795      25.924291      77.970853    
-807636.31      3.4088188      31.23892       25.935251      77.561953    
-807618.75      3.7404681      34.112339      25.896219      77.153569    
-807607.46      3.0737739      34.998369      25.905688      76.745242    
-807612.92      2.7566155      34.189505      25.931393      76.336823    
-807631.19      3.0420014      32.306995      25.912077      75.928727    
-807642.51      3.4880748      33.369007      25.884402      75.521024    
-807647.25      2.856829       33.831057      25.907281      75.113253    
-807648.36      3.312927       34.328288      25.883148      74.705837    
-807645.57      2.6108644      33.480575      25.853256      74.298818    
-807631.8       3.701433       33.470848      25.895829      73.891555    
-807616.41      3.4511982      33.669055      25.896068      73.484423    
-807610.04      3.6897112      35.143091      25.911318      73.077292    
-807618.18      3.61885        34.386569      25.902177      72.670373    
-807629.53      3.0871488      33.482313      25.890454      72.263684    
-807641.35      3.7449756      33.052923      25.898504      71.857055    
-807648.41      2.6541121      33.72867       25.848183      71.450972    
-807649.07      3.5426766      34.108115      25.881365      71.044735    
-807642.73      2.6707765      32.350892      25.914164      70.638353    
-807628.23      2.9843198      33.422075      25.922999      70.232026    
-807616.3       2.8623627      33.991133      25.940681      69.825684    
-807611.65      3.5966706      35.93035       25.901474      69.419781    
-807618.43      3.1732647      33.792979      25.935682      69.01373     
-807629.05      2.9547725      32.999317      25.919151      68.607933    
-807642.21      3.4028793      34.009679      25.927289      68.202194    
-807650.21      2.9318017      34.550346      25.872685      67.796996    
-807645.97      3.5563996      34.538323      25.832677      67.392217    
-807637.5       3.3034924      34.22395       25.863712      66.987309    
-807627.63      3.6538489      34.013142      25.856622      66.582565    
-807615.99      2.8419561      34.739853      25.864605      66.177868    
-807609.2       3.3934475      36.280012      25.878367      65.773178    
-807617.03      3.2752181      34.733633      25.858999      65.368738    
-807632.78      3.4659304      33.303467      25.896265      64.964134    
-807643.41      2.9051062      34.438614      25.884435      64.559724    
-807647.63      2.9745742      34.513864      25.91038       64.155237    
-807645.03      3.2445292      33.866719      25.927148      63.750742    
-807637.76      3.7840578      33.33269       25.930144      63.346336    
-807628.18      4.7239764      33.686356      25.92329       62.942086    
-807612.75      3.0256175      34.728879      25.919967      62.537967    
-807608.97      3.5936458      35.611343      25.923506      62.133931    
-807620.87      3.8147135      34.622746      25.91794       61.730038    
-807636.25      3.2751668      33.443646      25.936593      61.326126    
-807641.33      3.2472314      34.274332      25.920704      60.922424    
-807646.39      3.6242225      34.571742      25.922713      60.518812    
-807646.87      2.9877702      33.879864      25.932267      60.11524     
-807638.97      3.2626713      33.0921        25.941377      59.711714    
-807622.49      2.8993172      33.883349      25.903475      59.308529    
-807613.05      4.2918533      35.100873      25.863194      58.905694    
-807613.4       3.7131826      34.974852      25.848183      58.503045    
-807625.24      3.7525668      33.477634      25.883447      58.100268    
-807633.96      2.7940525      32.144608      25.946289      57.697201    
-807646.04      3.2754871      32.330975      25.939976      57.294271    
-807649.4       2.3062765      32.621295      25.836756      56.892055    
-807646.08      2.7033837      32.672198      25.876959      56.489686    
-807634.71      2.6059212      31.794262      25.885797      56.087353    
-807624.01      2.859072       32.795646      25.861662      55.68525     
-807615.65      3.0636231      34.273232      25.889373      55.283073    
-807615.29      3.0209926      34.33107       25.885848      54.881004    
-807625         4.426039       33.841311      25.903658      54.478922    
-807638.12      3.4871098      31.563921      25.884154      54.077036    
-807645.99      3.6105294      33.2265        25.903302      53.67513     
-807649.28      2.836896       33.205379      25.862017      53.273536    
-807643.88      3.4787031      33.204377      25.861788      52.872025    
-807633.79      3.1160586      33.151522      25.900219      52.470388    
-807624.31      3.1806028      33.888335      25.90198       52.068827    
-807614.52      3.6730786      35.097578      25.925205      51.667228    
-807615.35      2.7840443      34.484925      25.921732      51.265732    
-807626.98      4.0293071      33.727973      25.902233      50.864421    
-807639.59      2.9035481      33.072028      25.871278      50.463348    
-807647.43      4.0178324      32.687715      25.878395      50.062318    
-807646.61      2.8203018      33.036211      25.89464       49.661285    
-807643.72      4.2445078      32.529888      25.879635      49.260405    
-807634.44      2.583491       32.467116      25.894378      48.859529    
-807618.94      3.0650705      34.522436      25.885797      48.458773    
-807612.22      3.5980817      35.201312      25.89879       48.058031    
-807616.83      3.1475089      34.448665      25.865007      47.657525    
-807629.4       2.807875       32.63512       25.902796      47.256916    
-807637.52      3.3860284      33.511943      25.909002      46.856355    
-807646.47      3.0397527      33.153275      25.888057      46.455965    
-807648.56      3.3100133      33.422407      25.858635      46.055781    
-807641.79      2.9742364      32.796237      25.876197      45.65559     
-807630.13      3.8136556      33.585136      25.86745       45.255507    
-807618.03      3.029545       34.987099      25.851202      44.855566    
-807614.02      3.3222758      34.832142      25.788471      44.455964    
-807617.42      3.4484706      35.352676      25.853135      44.056145    
-807627.15      3.1466215      33.665354      25.878339      43.656288    
-807639.41      4.3577377      33.500173      25.856123      43.256591    
-807645.56      3.7640575      34.326323      25.872068      42.856895    
-807646.41      3.9385993      34.153035      25.892949      42.457181    
-807636.27      3.458026       35.250049      25.922736      42.057416    
-807629.74      3.0235427      33.31294       25.877698      41.657901    
-807617.95      3.3242991      34.858892      25.864025      41.258505    
-807615.83      3.4396254      35.896138      25.867637      40.85916     
-807616.83      2.9490484      35.176785      25.88356       40.459818    
-807630.2       3.382124       34.37058       25.922314      40.060395    
-807641.02      2.9910227      33.479389      25.875028      39.661216    
-807646.3       3.3450827      34.224118      25.901957      39.262001    
-807641.22      3.3613967      34.574085      25.894284      38.86288     
-807637.48      3.0240184      34.432434      25.918381      38.463737    
-807629.46      3.569765       34.278088      25.891128      38.064756    
-807619.3       3.0650054      34.8617        25.868698      37.665916    
-807613.5       2.7012393      35.966198      25.855254      37.267183    
-807621.56      2.8737062      35.113162      25.856155      36.868507    
-807634.21      3.3398745      34.416763      25.888708      36.469779    
-807640.78      3.2069388      33.934469      25.854517      36.071225    
-807643.18      3.7035258      34.739341      25.899956      35.67258     
-807643.58      3.0434725      34.19537       25.886087      35.274041    
-807639.35      2.9193081      32.792133      25.891769      34.875543    
-807627.35      2.9207678      33.924522      25.866077      34.477185    
-807620.59      2.7420484      33.455502      25.866656      34.078883    
-807618.02      2.9682835      34.52559       25.816258      33.680791    
-807627.32      2.7253729      33.342172      25.864479      33.282605    
-807633.49      3.3580343      32.922983      25.88057       32.884427    
-807641.63      3.4202584      33.276697      25.876768      32.486316    
-807645.84      3.4621736      33.706354      25.900683      32.088192    
-807643.92      3.4554569      33.864454      25.863142      31.690232    
-807635.19      4.7810516      33.841327      25.884051      31.292267    
-807626.02      3.0607449      33.661934      25.89982       30.894314    
-807620.81      3.8481864      34.567427      25.872279      30.496491    
-807619.97      3.5426748      34.530404      25.867016      30.098736    
-807624.35      3.0714463      33.811917      25.906976      29.700929    
-807636.21      2.4780616      32.119162      25.927562      29.303123    
-807643.52      3.2623399      32.357446      25.916951      28.905401    
-807645.4       3.8510596      33.758824      25.879508      28.507829    
-807641.15      2.8997686      33.20318       25.898068      28.110263    
-807635.47      3.8537985      33.079384      25.819782      27.712941    
-807625.33      3.0349871      33.130656      25.835856      27.315626    
-807620.3       4.1865896      34.621204      25.826903      26.91838     
-807618.87      4.3140683      34.301817      25.934249      26.520933    
-807625.79      2.9869378      33.458504      25.894846      26.12363     
-807637.9       3.4292247      32.37281       25.854414      25.726468    
-807641.48      2.8349221      33.822885      25.860835      25.329339    
-807642.61      3.413555       33.147352      25.871344      24.932236    
-807638.87      3.6646744      33.257471      25.893544      24.535134    
-807634.3       3.1212615      33.669582      25.858247      24.138154    
-807624.43      3.5346592      34.029853      25.825394      23.741289    
-807618.22      3.1331042      34.391638      25.826475      23.344465    
-807618.6       2.8918124      34.272941      25.860583      22.947618    
-807630.63      3.0971608      33.055395      25.873349      22.550792    
-807635.99      3.0528219      33.626131      25.862493      22.154033    
-807640.74      3.4021506      33.569534      25.9103        21.757231    
-807640.94      3.136404       33.113743      25.808757      21.360662    
-807640.05      2.9497722      32.837241      25.791412      20.964164    
-807630.03      3.4500189      34.171618      25.832542      20.567634    
-807622.47      2.9410965      33.692543      25.816849      20.171173    
-807618.04      2.9864012      33.76613       25.859228      19.774681    
-807623.27      2.9538         33.592496      25.902079      19.378164    
-807629.51      2.8567067      33.050023      25.856917      18.981764    
-807638.59      3.0335012      32.183125      25.911763      18.585322    
-807640.53      2.9260806      32.884585      25.910628      18.188928    
-807641.7       2.6791065      33.338825      25.90265       17.792592    
-807636.83      2.7402353      33.148901      25.906358      17.396295    
-807629.72      3.1127459      32.427443      25.87298       17.000091    
-807620.64      3.1266615      33.575224      25.861353      16.603944    
-807619.93      3.5005731      34.244306      25.83305       16.207877    
-807622.57      3.5685639      34.475582      25.86917       15.811802    
-807630.45      4.0269366      33.622672      25.867899      15.41577     
-807636.69      2.7681133      33.505535      25.860153      15.019788    
-807642.92      2.7096069      33.653456      25.856272      14.62385     
-807641.34      2.6948022      33.224716      25.835879      14.227977    
-807635.89      2.7433786      33.264706      25.864329      13.832109    
-807629.06      2.7458755      32.793185      25.811139      13.436338    
-807622.93      2.6718179      33.663603      25.75896       13.040659    
-807621.32      2.9318901      33.687463      25.807617      12.644962    
-807622.16      3.0875383      33.18361       25.862526      12.249245    
-807633.62      2.755198       32.342087      25.836839      11.853592    
-807640.31      3.4167841      32.831916      25.858303      11.457955    
-807641.85      3.7351628      33.135849      25.822348      11.062388    
-807639.56      3.9657804      32.73637       25.874378      10.666812    
-807636.83      2.6764192      32.3323        25.908031      10.271246    
-807629.23      2.9575653      33.103642      25.898373      9.8757287    
-807623.5       2.5736895      33.885032      25.861027      9.4802786    
-807620.97      2.8340208      33.747955      25.881988      9.0848503    
-807629.21      2.9915782      32.954433      25.858126      8.6894763    
-807633.02      2.9621435      33.20384       25.874977      8.2941274    
-807639.18      2.6226618      32.744863      25.882615      7.8988106    
-807640.54      4.1975711      33.588277      25.877105      7.5035344    
-807640.96      2.5562416      32.466176      25.840584      7.1083152    
-807633.69      3.3810217      33.321784      25.84893       6.7131257    
-807626.43      3.0143388      34.025193      25.86005       6.3179651    
-807623.57      2.8526893      33.488104      25.867885      5.9228359    
-807623.53      3.6759951      34.023256      25.892364      5.5277312    
-807627.18      2.8605415      33.106286      25.896603      5.1326614    
-807633.68      4.3591334      33.141035      25.883289      4.737633     
-807639.03      3.6271224      32.753879      25.919569      4.3426279    
-807641.12      3.2104296      32.816463      25.888025      3.94767      
-807639.51      3.6223106      32.365093      25.902515      3.5527434    
-807633.18      2.7583106      32.347757      25.92767       3.1578468    
-807625.34      3.1060977      33.156532      25.912542      2.7629908    
-807623.54      2.7702029      33.278117      25.867666      2.3681791    
-807624.69      3.49763        33.47907       25.884103      1.9733981    
-807627.21      3.0957664      32.433992      25.92751       1.578646     
-807632.7       4.374602       33.358979      25.902824      1.1839326    
-807641.19      3.2802435      32.362029      25.856875      0.78925665   
-807641.8       2.9086884      32.787942      25.896078      0.39461135   
-807636.17      3.4386274      32.446418      25.84112       0            
Loop time of 197.298 on 32 procs for 5000 steps with 1080 atoms

Performance: 4.379 ns/day, 5.481 hours/ns, 25.342 timesteps/s, 27.370 katom-step/s
67.1% CPU use with 32 MPI tasks x 1 OpenMP threads

MPI task timing breakdown:
Section |  min time  |  avg time  |  max time  |%varavg| %total
---------------------------------------------------------------
Pair    | 101.63     | 144.26     | 193.07     | 310.1 | 73.12
Neigh   | 0          | 0          | 0          |   0.0 |  0.00
Comm    | 1.9472     | 50.734     | 93.35      | 522.8 | 25.71
Output  | 0.029452   | 0.030523   | 0.031878   |   0.3 |  0.02
Modify  | 1.9287     | 1.951      | 1.9739     |   1.1 |  0.99
Other   |            | 0.3234     |            |       |  0.16

Nlocal:          33.75 ave          48 max          21 min
Histogram: 8 8 0 0 0 0 0 8 0 8
Nghost:        1106.25 ave        1119 max        1092 min
Histogram: 8 0 8 0 0 0 0 0 8 8
Neighs:              0 ave           0 max           0 min
Histogram: 32 0 0 0 0 0 0 0 0 0
FullNghs:       5494.5 ave        7896 max        3378 min
Histogram: 8 8 0 0 0 0 0 8 0 8

Total # of neighbors = 175824
Ave neighs/atom = 162.8
Neighbor list builds = 0
Dangerous builds = 0

reset_timestep 0


variable interval equal 1000
thermo 10

variable nintervals equal $(v_PERIOD/v_interval)
variable nintervals equal 100
variable efield equal 1e-2*36.36*cos((step/${PERIOD})*2*3.14)
variable efield equal 1e-2*36.36*cos((step/100000)*2*3.14)
fix born all addbornforce 0.0 0.0 v_efield

variable Px equal f_born[1]+c_polarization[1]
variable Py equal f_born[2]+c_polarization[2]
variable Pz equal (f_born[3]+c_polarization[3])/vol
variable pe equal pe

fix aveP all ave/time 1 $(v_interval/2) ${interval} v_efield v_Pz v_pe f_born file Pz.${MODEL}.${STRUCTURE}.${TEMP}.$L.${ITER}
fix aveP all ave/time 1 500 ${interval} v_efield v_Pz v_pe f_born file Pz.${MODEL}.${STRUCTURE}.${TEMP}.$L.${ITER}
fix aveP all ave/time 1 500 1000 v_efield v_Pz v_pe f_born file Pz.${MODEL}.${STRUCTURE}.${TEMP}.$L.${ITER}
fix aveP all ave/time 1 500 1000 v_efield v_Pz v_pe f_born file Pz.BaTiO3-E0.${STRUCTURE}.${TEMP}.$L.${ITER}
fix aveP all ave/time 1 500 1000 v_efield v_Pz v_pe f_born file Pz.BaTiO3-E0.BaTiO3-sc333.${TEMP}.$L.${ITER}
fix aveP all ave/time 1 500 1000 v_efield v_Pz v_pe f_born file Pz.BaTiO3-E0.BaTiO3-sc333.300.$L.${ITER}
fix aveP all ave/time 1 500 1000 v_efield v_Pz v_pe f_born file Pz.BaTiO3-E0.BaTiO3-sc333.300.2.${ITER}
fix aveP all ave/time 1 500 1000 v_efield v_Pz v_pe f_born file Pz.BaTiO3-E0.BaTiO3-sc333.300.2.3

thermo_style custom step time temp press pe f_born v_efield v_Pz spcpu cpuremain

# dump 4a all custom 1000 dump.hyst.${MODEL}.${STRUCTURE}.${TEMP}.$L.${ITER}.bin id type xu yu zu fx fy fz
# dump_modify 4a sort id

fix nvt all nvt temp ${TEMP} ${TEMP} $(100*dt)
fix nvt all nvt temp 300 ${TEMP} $(100*dt)
fix nvt all nvt temp 300 300 $(100*dt)
fix nvt all nvt temp 300 300 0.2000000000000000111

run $(v_PERIOD)
run 100000
WARNING: non-constant efield is experimental, strongly distrust scalar/vector output (src/fix_addbornforce.cpp:193)
Per MPI rank memory allocation (min/avg/max) = 3.516 | 3.516 | 3.516 Mbytes
   Step          Time           Temp          Press          PotEng         f_born        v_efield         v_Pz          S/CPU         CPULeft    
         0   0              293.98558      128428.72     -807636.17     -298.38511      0.3636         0.056117819    0              0            
        10   0.02           295.97567      132939.1      -807631.66     -303.23429      0.36359993     0.057029825    29.026376      3444.8168    
        20   0.04           305.47004      138103.64     -807627.4      -308.78289      0.36359971     0.058073394    29.026676      3444.4471    
        30   0.06           297.55976      140930.64     -807622.15     -312.92558      0.36359935     0.058852576    28.969515      3446.3567    
        40   0.08           296.62723      141194.65     -807621.71     -313.23607      0.36359885     0.058911053    28.935957      3448.1403    
        50   0.1            305.04481      136301.31     -807629.06     -307.00814      0.36359821     0.057739853    28.96975       3448.2665    
        60   0.12           297.15619      131801.86     -807635.03     -299.77575      0.36359742     0.05637976     28.962226      3448.3848    
        70   0.14           301.3723       126669.57     -807640.61     -294.80343      0.36359649     0.055444742    28.974363      3448.1643    
        80   0.16           295.22849      127433.15     -807639.52     -294.9455       0.36359541     0.055471626    28.963819      3448.0694    
        90   0.18           287.81773      128927.23     -807635.67     -297.76413      0.36359419     0.056001926    28.974375      3447.7793    
       100   0.2            305.6907       134138.26     -807631.74     -304.06954      0.36359283     0.057188028    29.011238      3447.0401    
       110   0.22           309.3693       137487.59     -807626.87     -309.43242      0.36359132     0.058196896    29.029677      3446.1739    
       120   0.24           299.32892      142580.43     -807620.22     -314.56821      0.36358968     0.059163084    29.053499      3445.1595    
       130   0.26           298.62206      138829        -807623.81     -310.88202      0.36358788     0.058470084    29.047492      3444.3028    
       140   0.28           309.66527      136342.44     -807629.81     -306.17416      0.36358595     0.057584947    29.02594       3443.7017    
       150   0.3            303.98865      129058.12     -807636.87     -298.30894      0.36358387     0.056105983    28.973279      3443.5516    
       160   0.32           296.17634      128517.13     -807636.78     -297.01232      0.36358165     0.055862457    28.977935      3443.3427    
       170   0.34           295.01552      125767.43     -807639.76     -293.7908       0.36357928     0.055256909    28.987597      3443.0498    
       180   0.36           295.69236      130959.76     -807635.46     -297.96085      0.36357677     0.05604161     28.952744      3442.9819    
       190   0.38           318.29727      133161.38     -807631.9      -304.56365      0.36357412     0.057283907    29.018558      3442.4731    
       200   0.4            302.3077       141049.91     -807621.55     -312.4108       0.36357132     0.05876029     29.046903      3441.8129    
       210   0.42           314.29122      140222.15     -807623.19     -312.2731       0.36356838     0.058734866    28.962618      3441.6587    
       220   0.44           307.17293      140496.6      -807623.95     -310.15774      0.3635653      0.058337487    28.930017      3441.6638    
       230   0.46           308.4367       134109.41     -807629.72     -304.42568      0.36356207     0.057259854    28.981606      3441.3716    
       240   0.48           301.71757      131681.74     -807632.87     -300.03631      0.3635587      0.056434773    28.954272      3441.2103    
       250   0.5            307.22175      125900.61     -807639.95     -293.51661      0.36355519     0.055208996    28.957475      3441.0189    
       260   0.52           303.52668      127769.94     -807638.18     -294.48861      0.36355153     0.055392382    28.936712      3440.9109    
       270   0.54           310.3031       130655.15     -807634.23     -299.3123       0.36354773     0.056300291    28.960673      3440.6795    
       280   0.56           310.08231      137284.26     -807625.93     -307.40099      0.36354379     0.057822392    29.018434      3440.1954    
       290   0.58           317.22334      140186.99     -807623.2      -311.08849      0.3635397      0.05851667     29.063229      3439.5381    
       300   0.6            311.81692      141631.49     -807621.46     -311.9245       0.36353547     0.05867461     29.028489      3439.0386    
       310   0.62           306.00126      138587.22     -807622.79     -309.75071      0.3635311      0.058266411    28.984217      3438.7184    
       320   0.64           318.78101      133897.05     -807630.05     -304.24592      0.36352658     0.057231629    28.985326      3438.3924    
       330   0.66           312.02074      129873.07     -807635.61     -297.72014      0.36352192     0.056004784    28.971233      3438.116     
       340   0.68           302.99556      126885.81     -807638.98     -293.09502      0.36351712     0.05513547     28.97193       3437.8331    
       350   0.7            306.36756      128192.92     -807636.85     -295.7692       0.36351217     0.055639281    28.969539      3437.5548    
       360   0.72           314.34772      130406.67     -807634.31     -299.66859      0.36350708     0.056373613    29.036907      3437.0511    
       370   0.74           309.40328      137850.83     -807626.13     -307.29644      0.36350185     0.057809395    29.03451       3436.5638    
       380   0.76           306.34911      139207.08     -807623.11     -310.24989      0.36349647     0.058365868    28.978726      3436.2575    
       390   0.78           301.06474      141838.78     -807620.29     -312.48194      0.36349095     0.058786666    29.046567      3435.7436    
       400   0.8            306.71818      137441.72     -807625.51     -308.36618      0.36348529     0.05801328     29.012272      3435.3394    
       410   0.82           312.47823      134081.42     -807631.28     -303.62672      0.36347948     0.057122552    28.963099      3435.0804    
       420   0.84           305.16753      128036.01     -807637.15     -297.10387      0.36347353     0.055896298    28.948851      3434.8574    
       430   0.86           301.34127      127629.2      -807638.73     -295.2927       0.36346744     0.05555648     28.973683      3434.5603    
       440   0.88           295.31483      128285.78     -807637.02     -296.50414      0.3634612      0.055785358    28.987086      3434.2247    
       450   0.9            309.01376      132081.91     -807633.41     -302.27056      0.36345482     0.056871272    28.98677       3433.8898    
       460   0.92           297.9903       135805.42     -807627.48     -306.96057      0.3634483      0.057754719    28.975888      3433.5824    
       470   0.94           303.15747      140183.93     -807623.47     -311.89152      0.36344163     0.058683555    29.015223      3433.1743    
       480   0.96           289.01182      139872.17     -807622.21     -311.34375      0.36343482     0.058581588    28.990925      3432.8286    
       490   0.98           306.81614      137377.15     -807627.11     -308.98348      0.36342786     0.058138597    28.96788       3432.5388    
       500   1              300.08277      131553.01     -807633.43     -301.86373      0.36342077     0.056800049    28.931718      3432.3326    
       510   1.02           290.49137      129464.22     -807636.07     -9530.8067      0.36341353     0.056043612    28.827295      3432.3653    
       520   1.04           283.9255       126553.79     -807638.74     -9420.3785      0.36340614     0.055395391    28.836299      3432.3625    
       530   1.06           295.69964      128731.76     -807636.78     -9534.6758      0.36339862     0.056068663    28.824544      3432.3734    
       540   1.08           295.19556      131489.36     -807633.45     -9641.8374      0.36339095     0.056700024    28.856995      3432.299     
       550   1.1            304.29876      137673.46     -807627.98     -9856.7749      0.36338313     0.057965237    28.859839      3432.2087    
       560   1.12           303.85611      139494.98     -807624.63     -9965.4048      0.36337518     0.058605346    28.859054      3432.1109    
       570   1.14           304.5617       140150.11     -807624.28     -9977.9382      0.36336707     0.058680361    28.884385      3431.9514    
       580   1.16           295.04416      136355.01     -807628.51     -9801.7718      0.36335883     0.057645632    28.873923      3431.8068    
       590   1.18           304.31356      132567.87     -807634.17     -9659.7347      0.36335044     0.056811603    28.913186      3431.5764    
       600   1.2            282.59617      128220.69     -807635.88     -9509.6153      0.36334191     0.055930022    28.956351      3431.2565    
       610   1.22           289.00516      127281.32     -807638.52     -9449.8594      0.36333324     0.055579899    28.953154      3430.942     
       620   1.24           301.70355      128431.14     -807638.49     -9507.6373      0.36332442     0.05592108     28.955672      3430.6217    
       630   1.26           301.25356      133512.14     -807631.32     -9734.5362      0.36331546     0.057257043    28.944427      3430.3219    
       640   1.28           302.14418      138045.37     -807625.94     -9909.3301      0.36330636     0.058286615    28.972024      3429.9694    
       650   1.3            300.14786      139980.68     -807624.73     -9937.4505      0.36329711     0.058453506    28.928544      3429.6966    
       660   1.32           303.19586      138903.73     -807625.68     -9917.9515      0.36328772     0.058340319    28.9418        3429.3976    
       670   1.34           298.09968      135044.53     -807628.89     -9791.9613      0.36327819     0.057600719    28.96679       3429.0531    
       680   1.36           308.20402      130362.14     -807635.26     -9629.2768      0.36326851     0.056645244    28.941999      3428.7517    
       690   1.38           285.0453       127656.94     -807638.2      -9429.6352      0.36325869     0.055472331    28.934384      3428.4622    
       700   1.4            288.36146      128811.21     -807638.38     -9435.5412      0.36324873     0.055508597    28.906065      3428.2191    
       710   1.42           307.83817      128607.54     -807636.9      -9568.1578      0.36323863     0.056290337    28.940812      3427.915     
       720   1.44           298.93729      135215.08     -807629.35     -9766.1995      0.36322838     0.057457055    28.895915      3427.6838    
       730   1.46           297.4325       137375.11     -807626.31     -9855.2496      0.36321798     0.057982618    28.821109      3427.5716    
       740   1.48           302.27774      141098.73     -807623.87     -9948.8904      0.36320745     0.058535245    28.887351      3427.3463    
       750   1.5            304.66232      137252.4      -807625.29     -9912.767       0.36319677     0.058324425    28.890871      3427.1122    
       760   1.52           310.92429      135772.63     -807629.15     -9808.1241      0.36318595     0.05771045     28.907256      3426.8496    
       770   1.54           299.82295      128880.56     -807636.28     -9526.9633      0.36317498     0.056057808    28.901427      3426.5938    
       780   1.56           296.22519      129325.91     -807637.38     -9466.4425      0.36316387     0.0557034      28.919826      3426.3076    
       790   1.58           298.36226      126293.79     -807637.85     -9459.8654      0.36315262     0.055666423    28.98021       3425.9295    
       800   1.6            301.42929      132135.71     -807632.47     -9636.6843      0.36314122     0.056708691    28.950514      3425.5961    
       810   1.62           308.00184      133480.98     -807631.17     -9707.557       0.36312968     0.057127568    28.968953      3425.2354    
       820   1.64           306.74078      140201.1      -807624.3      -9911.6272      0.363118       0.058330368    28.935203      3424.9239    
       830   1.66           310.47785      139252.07     -807623.31     -9956.7145      0.36310618     0.058597617    28.886022      3424.6818    
       840   1.68           308.5314       140053.66     -807623.47     -9934.7712      0.36309421     0.058470403    28.934209      3424.3692    
       850   1.7            307.32379      133139.41     -807632        -9651.0134      0.3630821      0.056802261    28.939952      3424.0478    
       860   1.72           313.29243      130545.49     -807636.29     -9530.8071      0.36306984     0.056096665    28.949858      3423.7123    
       870   1.74           302.25182      127029.4      -807636.85     -9461.8927      0.36305745     0.055692949    28.927527      3423.4068    
       880   1.76           297.81164      130113.76     -807634.36     -9516.1894      0.3630449      0.056014475    28.892387      3423.1478    
       890   1.78           309.14606      131577.67     -807634.28     -9564.5869      0.36303222     0.056301321    28.865768      3422.9224    
       900   1.8            316.75666      135891.19     -807628.57     -9776.4108      0.36301939     0.057550242    28.778977      3422.8094    
       910   1.82           314.43115      139622.85     -807622.53     -9956.6717      0.36300642     0.058613468    28.810328      3422.65      
       920   1.84           318.65754      139681.97     -807623.26     -9948.4465      0.36299331     0.058567163    28.903889      3422.3655    
       930   1.86           312.19883      137146.07     -807626.29     -9819.2716      0.36298005     0.057808813    28.917566      3422.0623    
       940   1.88           314.00577      132424.84     -807631.41     -9662.2933      0.36296665     0.056886738    28.95025       3421.7171    
       950   1.9            305.45887      130844.57     -807633.14     -9568.0948      0.36295311     0.056334246    28.898539      3421.4362    
       960   1.92           294.99976      127148.83     -807635.54     -9447.6623      0.36293942     0.055627271    28.945159      3421.0966    
       970   1.94           301.87937      130191.95     -807635.65     -9471.7438      0.36292559     0.055771187    28.941432      3420.7613    
       980   1.96           307.31784      131604.76     -807632.64     -9600.3938      0.36291162     0.056530876    28.922771      3420.4484    
       990   1.98           318.26951      138768.74     -807624.91     -9898.1289      0.3628975      0.058286324    28.959068      3420.0915    
      1000   2              310.71667      137589.07     -807624.31     -9893.0896      0.36288325     0.058258938    28.863341      3419.8481    
      1010   2.02           318.15977      140555.72     -807625.56     -309.02663      0.36286884     0.058236295    28.996285      3419.4471    
      1020   2.04           313.6772       134025.27     -807628.83     -305.58993      0.3628543      0.057590956    29.021075      3419.0186    
      1030   2.06           313.23846      134620.4      -807629.77     -304.90675      0.36283961     0.057464531    28.94345       3418.6804    
      1040   2.08           289.99579      127779.24     -807636.5      -295.40926      0.36282478     0.055676854    28.950771      3418.3339    
      1050   2.1            296.52055      129383.77     -807638.4      -294.54312      0.3628098      0.055515901    28.915855      3418.0266    
      1060   2.12           291.78374      127022.84     -807636.55     -296.22041      0.36279469     0.055834365    28.924909      3417.7086    
      1070   2.14           312.64154      134892.09     -807630.97     -304.88111      0.36277943     0.057469231    28.960837      3417.3503    
      1080   2.16           300.94011      134785.37     -807629.62     -304.96379      0.36276402     0.057487257    28.974317      3416.9776    
      1090   2.18           305.16734      139912.73     -807626.55     -308.66995      0.36274848     0.058188381    28.974668      3416.605     
      1100   2.2            299.72237      136881.06     -807625.86     -308.93295      0.36273279     0.058240479    29.066079      3416.1353    
      1110   2.22           302.593        136771.66     -807626.86     -308.42992      0.36271695     0.058148184    29.053446      3415.6812    
      1120   2.24           295.22026      130717.16     -807634.93     -299.41429      0.36270098     0.056450958    29.035447      3415.2479    
      1130   2.26           289.39375      129544.48     -807637.59     -295.95707      0.36268486     0.055801621    29.009615      3414.8431    
      1140   2.28           291.77481      128111.08     -807637.78     -296.24664      0.3626686      0.055858722    29.016688      3414.4319    
      1150   2.3            298.68136      130829.76     -807634.23     -300.80358      0.36265219     0.056720521    29.011908      3414.0269    
      1160   2.32           303.33943      132505.25     -807634.1      -301.63417      0.36263564     0.056879735    29.06851       3413.5656    
      1170   2.34           292.77277      136929.03     -807628.88     -305.40209      0.36261895     0.057592909    29.046432      3413.1286    
      1180   2.36           303.71745      138083.71     -807625.93     -309.93015      0.36260212     0.058449527    28.972405      3412.7666    
      1190   2.38           300.6181       137850.86     -807624.82     -310.58467      0.36258514     0.058575705    29.010902      3412.367     
      1200   2.4            295.04399      134784.64     -807630.79     -303.78618      0.36256802     0.057296229    29.053003      3411.9271    
      1210   2.42           298.7269       130070.14     -807637.43     -297.6274       0.36255076     0.056137311    29.055179      3411.4868    
      1220   2.44           294.33283      128968.72     -807635.99     -298.37263      0.36253335     0.056280575    28.984904      3411.1155    
      1230   2.46           301.37001      127545.72     -807637.9      -297.47424      0.3625158      0.056113834    29.01557       3410.7154    
      1240   2.48           294.3197       131864.91     -807635.39     -298.84894      0.36249811     0.0563759      29.039687      3410.2935    
      1250   2.5            288.83145      132546.9      -807632.55     -300.95858      0.36248028     0.056776663    29.002159      3409.9079    
      1260   2.52           306.81146      138214.16     -807626.72     -309.14743      0.3624623      0.058324405    28.995962      3409.5288    
      1270   2.54           292.93956      137288.89     -807624.37     -309.5632       0.36244418     0.058405765    29.064338      3409.0871    
      1280   2.56           300.8444       138379.46     -807627.47     -307.24191      0.36242592     0.057970724    29.064203      3408.6472    
      1290   2.58           293.7358       131570.6      -807633.58     -300.14373      0.36240751     0.056634309    29.025582      3408.2437    
      1300   2.6            305.22291      132663.66     -807633.98     -301.07987      0.36238896     0.056813858    28.972921      3407.8886    
      1310   2.62           294.36724      128063.89     -807636.7      -296.85883      0.36237027     0.056020237    28.96975       3407.5366    
      1320   2.64           297.59847      130922.52     -807636.5      -297.15404      0.36235143     0.056078861    28.970518      3407.184     
      1330   2.66           301.52728      128892.76     -807637.33     -296.82758      0.36233245     0.056020184    28.902086      3406.892     
      1340   2.68           299.88169      137287.17     -807627.51     -306.14121      0.36231333     0.057780992    28.906894      3406.5951    
      1350   2.7            310.2462       136462.94     -807626.99     -308.05786      0.36229407     0.058145832    28.954746      3406.2557    
      1360   2.72           294.85431      140203.41     -807624.46     -308.07403      0.36227466     0.058152       28.984381      3405.8906    
      1370   2.74           301.50102      134415.73     -807630.43     -302.85353      0.36225511     0.057169663    28.977694      3405.5315    
      1380   2.76           306.87791      135428.87     -807629.79     -303.93258      0.36223542     0.057376475    28.957282      3405.19      
      1390   2.78           315.57974      129858.51     -807635.09     -299.73074      0.36221558     0.05658635     28.979401      3404.8297    
      1400   2.8            296.32447      130443.68     -807635.71     -296.10951      0.3621956      0.055905778    28.953148      3404.4917    
      1410   2.82           305.79799      129381.94     -807637.96     -294.99006      0.36217548     0.055697519    28.948834      3404.1571    
      1420   2.84           301.41984      133301.95     -807631        -301.21133      0.36215522     0.056875349    28.952885      3403.8191    
      1430   2.86           301.27211      135862.97     -807626.06     -306.01575      0.36213481     0.057785785    29.044352      3403.406     
      1440   2.88           308.04536      137655.63     -807626.63     -306.13757      0.36211426     0.05781207     29.030219      3403.0053    
      1450   2.9            297.16119      137083.1      -807626.49     -304.64141      0.36209357     0.057532817    29.042119      3402.5958    
      1460   2.92           309.5323       136903.75     -807626.43     -306.30374      0.36207273     0.057850085    29.047781      3402.1827    
      1470   2.94           316.86571      133191.22     -807630.57     -303.07157      0.36205176     0.057242957    29.060598      3401.7603    
      1480   2.96           311.69425      130621.19     -807635.7      -297.0414       0.36203064     0.056107275    29.043197      3401.3527    
      1490   2.98           308.76439      129837.9      -807637.18     -295.0696       0.36200937     0.055738102    29.017687      3400.966     
      1500   3              299.05973      130837.37     -807632.21     -298.71002      0.36198796     0.056429107    29.035794      3400.5657    
      1510   3.02           310.30708      133375.97     -807630.14     -9675.1413      0.36196642     0.057119787    28.913052      3400.2615    
      1520   3.04           313.76962      134072.59     -807630.29     -9685.5512      0.36194472     0.057184672    28.90505       3399.963     
      1530   3.06           312.14194      138033.41     -807627.09     -9780.2317      0.36192289     0.057747161    28.876625      3399.6858    
      1540   3.08           308.98646      137648.99     -807625.43     -9824.2531      0.36190091     0.058010607    28.889198      3399.398     
      1550   3.1            307.10658      137179.92     -807625.83     -9806.493       0.36187879     0.057909275    28.878576      3399.1176    
      1560   3.12           314.32436      131414.76     -807634.89     -9554.0053      0.36185653     0.056421757    28.889478      3398.8281    
      1570   3.14           299.98086      132010.98     -807634.05     -9522.8757      0.36183412     0.056241401    28.907909      3398.524     
      1580   3.16           300.39389      128517.2      -807634.91     -9512.2051      0.36181157     0.056181883    28.882199      3398.2386    
      1590   3.18           293.01371      132123.81     -807631.85     -9587.2486      0.36178888     0.056628663    28.865889      3397.9645    
      1600   3.2            305.62197      131893.7      -807634.47     -9575.6266      0.36176605     0.056563586    28.835869      3397.7117    
      1610   3.22           302.62313      136809.15     -807628.75     -9758.8943      0.36174307     0.057649816    28.893337      3397.4156    
      1620   3.24           301.41196      136871.14     -807626.68     -9836.1282      0.36171995     0.058109783    28.895302      3397.1174    
      1630   3.26           288.32293      138339.67     -807625.34     -9827.7188      0.36169669     0.058063836    28.912123      3396.8065    
      1640   3.28           292.61861      133616.5      -807631.17     -9669.387       0.36167329     0.057132082    28.892993      3396.5089    
      1650   3.3            297.74748      132015.85     -807634.79     -9582.0183      0.36164974     0.056619545    28.941308      3396.1763    
      1660   3.32           281.74817      130220.1      -807634.51     -9524.9303      0.36162605     0.056285903    29.020657      3395.7875    
      1670   3.34           299.57617      128884.35     -807637.41     -9512.7253      0.36160222     0.056217484    28.98502       3395.4243    
      1680   3.36           291.94656      129913.93     -807636.37     -9513.5598      0.36157824     0.056226144    28.994805      3395.0544    
      1690   3.38           291.54168      133083.81     -807632.17     -9648.0893      0.36155413     0.057025031    28.959618      3394.7092    
      1700   3.4            293.13079      136743.34     -807627.15     -9817.1542      0.36152987     0.058028183    28.923611      3394.3888    
      1710   3.42           290.37909      137028.64     -807626.02     -9842.311       0.36150546     0.05818081     28.907704      3394.0791    
      1720   3.44           283.78305      137466.46     -807627.15     -9772.6658      0.36148092     0.057773038    28.965694      3393.7294    
      1730   3.46           305.14977      133750.28     -807633.47     -9665.2723      0.36145623     0.057142063    28.977893      3393.3715    
      1740   3.48           294.19356      132132.9      -807633.07     -9628.1354      0.3614314      0.056926417    28.937027      3393.0413    
      1750   3.5            292.60975      128484.98     -807637.16     -9487.9533      0.36140643     0.056101465    28.963508      3392.6931    
      1760   3.52           289.6265       129550.52     -807637.74     -9452.0287      0.36138131     0.055892931    28.90816       3392.3819    
      1770   3.54           298.30071      130458.03     -807636.97     -9514.7225      0.36135605     0.056267592    28.910547      3392.0687    
      1780   3.56           297.45302      134901.22     -807630.2      -9723.5327      0.36133065     0.057506483    28.892305      3391.7672    
      1790   3.58           286.2171       136313.94     -807626.59     -9786.699       0.36130511     0.057884151    28.894975      3391.4635    
      1800   3.6            295.24854      137933.98     -807627.86     -9778.6259      0.36127942     0.057840514    28.87553       3391.1719    
      1810   3.62           288.49664      136061.14     -807627.86     -9745.1669      0.3612536      0.057646725    28.851685      3390.8953    
      1820   3.64           311.53672      133225.05     -807632.17     -9702.2718      0.36122763     0.057397109    28.885625      3390.596     
      1830   3.66           295.03019      130331.87     -807634.04     -9562.1019      0.36120151     0.056571976    28.898352      3390.288     
      1840   3.68           290.57521      129470.02     -807637.25     -9430.9745      0.36117526     0.055800246    28.929023      3389.96      
      1850   3.7            302.38314      129567.64     -807638.33     -9442.7653      0.36114886     0.055874093    28.952702      3389.6168    
      1860   3.72           298.77532      132798.03     -807632.72     -9599.5882      0.36112232     0.056806209    28.913577      3389.2982    
      1870   3.74           297.54296      134619.23     -807629.77     -9683.5796      0.36109564     0.057307469    28.845611      3389.0221    
      1880   3.76           304.13413      136261.38     -807629.46     -9714.9142      0.36106881     0.057497178    28.880038      3388.7237    
      1890   3.78           289.91476      137469.06     -807625.2      -9781.3149      0.36104184     0.057894491    28.864743      3388.4343    
      1900   3.8            303.83513      136122.58     -807626.83     -9786.3715      0.36101474     0.05792877     28.906893      3388.1182    
      1910   3.82           298.05725      133380.58     -807629.43     -9668.6685      0.36098748     0.057236368    28.92204       3387.7925    
      1920   3.84           307.00271      130264.62     -807636.65     -9471.4336      0.36096009     0.056073036    28.900113      3387.48      
      1930   3.86           308.73833      129954.53     -807636.91     -9464.7526      0.36093255     0.056037758    28.940536      3387.1426    
      1940   3.88           310.86086      130135.86     -807634.9      -9535.7927      0.36090487     0.056462694    28.974105      3386.7849    
      1950   3.9            303.80747      132968.66     -807632.42     -9578.8411      0.36087705     0.056721962    28.980157      3386.4237    
      1960   3.92           307.82013      134144.3      -807631.35     -9628.4086      0.36084909     0.057019898    28.968718      3386.0694    
      1970   3.94           309.23238      136865.46     -807627.23     -9764.5658      0.36082098     0.057830733    28.985255      3385.7054    
      1980   3.96           307.62273      137208.33     -807624.87     -9831.6312      0.36079273     0.058232487    28.938974      3385.369     
      1990   3.98           305.91419      135860.52     -807628.41     -9707.0398      0.36076434     0.05749906     28.924289      3385.0411    
      2000   4              313.19542      132473.81     -807634.13     -9553.4209      0.36073581     0.056593584    28.912789      3384.7198    
      2010   4.02           297.8196       130624.88     -807633.3      -297.2139       0.36070713     0.056345845    28.985777      3384.3557    
      2020   4.04           295.46392      130619.57     -807633.01     -297.12878      0.36067831     0.056334209    28.972182      3383.9997    
      2030   4.06           308.99032      128860.82     -807636.42     -295.62854      0.36064935     0.056054272    28.953815      3383.6544    
      2040   4.08           294.93366      133343.91     -807632.01     -298.08985      0.36062025     0.056525523    28.95662       3383.3075    
      2050   4.1            301.2208       134832.54     -807628.32     -302.71749      0.36059101     0.057407698    28.978902      3382.9479    
      2060   4.12           303.49289      137649.44     -807624.37     -306.9446       0.36056162     0.058214076    28.962436      3382.5977    
      2070   4.14           314.67618      135954.84     -807629.53     -303.39666      0.36053209     0.0575459      29.008474      3382.2217    
      2080   4.16           306.58653      135351.58     -807629.6      -302.19352      0.36050242     0.057322414    28.958312      3381.8741    
      2090   4.18           308.61836      131581.21     -807632.76     -299.49535      0.36047261     0.056815304    29.000795      3381.5028    
      2100   4.2            305.35162      131041.52     -807633.75     -298.16034      0.36044265     0.056566748    28.949079      3381.1605    
      2110   4.22           295.62903      129107.1      -807636.75     -294.01589      0.36041256     0.055785124    28.993906      3380.7934    
      2120   4.24           293.45684      131393.9      -807635.54     -295.11211      0.36038232     0.055997814    28.985161      3380.4313    
      2130   4.26           303.10109      132870.99     -807632.67     -299.68613      0.36035193     0.056870533    29.012054      3380.0547    
      2140   4.28           297.8921       136217.15     -807627.66     -304.3012       0.36032141     0.057751214    29.054506      3379.6553    
      2150   4.3            297.85119      135733.16     -807628.4      -303.87135      0.36029075     0.057674543    29.073597      3379.2462    
      2160   4.32           303.95464      136235.89     -807630.11     -303.34059      0.36025994     0.05757873     29.002722      3378.8757    
      2170   4.34           291.69509      134127.56     -807629.72     -302.44212      0.36022899     0.057413118    29.001424      3378.5062    
      2180   4.36           304.51739      132502.33     -807633.61     -300.55378      0.36019789     0.057059576    28.997306      3378.1391    
      2190   4.38           289.88287      129748.66     -807637.11     -295.29721      0.36016666     0.056066488    29.04946       3377.7445    
      2200   4.4            295.26029      129460.05     -807638.82     -294.48268      0.36013528     0.055916709    28.971256      3377.3917    
      2210   4.42           290.84324      129968.98     -807636.09     -296.80005      0.36010377     0.056361665    28.973741      3377.0377    
      2220   4.44           286.93456      133316.26     -807631.7      -300.70917      0.36007211     0.057109021    28.970277      3376.6856    
      2230   4.46           285.97455      134733.2      -807630.36     -301.9776       0.3600403      0.057354979    28.980116      3376.3283    
      2240   4.48           292.50095      135664.27     -807630.16     -303.05967      0.36000836     0.057565606    28.947768      3375.9881    
      2250   4.5            297.78702      135520.55     -807629.63     -304.34198      0.35997627     0.057814331    28.938231      3375.6527    
      2260   4.52           283.80518      134308.52     -807629.79     -302.20699      0.35994404     0.057413898    28.923874      3375.3246    
      2270   4.54           290.72938      132045.87     -807634.35     -298.47382      0.35991167     0.056709763    28.910349      3375.0034    
      2280   4.56           292.90137      129686.39     -807637.64     -295.42055      0.35987916     0.056134715    28.981054      3374.6458    
      2290   4.58           290.29472      130174.65     -807636.59     -295.98223      0.35984651     0.056246547    29.028441      3374.2643    
      2300   4.6            289.08599      130355.62     -807634.61     -297.64607      0.35981371     0.056567887    29.029736      3373.8824    
      2310   4.62           295.26788      132691.11     -807633.83     -299.16713      0.35978077     0.056862172    29.030854      3373.5003    
      2320   4.64           296.28938      133522.24     -807631.83     -301.21596      0.35974769     0.057256854    28.997518      3373.1352    
      2330   4.66           286.9955       137202.59     -807627.18     -304.40888      0.35971447     0.057869125    28.95765       3372.7901    
      2340   4.68           296.28278      135041.47     -807628.87     -303.90114      0.35968111     0.057777961    28.916584      3372.4655    
      2350   4.7            296.43803      134134.82     -807631.72     -300.80441      0.3596476      0.057194537    28.963344      3372.1176    
      2360   4.72           290.18351      131254.98     -807635.08     -296.38746      0.35961396     0.056359977    28.986816      3371.7581    
      2370   4.74           289.1643       131120.6      -807634.18     -296.91537      0.35958017     0.056465667    28.970699      3371.4066    
      2380   4.76           292.63194      129185.04     -807636.13     -295.27613      0.35954624     0.056159226    29.016316      3371.0329    
      2390   4.78           295.03936      131719.26     -807635.49     -295.94351      0.35951216     0.056291491    29.022574      3370.6565    
      2400   4.8            301.92108      132259.54     -807634.27     -297.97559      0.35947795     0.056683407    28.973184      3370.3042    
      2410   4.82           301.68447      136198.25     -807628.58     -303.4153       0.35944359     0.057723712    28.939571      3369.9682    
      2420   4.84           297.03253      136458.94     -807627.46     -303.73352      0.35940909     0.057789799    28.933507      3369.635     
      2430   4.86           298.52277      136921.25     -807629.31     -301.84391      0.35937446     0.057435808    28.964445      3369.2869    
      2440   4.88           296.54612      132788.42     -807631.31     -299.4339       0.35933967     0.056982739    28.981424      3368.9307    
      2450   4.9            301.82334      132363.57     -807632.8      -298.42785      0.35930475     0.056796805    29.008339      3368.5619    
      2460   4.92           300.29484      128695.6      -807636.67     -294.22561      0.35926969     0.0560025      29.028788      3368.1836    
      2470   4.94           294.11468      130240.59     -807636.47     -293.31132      0.35923448     0.055833948    29.023786      3367.808     
      2480   4.96           298.72451      130489.76     -807634.46     -295.93164      0.35919913     0.056338288    28.98495       3367.4507    
      2490   4.98           308.41387      135027.94     -807630.81     -300.76723      0.35916364     0.057264527    28.955753      3367.1072    
      2500   5              302.94132      135940.66     -807628.16     -302.566        0.35912801     0.057612717    28.899956      3366.7897    
[...]
     98740   197.48         305.39144      133573.34     -807632.63     -9656.7769      0.36236891     0.056948043    27.213132      44.221078    
     98750   197.5          307.54547      133596.59     -807632.21     -9679.904       0.36238762     0.057081483    27.221653      43.870325    
     98760   197.52         297.80718      134366.23     -807630.39     -9695.5976      0.36240618     0.057171098    27.242547      43.519565    
     98770   197.54         301.28436      134943.86     -807630.75     -9704.2336      0.36242459     0.057219113    27.245818      43.168801    
     98780   197.56         300.92749      134845.11     -807629.84     -9732.9317      0.36244287     0.057385432    27.22786       42.818036    
     98790   197.58         299.10459      132896.46     -807631.58     -9670.6795      0.362461       0.057015541    27.230884      42.467268    
     98800   197.6          309.70429      133020.64     -807634.13     -9635.9931      0.36247899     0.05680822     27.189046      42.116503    
     98810   197.62         289.97115      133000.25     -807630.37     -9671.3128      0.36249683     0.057013638    27.153947      41.76574     
     98820   197.64         297.9089       133910.99     -807630.46     -9706.0512      0.36251453     0.057215631    27.178667      41.41497     
     98830   197.66         305.2518       132727.79     -807633.9      -9628.8791      0.36253209     0.056757965    27.188323      41.064195    
     98840   197.68         301.47045      133589.38     -807631.55     -9687.7806      0.36254951     0.05710242     27.20013       40.713415    
     98850   197.7          296.61517      133279.1      -807630.33     -9708.6623      0.36256678     0.057222776    27.192098      40.362632    
     98860   197.72         303.57596      134523.63     -807630.01     -9749.3484      0.36258391     0.057459865    27.178002      40.011849    
     98870   197.74         301.66618      132170.46     -807632.69     -9658.1788      0.3626009      0.056919871    27.178167      39.661061    
     98880   197.76         303.65094      133628.54     -807632.63     -9669.3323      0.36261774     0.056982956    27.164101      39.310273    
     98890   197.78         300.39348      132780.9      -807631.8      -9685.5917      0.36263445     0.057076146    27.171086      38.95948     
     98900   197.8          295.4095       134101.44     -807629.63     -9732.0839      0.362651       0.057347501    27.161014      38.608684    
     98910   197.82         295.12615      132402.03     -807632.56     -9639.8639      0.36266742     0.056801513    27.174247      38.257884    
     98920   197.84         296.40775      134076.85     -807631.02     -9694.0806      0.36268369     0.057118414    27.172199      37.90708     
     98930   197.86         299.28726      133632.04     -807630.68     -9722.2019      0.36269982     0.05728156     27.179183      37.556272    
     98940   197.88         302.73143      134711.8      -807630.32     -9748.0513      0.36271581     0.057431329    27.186831      37.205459    
     98950   197.9          306.84979      132657.38     -807633.05     -9680.267       0.36273165     0.057029482    27.199345      36.854641    
     98960   197.92         299.70122      132918.21     -807632.89     -9654.0496      0.36274735     0.056872565    27.198694      36.503819    
     98970   197.94         295.85708      133770.91     -807630.8      -9705.8098      0.36276291     0.057175036    27.202931      36.152994    
     98980   197.96         291.54823      133372.23     -807630.2      -9708.1605      0.36277832     0.057186453    27.204466      35.802165    
     98990   197.98         295.12657      133791.45     -807631.81     -9670.4407      0.36279359     0.056961865    27.187064      35.451335    
     99000   198            300.60567      132651.02     -807633.33     -9647.7853      0.36280872     0.056826048    27.196974      35.1005      
     99010   198.02         308.80589      134444.95     -807631.06     -304.90257      0.3628237      0.057466262    27.275443      34.749651    
     99020   198.04         295.54089      133763.05     -807630.11     -304.09125      0.36283855     0.057311006    27.28847       34.398798    
     99030   198.06         304.95923      134048.89     -807632.74     -302.66673      0.36285324     0.05704022     27.301656      34.047939    
     99040   198.08         305.79312      131675.71     -807633.83     -301.78577      0.3628678      0.056871914    27.284357      33.69708     
     99050   198.1          292.19474      134837.43     -807628.66     -305.04227      0.36288221     0.057483323    27.282267      33.346217    
     99060   198.12         296.95481      132481.79     -807630.91     -303.51341      0.36289648     0.05719297     27.263291      32.995354    
     99070   198.14         297.43719      134219.53     -807631.82     -302.53475      0.36291061     0.057006335    27.233712      32.644492    
     99080   198.16         302.69549      132153.27     -807634.11     -301.08419      0.36292459     0.056730823    27.231309      32.293626    
     99090   198.18         302.54973      134590.95     -807629.88     -305.17028      0.36293843     0.057498538    27.268415      31.942753    
     99100   198.2          305.43025      132378.29     -807632.29     -303.25701      0.36295213     0.057135893    27.277938      31.591875    
     99110   198.22         299.61395      134410.81     -807632.03     -302.5134       0.36296568     0.056993663    27.238831      31.240999    
     99120   198.24         293.99274      132152.89     -807631.52     -302.30037      0.36297909     0.056951424    27.235074      30.89012     
     99130   198.26         300.48787      135711.32     -807628.62     -305.97189      0.36299236     0.057641009    27.276971      30.539232    
     99140   198.28         306.75662      132585.25     -807631.76     -303.67546      0.36300548     0.057206323    27.281878      30.188341    
     99150   198.3          296.16952      134278.49     -807631.05     -302.74729      0.36301846     0.057029435    27.241651      29.837452    
     99160   198.32         299.80417      132817.2      -807632.71     -301.61054      0.3630313      0.056813293    27.202343      29.486563    
     99170   198.34         297.43637      134483.75     -807628.28     -305.64317      0.36304399     0.057570891    27.22182       29.13567     
     99180   198.36         303.29444      132529.63     -807631.46     -303.25104      0.36305655     0.057118336    27.263038      28.784768    
     99190   198.38         298.2223       134201.47     -807631.23     -302.59327      0.36306895     0.056992494    27.250087      28.433864    
     99200   198.4          303.12723      133511.74     -807631.54     -302.90885      0.36308122     0.057050006    27.263089      28.082956    
     99210   198.42         301.07863      134792.06     -807629.19     -304.97617      0.36309334     0.057437448    27.268022      27.732044    
     99220   198.44         307.57331      133623.37     -807631.06     -303.88096      0.36310532     0.057229296    27.295682      27.381126    
     99230   198.46         296.87087      134176.97     -807631.33     -301.99575      0.36311715     0.056872403    27.287697      27.030205    
     99240   198.48         306.45282      133596.23     -807631.27     -303.31775      0.36312885     0.057119526    27.271356      26.679284    
     99250   198.5          311.4381       132733.93     -807631.66     -303.56332      0.3631404      0.057163953    27.25156       26.328361    
     99260   198.52         308.83862      134144.59     -807631.08     -303.65721      0.3631518      0.057179836    27.272624      25.977432    
     99270   198.54         303.43207      133462.48     -807631.93     -302.02146      0.36316306     0.056870055    27.256571      25.626502    
     99280   198.56         299.1121       135180.03     -807629.78     -303.46845      0.36317418     0.057140772    27.256861      25.275569    
     99290   198.58         304.77326      133366.21     -807630.11     -303.94031      0.36318516     0.057227889    27.271954      24.924631    
     99300   198.6          307.43556      133994.68     -807630.11     -304.24998      0.36319599     0.057284487    27.260992      24.573691    
     99310   198.62         305.12447      132872.5      -807632.03     -302.05513      0.36320668     0.056869564    27.252125      24.222749    
     99320   198.64         305.99454      135159.46     -807629.97     -304.11327      0.36321723     0.0572554      27.237837      23.871805    
     99330   198.66         304.24608      133396.38     -807630.25     -303.66249      0.36322763     0.057168895    27.251077      23.520856    
     99340   198.68         302.20355      135384.6      -807628.79     -304.77739      0.36323789     0.05737717     27.246052      23.169905    
     99350   198.7          312.85993      133684.74     -807632.99     -302.15085      0.36324801     0.056881115    27.274307      22.818947    
     99360   198.72         298.4474       134806.8      -807629.05     -304.06673      0.36325798     0.057240215    27.275834      22.467987    
     99370   198.74         305.01875      132470.13     -807630.61     -303.54888      0.36326781     0.057141184    27.289319      22.117022    
     99380   198.76         288.77956      134698.41     -807627.96     -303.95548      0.3632775      0.057216198    27.263697      21.766056    
     99390   198.78         316.42308      131854.39     -807633.79     -302.13184      0.36328704     0.056871425    27.236837      21.41509     
     99400   198.8          305.78887      133404.17     -807631.66     -302.88886      0.36329644     0.057012445    27.265145      21.064118    
     99410   198.82         302.69656      133620.87     -807630.24     -304.04027      0.3633057      0.057227716    27.283033      20.713141    
     99420   198.84         300.94327      133544.76     -807630.94     -303.23871      0.36331481     0.057075411    27.246436      20.362164    
     99430   198.86         309.32939      133325.33     -807632.53     -303.02409      0.36332378     0.057033609    27.255315      20.011182    
     99440   198.88         299.6229       133123.72     -807631.2      -303.24374      0.36333261     0.057073564    27.264829      19.660197    
     99450   198.9          299.56743      133924.59     -807629.71     -304.91628      0.36334129     0.05738698     27.264434      19.309209    
     99460   198.92         301.76077      133704.65     -807631.77     -303.38286      0.36334983     0.057097041    27.25586       18.958219    
     99470   198.94         296.21805      134143.75     -807631.6      -302.99593      0.36335823     0.057022901    27.241501      18.607226    
     99480   198.96         316.44769      131988.32     -807634.45     -303.29882      0.36336648     0.057078607    27.210806      18.256232    
     99490   198.98         287.9179       134766.75     -807628.61     -305.31905      0.3633746      0.057457517    27.217479      17.905234    
     99500   199            295.37417      132542.05     -807632.82     -302.45861      0.36338256     0.056917968    27.260011      17.55423     
     99510   199.02         294.41692      133717.57     -807632.32     -9694.9307      0.36339039     0.057012333    27.225449      17.203226    
     99520   199.04         291.37167      132937.49     -807631.58     -9714.6414      0.36339807     0.057127037    27.205176      16.852219    
     99530   199.06         292.33085      134760.04     -807630.17     -9767.1621      0.3634056      0.057434694    27.191624      16.50121     
     99540   199.08         296.38867      132518.47     -807633.33     -9690.7695      0.363413       0.056984317    27.178467      16.150198    
     99550   199.1          300.84114      133447.46     -807633.65     -9703.1158      0.36342025     0.057055778    27.19227       15.799182    
     99560   199.12         285.77923      133755.78     -807630.8      -9732.0887      0.36342736     0.057225024    27.17529       15.448164    
     99570   199.14         295.61203      134277.17     -807631.61     -9752.3311      0.36343432     0.057342951    27.1996        15.097141    
     99580   199.16         288.78337      133767.98     -807632.58     -9692.1289      0.36344114     0.056987897    27.22077       14.746113    
     99590   199.18         290.17275      133466.59     -807633.08     -9682.2929      0.36344782     0.056929018    27.203987      14.395083    
     99600   199.2          296.22112      133202.02     -807632.39     -9732.8886      0.36345435     0.057225476    27.174119      14.044051    
     99610   199.22         293.6307       133234.33     -807631.65     -9744.9648      0.36346074     0.057295472    27.178963      13.693016    
     99620   199.24         294.92111      132994.86     -807633.14     -9701.4318      0.36346699     0.05703854     27.207554      13.341976    
     99630   199.26         298.73976      132782.59     -807633.92     -9691.3074      0.3634731      0.056978058    27.200183      12.990933    
     99640   199.28         293.85011      134323.95     -807630.9      -9764.2628      0.36347906     0.057406042    27.185109      12.639887    
     99650   199.3          294.26708      134027.34     -807631.6      -9741.2286      0.36348487     0.057269703    27.208324      12.288836    
     99660   199.32         289.75584      134346.63     -807631.75     -9710.3633      0.36349055     0.057087352    27.224382      11.937782    
     99670   199.34         303.10111      132062.23     -807634.53     -9678.8509      0.36349608     0.056901224    27.226018      11.586724    
     99680   199.36         292.32529      133677.88     -807630.46     -9754.7008      0.36350147     0.05734629     27.224004      11.235664    
     99690   199.38         292.03957      132416.15     -807631.6      -9716.1679      0.36350671     0.057118938    27.217401      10.8846      
     99700   199.4          290.12108      133682.31     -807631.36     -9705.6867      0.36351181     0.05705652     27.176409      10.533534    
     99710   199.42         296.13409      132485.14     -807632.16     -9703.346       0.36351677     0.057041982    27.150818      10.182467    
     99720   199.44         300.39642      134830.27     -807630.36     -9771.6138      0.36352158     0.05744254     27.215906      9.8313929    
     99730   199.46         298.53184      133616.39     -807630.53     -9753.051       0.36352625     0.057332682    27.218089      9.4803158    
     99740   199.48         297.8528       134704.44     -807631.23     -9718.9921      0.36353078     0.057131757    27.194495      9.1292362    
     99750   199.5          306.61175      132692.93     -807634.11     -9658.1294      0.36353516     0.0567733      27.196107      8.7781533    
     99760   199.52         307.94425      133614.1      -807631.23     -9748.5282      0.3635394      0.057304022    27.213914      8.4270665    
     99770   199.54         301.41399      133559.45     -807631.86     -9693.205       0.3635435      0.056978177    27.217981      8.0759762    
     99780   199.56         300.55885      134115.51     -807631.96     -9680.0485      0.36354745     0.056900223    27.162938      7.7248844    
     99790   199.58         299.41664      133024.51     -807631.08     -9698.96        0.36355126     0.057010789    27.146242      7.3737895    
     99800   199.6          302.54418      134488.99     -807629.23     -9768.7485      0.36355493     0.057420428    27.169138      7.0226906    
     99810   199.62         292.19675      134523.03     -807628.27     -9750.5152      0.36355845     0.057312698    27.178674      6.6715881    
     99820   199.64         317.1098       134666.54     -807633.09     -9703.4559      0.36356183     0.057035558    27.194113      6.3204818    
     99830   199.66         304.96706      133440.21     -807631.27     -9708.5091      0.36356507     0.057064752    27.208748      5.9693718    
     99840   199.68         311.59406      134055.19     -807631        -9744.2197      0.36356816     0.057274164    27.214592      5.6182584    
     99850   199.7          304.05924      133193.51     -807631.61     -9692.6711      0.36357111     0.056970712    27.21528       5.2671418    
     99860   199.72         302.68298      133273.9      -807631.7      -9682.2623      0.36357392     0.056909093    27.195053      4.9160222    
     99870   199.74         309.12363      133011.18     -807631.51     -9718.4269      0.36357658     0.057121238    27.194588      4.5648994    
     99880   199.76         295.30351      134856.65     -807628.09     -9768.7055      0.3635791      0.057416358    27.214856      4.2137728    
     99890   199.78         302.51702      135244.58     -807630.08     -9736.9838      0.36358148     0.057229537    27.210522      3.8626431    
     99900   199.8          302.31         134812.6      -807630.23     -9730.5089      0.36358371     0.057191129    27.213304      3.5115101    
     99910   199.82         317.60296      133833.49     -807632.38     -9733.1238      0.3635858      0.05720617     27.220982      3.1603737    
     99920   199.84         300.80292      133833.46     -807630.07     -9732.8177      0.36358775     0.057204065    27.209182      2.8092341    
     99930   199.86         304.17454      133295.03     -807631.21     -9713.7461      0.36358955     0.057091689    27.21885       2.4580913    
     99940   199.88         295.49156      133389        -807631.76     -9658.9021      0.36359121     0.056769089    27.194588      2.1069453    
     99950   199.9          300.10172      132940.05     -807631.04     -9704.3828      0.36359273     0.057036159    27.169958      1.7557962    
     99960   199.92         303.07788      133069.74     -807630.75     -9729.7906      0.3635941      0.057185274    27.176311      1.4046437    
     99970   199.94         304.25552      135064.24     -807630.22     -9752.4059      0.36359533     0.057317998    27.155715      1.0534879    
     99980   199.96         301.78338      133367.24     -807631.34     -9709.2224      0.36359641     0.057064024    27.142922      0.70232872   
     99990   199.98         312.62173      135367.34     -807631.8      -9745.3698      0.36359736     0.057276325    27.12825       0.3511661    
    100000   200            295.58022      133502.6      -807629.17     -9759.2227      0.36359816     0.057357616    27.139861      0            
Loop time of 3511.68 on 32 procs for 100000 steps with 1080 atoms

Performance: 4.921 ns/day, 4.877 hours/ns, 28.476 timesteps/s, 30.755 katom-step/s
62.6% CPU use with 32 MPI tasks x 1 OpenMP threads

MPI task timing breakdown:
Section |  min time  |  avg time  |  max time  |%varavg| %total
---------------------------------------------------------------
Pair    | 2599.2     | 2805.4     | 3061.3     | 219.6 | 79.89
Neigh   | 0.0012456  | 0.0061992  | 0.035401   |  14.1 |  0.00
Comm    | 375.72     | 631.52     | 837.71     | 463.1 | 17.98
Output  | 2.4528     | 2.4639     | 2.4733     |   0.3 |  0.07
Modify  | 65.441     | 66.091     | 66.831     |   5.0 |  1.88
Other   |            | 6.157      |            |       |  0.18

Nlocal:          33.75 ave          46 max          25 min
Histogram: 3 3 8 2 4 3 5 2 1 1
Nghost:        1038.59 ave        1050 max        1025 min
Histogram: 1 0 2 7 4 5 6 2 3 2
Neighs:              0 ave           0 max           0 min
Histogram: 32 0 0 0 0 0 0 0 0 0
FullNghs:      5402.94 ave        7400 max        4000 min
Histogram: 3 3 7 2 5 5 4 1 1 1

Total # of neighbors = 172894
Ave neighs/atom = 160.08704
Neighbor list builds = 3
Dangerous builds = 0

Total wall time: 1:02:01
