
units		metal
atom_style	atomic

read_data ${STRUCTURE}.data
read_data BaTiO3-sc333.data
Reading data file ...
  orthogonal box = (0 0 0) to (11.898253 11.898253 12.912076)
  2 by 4 by 4 MPI processor grid
  reading atoms ...
  135 atoms
  read_data CPU = 0.005 seconds
replicate $L $L $L
replicate 2 $L $L
replicate 2 2 $L
replicate 2 2 2
Replication is creating a 2x2x2 = 8 times larger system...
  orthogonal box = (0 0 0) to (23.796507 23.796507 25.824152)
  2 by 4 by 4 MPI processor grid
  1080 atoms
  replicate CPU = 0.003 seconds

pair_style allegro
pair_coeff	* * ${MODEL}.pth Ba Ti O
pair_coeff	* * BaTiO3-E0.pth Ba Ti O
mass 1 137.3
mass 2 47.9
mass 3 15.9994

timestep 0.002
compute polarization all allegro polarization 3
compute allegro will evaluate the quantity polarization of length 3 (src/compute_allegro.cpp:53)
compute polarizability all allegro polarizability 9
compute allegro will evaluate the quantity polarizability of length 9 (src/compute_allegro.cpp:53)

thermo_style custom pe fmax fnorm spcpu cpuremain

variable efield equal 1e-2*36.36
fix born all addbornforce 0.0 0.0 ${efield}
fix born all addbornforce 0.0 0.0 0.3636

thermo 10
min_style fire
#minimize 0.0 1e-6 100 100
velocity all create ${TEMP} ${SEED} dist gaussian rot yes mom yes
velocity all create 300 ${SEED} dist gaussian rot yes mom yes
velocity all create 300 31295 dist gaussian rot yes mom yes
fix nvt all nvt temp ${TEMP} ${TEMP} $(100*dt)
fix nvt all nvt temp 300 ${TEMP} $(100*dt)
fix nvt all nvt temp 300 300 $(100*dt)
fix nvt all nvt temp 300 300 0.2000000000000000111
run 5000
Neighbor list info ...
  update: every = 1 steps, delay = 0 steps, check = yes
  max neighbors/atom: 2000, page size: 100000
  master list distance cutoff = 8
  ghost atom cutoff = 8
  binsize = 8, bins = 3 3 4
  1 neighbor lists, perpetual/occasional/extra = 1 0 0
  (1) pair allegro/kk, perpetual
      attributes: full, newton on, kokkos_device
      pair build: full/bin/kk/device
      stencil: full/bin/3d
      bin: kk/device
Per MPI rank memory allocation (min/avg/max) = 3.516 | 3.516 | 3.516 Mbytes
    PotEng          Fmax          Fnorm          S/CPU         CPULeft    
-807708.29      1.5953802      37.04257       0              0            
-807646         3.1857989      45.759961      2.3236892      2147.4482    
-807637.39      2.5840468      35.455635      25.920574      1167.635     
-807611.23      3.4064019      37.153776      25.88621       840.85829    
-807605.17      4.1034664      49.785557      25.841905      677.35895    
-807566.18      4.2453923      41.027785      25.840912      579.10594    
-807603.81      3.0748667      38.815063      25.892633      513.41133    
-807646.83      3.4579254      34.156316      25.899948      466.36859    
-807685.04      2.4685091      33.480993      25.874118      431.01371    
-807667.44      3.3706344      34.654911      25.864172      403.43769    
-807655.62      3.6792251      34.487673      25.893592      381.27802    
-807663.03      2.5239295      27.779301      25.926728      363.05523    
-807630.27      2.7514536      30.364271      25.882373      347.83216    
-807585.57      3.1227422      40.097904      25.871126      334.89795    
-807570.66      2.6245311      37.695913      25.916197      323.73294    
-807633.62      3.2664725      33.78677       25.868994      314.02791    
-807654.74      3.1851579      30.016807      25.88154       305.48202    
-807665.37      2.6006252      33.421024      25.888555      297.8931     
-807649.59      3.9588159      43.528988      25.889337      291.10416    
-807682.44      3.1112839      35.951422      25.83053       285.01145    
-807643.83      4.5295811      38.925894      25.828442      279.49004    
-807617.03      3.1833116      38.304841      25.92133       274.42597    
-807565.28      5.3474051      45.440808      25.891242      269.79693    
-807606.07      4.4607286      49.407667      25.876362      265.54145    
-807613.56      5.3091893      39.76654       25.822857      261.62426    
-807642.44      3.4838824      34.624357      25.909148      257.96496    
-807646.25      5.1024401      43.972358      25.891603      254.56222    
-807684.15      3.1698796      36.647055      25.879473      251.38611    
-807663.44      3.3572232      34.603544      25.788217      248.4323     
-807640.25      2.8260519      30.815043      25.90574       245.62689    
-807611.99      3.2703857      31.904894      25.893166      242.98571    
-807606.48      3.4346695      41.166401      25.906144      240.48709    
-807597.16      3.1365256      36.013136      25.79566       238.14469    
-807610.3       2.5395007      33.202007      25.900131      235.89862    
-807643.57      4.0296183      30.83771       25.92839       233.7562     
-807674.61      2.6411714      32.025367      25.866073      231.72651    
-807677.79      2.6601139      32.683189      25.811638      229.79861    
-807645.67      4.8622528      39.015331      25.891841      227.93896    
-807651.66      3.1713292      30.420891      25.865947      226.16156    
-807623.27      4.1710973      33.922924      25.916183      224.44663    
-807603.2       3.6874782      42.488849      25.822471      222.81425    
-807571.73      4.0698726      40.540379      25.85958       221.23639    
-807626.99      3.1182282      34.931217      25.890207      219.71026    
-807650.47      3.4861398      35.102702      25.88104       218.2386     
-807674.18      2.7860303      34.812464      25.876549      216.81697    
-807645.49      4.3868254      45.561386      25.884254      215.44019    
-807668.17      2.8244702      34.985167      25.918871      214.10137    
-807646.94      3.5362623      36.434113      25.865662      212.81076    
-807624.65      3.108765       37.480669      25.890048      211.55438    
-807568.5       3.6617827      42.488079      25.896285      210.33266    
-807602.55      3.6336985      42.767509      25.915156      209.14184    
-807627.11      3.1870284      34.143843      25.862602      207.98949    
-807655.63      2.8541087      31.790157      25.892155      206.86278    
-807645.87      4.562685       40.529386      25.926629      205.75969    
-807674.67      3.0571258      33.788758      25.879879      204.68892    
-807668.41      3.4781632      32.562627      25.788835      203.65407    
-807644.04      3.3700421      30.837358      25.871799      202.63247    
-807603.55      3.166324       34.564264      25.922897      201.62724    
-807598.75      3.6295803      37.944709      25.918547      200.64386    
-807607.01      3.7346606      39.580532      25.807577      199.69314    
-807622.23      3.4188654      32.719287      25.861514      198.75526    
-807640.06      3.1581736      32.850108      25.904283      197.83087    
-807665.4       3.7792371      34.307029      25.901031      196.92418    
-807676.97      3.0988971      35.126318      25.826761      196.04172    
-807648.52      4.9344463      37.06221       25.887399      195.16856    
-807636.45      3.1221831      32.075097      25.92217       194.30691    
-807615.48      4.4531802      34.600545      25.890245      193.46281    
-807604.24      4.1991707      44.614983      25.818881      192.63927    
-807583.68      4.250949       40.409511      25.863807      191.8243     
-807619.49      3.1223548      35.956465      25.932931      191.0153     
-807648.07      4.3166777      36.358444      25.919856      190.2196     
-807674.66      3.3848126      36.747995      25.875535      189.43943    
-807651.8       4.5061646      41.086884      25.848973      188.67256    
-807653.69      3.1346892      35.326529      25.913425      187.91047    
-807643.79      4.0560086      33.851032      25.890395      187.16052    
-807623.99      3.1456341      36.578353      25.882668      186.42093    
-807578.91      3.6883274      38.901614      25.866134      185.69201    
-807593.51      3.5238722      38.677626      25.888513      184.97015    
-807631.68      3.3961558      32.207364      25.892394      184.25658    
-807660.13      2.9787102      32.074286      25.889922      183.55149    
-807653.22      3.9789215      36.772767      25.899007      182.85366    
-807659.45      3.6542957      36.150468      25.816707      182.1699     
-807665.36      2.7059649      33.32648       25.847111      181.49104    
-807643.57      3.7217864      32.709309      25.863494      180.81799    
-807603.78      3.2150176      36.135063      25.90208       180.1489     
-807586.67      4.9183494      38.517941      25.924573      179.48484    
-807611.27      4.0375483      38.967583      25.852469      178.83243    
-807629.62      3.5299508      32.165614      25.893625      178.1832     
-807642.53      3.2010737      33.675952      25.900211      177.5395     
-807655.43      3.7415759      37.162926      25.918261      176.90034    
-807674.06      3.0297698      35.519665      25.841117      176.27206    
-807652.64      3.692521       36.064282      25.822159      175.65035    
-807631.27      3.0987733      34.196972      25.909885      175.02793    
-807605.16      3.99441        36.880699      25.869434      174.41324    
-807607         4.1513159      42.496863      25.835163      173.80562    
-807596.48      4.9784485      37.889298      25.80893       173.20431    
-807621.26      3.3249994      34.374953      25.921373      172.60039    
-807643.72      6.0432909      35.898896      25.880391      172.0035     
-807671.73      3.3445514      35.406382      25.845461      171.41305    
-807659.93      4.7083835      36.545618      25.794792      170.8298     
-807647.43      4.136016       34.825799      25.905578      170.24382    
-807637.19      4.3299405      32.134022      25.889553      169.66274    
-807623.64      3.3352966      35.625901      25.889638      169.08548    
-807591.68      3.5825421      37.668335      25.805992      168.51676    
-807594.63      3.4327296      36.717673      25.876078      167.94752    
-807630.58      2.8423339      30.990063      25.895823      167.38066    
-807659         2.9545482      32.264058      25.872637      166.81849    
-807661.02      3.3629036      34.337096      25.866678      166.25993    
-807652.66      3.3726613      36.315885      25.877837      165.70395    
-807659.55      2.8824067      31.771504      25.852204      165.15246    
-807641.45      2.7731701      31.781686      25.890195      164.60195    
-807610.14      3.2179916      35.129782      25.885079      164.05467    
-807583.76      4.0818685      37.531342      25.894189      163.50979    
-807610.21      3.3420905      37.203455      25.921922      162.9663     
-807635.41      3.767493       32.448108      25.868266      162.42829    
-807650.7       3.2297034      32.363748      25.852867      161.89368    
-807650.28      4.5455321      36.906018      25.878337      161.36036    
-807667.81      3.2330144      34.722454      25.830513      160.8319     
-807653.76      3.2393618      34.916178      25.807429      160.30695    
-807631.89      3.4547509      33.210819      25.800296      159.78466    
-807598.19      4.3242373      36.942749      25.901524      159.25981    
-807604.21      3.3764147      39.50603       25.782451      158.74284    
-807609.55      3.3210067      34.909825      25.802221      158.22707    
-807629.88      3.0711257      31.181635      25.85691       157.71087    
-807643.92      3.5267066      33.569332      25.923678      157.19373    
-807667.12      2.3269519      33.165752      25.85613       156.68173    
-807661.96      2.4849556      33.270407      25.71978       156.17779    
-807645.86      3.111298       32.619561      25.821657      155.67117    
-807625.6       3.5201291      33.617354      25.826771      155.16618    
-807616.13      3.5394871      35.76038       25.856121      154.66176    
-807600.28      3.7574437      38.461143      25.856448      154.15914    
-807601.72      3.1181907      36.409825      25.868916      153.65776    
-807629.69      3.2436393      32.675008      25.862828      153.15837    
-807655.99      3.4433146      33.079604      25.842308      152.66153    
-807664.24      2.9265948      34.124534      25.775137      152.16907    
-807649.92      4.7393452      36.071736      25.807648      151.67685    
-807649.06      3.3658494      32.623597      25.816843      151.1858     
-807635.46      2.7394182      32.826245      25.841207      150.69529    
-807612.59      3.0497611      36.812076      25.855696      150.20571    
-807586.29      3.0767452      38.285407      25.867869      149.71714    
-807610.05      3.2356031      36.229281      25.877963      149.22964    
-807637.02      3.266344       33.818321      25.922354      148.74189    
-807656.22      3.2150106      33.698264      25.859292      148.25795    
-807650.27      4.3120852      37.691125      25.854818      147.77553    
-807658.76      3.2817511      34.774794      25.844337      147.29483    
-807651.7       4.1878949      33.667072      25.784736      146.81762    
-807632.79      3.1153263      32.764489      25.815991      146.34049    
-807595.43      4.2141347      37.377697      25.855743      145.86315    
-807598.64      3.5318206      39.173145      25.85163       145.38718    
-807615.16      3.4080364      36.116631      25.852484      144.91238    
-807636.26      3.6830272      33.408969      25.838115      144.43925    
-807643.45      3.7228911      36.068303      25.854758      143.96669    
-807660.03      3.6358383      36.19111       25.829459      143.49612    
-807660.6       2.6195481      35.042307      25.777104      143.02843    
-807645.53      3.5290431      33.780878      25.808276      142.56072    
-807619.8       3.2545559      34.135086      25.852993      142.09255    
-807607.98      3.2855432      35.543857      25.887087      141.62431    
-807603.64      3.3588011      37.629049      25.857489      141.15807    
-807613         2.9390217      33.934138      25.852031      140.69302    
-807629.63      3.0564284      32.917262      25.897046      140.2275     
-807655.25      3.5959659      32.345275      25.885491      139.76335    
-807663.53      3.2180572      34.227963      25.816163      139.30235    
-807654.01      4.2141407      34.602125      25.807885      138.84252    
-807639.83      3.6999803      33.333525      25.826995      138.38298    
-807627.35      3.3735644      33.041611      25.774139      137.92595    
-807609.81      3.5515971      38.470145      25.82898       137.46808    
-807593.83      3.3966712      38.010926      25.837099      137.01083    
-807609.81      3.2982543      35.783283      25.849651      136.55404    
-807639.45      3.3574377      32.833117      25.864804      136.09763    
-807659.35      3.1753177      33.039415      25.824125      135.64324    
-807652.94      3.7666227      35.696617      25.854982      135.18875    
-807653.18      3.5557572      33.594073      25.834162      134.73564    
-807646.08      3.6342991      32.316302      25.795731      134.28441    
-807631.15      2.819876       32.2555        25.816224      133.83332    
-807596.94      3.747758       36.003948      25.882945      133.3811     
-807599.76      3.5740225      36.558864      25.871538      132.92995    
-807620.54      3.0914489      33.503403      25.839938      132.4804     
-807645.9       2.5962457      31.270325      25.840974      132.03153    
-807649.07      3.7016491      34.134572      25.837803      131.58345    
-807656.38      3.3988243      34.35953       25.862697      131.13537    
-807658.44      3.6284451      32.853739      25.776273      130.69029    
-807645.06      2.9608962      32.271245      25.811472      130.2449     
-807618.57      4.257864       33.084352      25.855673      129.79899    
-807600.19      3.8022444      36.867522      25.883918      129.353      
-807609.35      3.6558351      36.801833      25.864911      128.90814    
-807622.92      3.6204657      33.497178      25.850281      128.46429    
-807636.69      3.0983216      32.737733      25.893449      128.01996    
-807650.67      3.5789312      33.810531      25.874376      127.57673    
-807662.39      2.7542626      33.840348      25.835397      127.13507    
-807653.66      3.4523299      33.152368      25.807695      126.69467    
-807635.11      2.9120712      32.597866      25.849842      126.2538     
-807619.51      3.1517338      33.109691      25.88316       125.81268    
-807612.45      3.4771201      36.093648      25.842466      125.37312    
-807605.61      3.3534732      35.900075      25.846595      124.934      
-807619.23      4.4271608      34.451672      25.882005      124.49458    
-807639.88      3.6846946      31.957799      25.882379      124.0557     
-807659.36      3.1699379      33.37421       25.846627      123.61818    
-807655.33      2.9189563      34.384274      25.794356      123.18239    
-807645.72      4.0095339      34.240109      25.826855      122.74633    
-807637.37      2.9340615      33.0371        25.843982      122.31038    
-807624.69      3.3120966      34.115205      25.851168      121.87476    
-807601.36      3.6241655      37.016999      25.840139      121.43987    
-807602.46      3.1571799      35.841657      25.858376      121.00505    
-807623.87      3.4367721      32.748592      25.920768      120.56934    
-807646.68      3.2936666      32.926301      25.85981       120.13544    
-807651.4       2.9662955      34.004221      25.830177      119.70264    
-807650.9       3.2987365      35.014181      25.835747      119.27017    
-807649.17      3.4361906      33.683014      25.827591      118.8383     
-807639.31      3.1135156      33.344534      25.799622      118.40746    
-807617         3.6461519      33.955243      25.851854      117.97594    
-807597.58      3.1481485      36.890787      25.892667      117.544      
-807609.1       3.3963068      37.091936      25.862501      117.11311    
-807628.83      3.2954365      34.070273      25.85938       116.6827     
-807643.73      2.9044534      32.654133      25.873549      116.25242    
-807645.93      4.6690132      36.498899      25.843973      115.82314    
-807656.17      3.2503119      34.895809      25.831971      115.39449    
-807649.12      3.5838957      35.273165      25.827521      114.96631    
-807633.53      3.0432009      33.604365      25.852302      114.53803    
-807607.17      4.6671006      35.863719      25.866234      114.10986    
-807608.03      3.2996952      36.294774      25.859077      113.6822     
-807611.12      3.7858618      35.702044      25.841533      113.25525    
-807627.34      3.0302195      32.353843      25.850001      112.82851    
-807639.26      3.7975569      33.280651      25.867355      112.40179    
-807657.64      3.0269286      32.848947      25.84179       111.97592    
-807654.91      2.985639       34.673818      25.77935       111.55154    
-807646.17      3.8563552      33.191185      25.799143      111.12713    
-807627.13      3.00272        33.573464      25.865341      110.70183    
-807617.52      3.4045008      35.46608       25.886267      110.27651    
-807607.84      3.5853575      36.79645       25.882646      109.85158    
-807608.76      2.9216016      35.764368      25.848298      109.42761    
-807624.83      3.4185813      33.686876      25.867271      109.00362    
-807648.99      3.4087297      32.987188      25.877631      108.57978    
-807657.67      3.0240294      33.203072      25.842979      108.15686    
-807649.32      3.3601064      34.420409      25.817714      107.73468    
-807643.72      3.1404423      33.349546      25.815088      107.31284    
-807634.99      3.6369965      32.340403      25.856765      106.89059    
-807615.42      2.9327026      35.254949      25.83805       106.46896    
-807599.39      3.2540785      37.084248      25.843842      106.04752    
-807612.49      3.3855593      34.580389      25.840008      105.62644    
-807634.32      3.0349204      32.945193      25.835388      105.20571    
-807649.83      3.0121431      33.047613      25.83612       104.78526    
-807649.05      4.2386121      35.27883       25.827218      104.36522    
-807653.05      2.9443709      33.98724       25.849973      103.9451     
-807645.85      2.9053818      33.114595      25.866009      103.52499    
-807631.44      3.28376        33.460368      25.864869      103.10518    
-807604.84      3.9917337      35.80392       25.878726      102.68542    
-807606.34      2.9440636      35.890818      25.879263      102.26592    
-807618.08      3.6418704      34.211255      25.838125      101.84733    
-807636.17      3.1167057      32.238093      25.845046      101.42888    
-807641.98      3.5505876      33.4733        25.868         101.01034    
-807655.26      2.9304607      32.988578      25.83798       100.5925     
-807653.17      2.9468236      33.345166      25.79912       100.17549    
-807644.06      3.3353591      32.505166      25.811402      99.758529    
-807623.02      2.9445938      33.265583      25.882416      99.340764    
-807610.91      2.9104279      35.184051      25.8874        98.923175    
-807609.18      3.641138       35.931271      25.854823      98.506298    
-807618.11      3.107577       34.036985      25.852125      98.089696    
-807629.38      3.8314224      33.284107      25.864734      97.673146    
-807648.21      3.11551        33.544888      25.869309      97.256765    
-807655.85      2.9214913      33.394069      25.820404      96.841295    
-807649.48      3.0851136      34.075781      25.850192      96.42563     
-807637.62      3.5396577      33.150018      25.859371      96.01006     
-807624.5       3.1883283      33.280715      25.884447      95.59437     
-807611.98      3.2635863      35.582506      25.881662      95.178941    
-807604.28      3.504243       36.040874      25.834064      94.764368    
-807613.55      2.8148141      34.650816      25.834969      94.349991    
-807635.5       2.9433934      32.557055      25.855533      93.935548    
-807649.75      2.6734796      33.367944      25.807616      93.521939    
-807649.21      3.5563364      34.768096      25.839109      93.108117    
-807646.66      2.9757761      34.300917      25.846954      92.694392    
-807639.17      3.4193728      32.702558      25.880181      92.280444    
-807625.46      3.0680921      34.132508      25.798274      91.867735    
-807605.8       3.5414165      36.089491      25.843581      91.454641    
-807605.64      2.8037469      35.874991      25.851514      91.04164     
-807618.37      3.4800929      33.971747      25.809826      90.629346    
-807639.83      2.7876293      32.491299      25.83951       90.216868    
-807645.7       3.3078504      33.768157      25.799325      89.805064    
-807649.02      3.2832056      34.0429        25.810533      89.393299    
-807647.87      3.3291073      33.637866      25.831692      88.981455    
-807640.18      2.5356044      32.997293      25.811538      88.570029    
-807619.81      2.6924001      33.585894      25.840596      88.158431    
-807606.02      3.022359       35.973785      25.875452      87.746602    
-807609.93      3.184993       35.547911      25.872778      87.334984    
-807625.15      3.3050346      33.61797       25.846189      86.923849    
-807635.99      3.9704361      32.479817      25.859185      86.512736    
-807645.53      3.3897796      33.475638      25.861702      86.101766    
-807654.53      3.571504       33.502416      25.873474      85.690834    
-807648.63      2.7497107      32.802266      25.86358       85.280183    
-807634.54      3.1457131      33.151296      25.895519      84.869346    
-807619.8       3.3666618      33.728728      25.878478      84.458867    
-807611.79      3.0126898      35.200188      25.903399      84.048284    
-807612.22      3.0122918      35.165925      25.846488      83.63848     
-807623.43      3.2107464      32.974507      25.7945        83.229389    
-807637.91      2.6184871      31.922774      25.844426      82.819914    
-807652.1       2.6547124      32.15256       25.800812      82.411051    
-807652.49      3.0382284      32.275176      25.781212      82.002538    
-807645.65      2.6841381      32.187771      25.815894      81.593804    
-807634.57      2.7325198      31.488132      25.855057      81.184814    
-807623.26      2.9775494      32.792851      25.85508       80.775972    
-807610.89      3.5445319      34.789897      25.85311       80.367298    
-807611.36      2.8426452      34.731143      25.86715       79.958629    
-807625.42      3.0629592      33.189381      25.856051      79.550217    
-807643.87      3.0524586      31.539285      25.853666      79.141972    
-807650.52      3.3412866      32.621963      25.876687      78.733645    
-807649.98      3.015734       33.146717      25.896011      78.325276    
-807643.97      3.0130021      32.749893      25.867159      77.917328    
-807635.84      2.4858721      31.567045      25.838624      77.50979     
-807618.56      3.5132711      34.017412      25.861151      77.102173    
-807609.45      3.6027486      34.79159       25.870118      76.694609    
-807613.81      2.742014       35.065089      25.85529       76.287319    
-807631.01      2.4775334      32.666179      25.804593      75.880626    
-807642.54      3.0534948      32.515149      25.847514      75.473666    
-807648.34      3.7477924      33.556952      25.843521      75.06687     
-807649.92      3.364924       33.615602      25.812087      74.660482    
-807645.51      2.661838       32.024463      25.836801      74.253996    
-807629.63      2.7244694      32.729071      25.821793      73.847766    
-807616.13      2.9133612      33.610967      25.907692      73.440908    
-807610.16      2.5497284      35.185426      25.865206      73.034547    
-807619.49      3.0903001      33.980329      25.862936      72.62833     
-807631.41      2.8831187      33.145462      25.876182      72.222124    
-807641.52      3.1054382      33.256522      25.896297      71.815872    
-807649.37      2.9808705      33.747139      25.886404      71.409827    
-807651         3.1618964      33.245593      25.869641      71.004044    
-807640.97      3.0453052      33.533664      25.886193      70.598244    
-807627.19      3.442846       33.216731      25.873666      70.192666    
-807613.95      2.8475129      35.285093      25.888238      69.787089    
-807610.44      3.3949269      35.775176      25.821602      69.382161    
-807616.93      3.3267337      35.493457      25.820847      68.977348    
-807629.7       2.7855764      33.59732       25.83958       68.572495    
-807643.83      2.7529544      33.330298      25.814558      68.167945    
-807649.33      3.2664394      34.195353      25.815833      67.763489    
-807646.94      2.799175       33.818079      25.83151       67.359017    
-807638.21      2.9013535      33.303859      25.84312       66.954561    
-807628.07      2.9337876      33.197855      25.857331      66.550103    
-807613.09      3.1573104      35.314937      25.857602      66.14575     
-807608.89      3.3569632      35.468334      25.873699      65.741383    
-807615.26      3.4388052      35.126843      25.883385      65.337052    
-807633.78      3.1194611      32.791127      25.866206      64.932952    
-807644.69      3.3504968      33.713421      25.875504      64.528889    
-807649.15      3.460083       33.344098      25.856981      64.125061    
-807645.48      3.7602376      34.111468      25.850305      63.72138     
-807639.67      3.1393391      33.366772      25.819842      63.318011    
-807626.65      3.6315486      33.888197      25.867659      62.914406    
-807611.52      3.5143839      35.916581      25.884565      62.510784    
-807608.47      2.8712643      35.857766      25.878717      62.107302    
-807620.8       3.0730271      34.44138       25.887401      61.703861    
-807635.33      2.9594936      32.953488      25.871399      61.300625    
-807642.85      4.0861765      34.355589      25.831212      60.897751    
-807648.27      3.531455       34.089136      25.814553      60.495077    
-807647.64      3.3737902      33.337422      25.838349      60.092335    
-807638.24      2.78797        33.625874      25.868585      59.68949     
-807621.9       2.8502609      34.355454      25.889615      59.286604    
-807612.99      2.6453586      35.002299      25.891286      58.883803    
-807614.01      3.5715502      35.634153      25.89876       58.481048    
-807622.1       3.7851873      34.965257      25.918221      58.078268    
-807634.46      3.6103863      33.111822      25.898503      57.675704    
-807646.34      3.2795966      33.302996      25.884597      57.273316    
-807649.47      2.9813676      34.693982      25.856523      56.871185    
-807644.7       2.909985       33.256178      25.890542      56.468939    
-807635.4       3.6918991      33.24255       25.886465      56.066807    
-807623.65      3.421615       34.375581      25.91368       55.664604    
-807613.8       3.7699777      35.759231      25.915331      55.262482    
-807614.28      3.5010415      35.170586      25.922355      54.86041     
-807623.41      3.3246463      33.578536      25.919727      54.458443    
-807637.49      3.3202227      33.029728      25.908996      54.056624    
-807646.8       2.9483142      33.096902      25.905691      53.654911    
-807646.94      2.8399619      33.462769      25.879657      53.253425    
-807642.72      4.4601823      33.937279      25.873694      52.852054    
-807634.86      2.8057713      33.029501      25.924401      52.450492    
-807622.66      2.6394618      33.733051      25.895196      52.049171    
-807611.79      2.8983021      35.898279      25.918615      51.647809    
-807616.15      3.4645043      34.906986      25.854744      51.246862    
-807626.51      2.874997       34.113835      25.867155      50.845927    
-807639.03      3.2310661      33.498011      25.848294      50.445166    
-807645.11      2.98866        33.732712      25.857434      50.044433    
-807648.07      3.2202056      33.423291      25.821984      49.643951    
-807642.8       3.4752159      33.33489       25.886558      49.243221    
-807633.28      3.7245497      32.717057      25.897458      48.842514    
-807620.28      2.9353439      33.247388      25.933637      48.441711    
-807613.97      3.1656871      34.751947      25.924232      48.041032    
-807616.61      3.0664496      34.076642      25.904664      47.640525    
-807628.04      2.8591844      33.489384      25.885154      47.240184    
-807639.96      3.3544824      33.137575      25.932073      46.8397      
-807644.16      3.024401       33.631293      25.923143      46.439335    
-807646.43      2.5293854      33.601514      25.931406      46.039009    
-807640.92      3.2373066      33.918632      25.907106      45.638867    
-807629.36      3.5096791      33.644355      25.926039      45.238715    
-807618.71      2.9584758      34.214861      25.894793      44.838774    
-807614.65      3.3295194      34.778779      25.862996      44.43904     
-807618.71      3.3206452      35.023152      25.817789      44.039567    
-807629.26      2.8984411      33.76878       25.81993       43.640148    
-807641.51      2.5678468      32.288867      25.887761      43.240507    
-807645.4       2.8642911      33.966826      25.892841      42.840914    
-807646.37      3.0449803      33.307456      25.862039      42.441514    
-807638.77      3.2871719      33.404808      25.859176      42.04219     
-807628.13      2.7345331      33.004445      25.87512       41.642867    
-807618.23      3.0888799      34.709519      25.904022      41.243495    
-807613.65      2.8260126      35.306299      25.898751      40.844211    
-807619.25      2.4537898      34.088804      25.882323      40.445056    
-807629.06      2.5911968      33.089422      25.925025      40.045804    
-807640.7       2.7558928      33.464314      25.889783      39.646751    
-807645.84      3.2161479      34.054272      25.921923      39.247643    
-807644.47      3.598103       33.573488      25.892826      38.848708    
-807637.07      3.3311516      33.308365      25.885655      38.449861    
-807627.54      3.2780351      33.890982      25.84974       38.051204    
-807618.69      3.7928991      34.471208      25.837649      37.652648    
-807612.74      3.1932829      35.097375      25.883966      37.253988    
-807619.05      3.4620946      34.682149      25.879633      36.855403    
-807632.48      2.8305799      32.957345      25.909919      36.456776    
-807640.4       3.2787396      33.729207      25.890219      36.058277    
-807644.48      3.1136914      33.889213      25.854455      35.659955    
-807644.42      3.0086217      33.657479      25.874073      35.261625    
-807637.01      2.6015188      33.334144      25.878394      34.863339    
-807626.48      2.8626844      33.603933      25.871847      34.465131    
-807617.78      3.391781       34.623903      25.901515      34.066888    
-807613.01      3.2535514      35.298225      25.904439      33.668694    
-807623.13      2.9243975      34.322856      25.9797        33.270333    
-807634.05      2.7894846      33.641971      25.902274      32.872265    
-807641.83      2.722448       33.406204      25.905822      32.474245    
-807645.27      3.2234339      33.99041       25.877879      32.076362    
-807644.48      2.8215469      33.916869      25.855603      31.678598    
-807635.82      2.9352121      33.04366       25.873409      31.280835    
-807624.76      3.09018        33.64273       25.881884      30.883103    
-807616.01      2.8684927      34.181243      25.895233      30.485388    
-807617.57      2.6095383      34.451636      25.930561      30.087633    
-807624.27      2.8488339      33.420893      25.911851      29.689985    
-807636.02      3.495666       32.763785      25.903807      29.292412    
-807644.01      3.2173471      32.996109      25.912175      28.894872    
-807647.9       3.0283149      32.949438      25.893679      28.497432    
-807643.78      2.7348326      32.360434      25.898436      28.100034    
-807635.07      3.1028263      32.971469      25.892985      27.7027      
-807623.08      3.3819949      34.306267      25.906187      27.305387    
-807616.48      3.3233599      34.964971      25.880227      26.908188    
-807617.06      3.3465071      34.62112       25.888252      26.51102     
-807624.85      3.5214957      33.763705      25.911977      26.113848    
-807636.39      2.8446405      33.324653      25.878571      25.716802    
-807645.63      3.3605073      33.178471      25.866879      25.319831    
-807647.46      3.4113072      33.2346        25.896217      24.922844    
-807641.58      3.3937437      32.700248      25.882571      24.525935    
-807634.71      2.6828128      32.644473      25.880414      24.129079    
-807623.53      3.8878289      33.624915      25.908521      23.732213    
-807618.03      3.2833335      34.240451      25.866762      23.33548     
-807616.23      3.4546895      34.555577      25.913984      22.938701    
-807628.16      3.0785149      33.384518      25.930922      22.541938    
-807636.94      2.9715413      33.789693      25.914416      22.145256    
-807644.51      3.6403993      33.87381       25.884742      21.748678    
-807643.84      3.0299656      33.882327      25.880307      21.352153    
-807641.42      3.1165434      33.514824      25.901772      20.955636    
-807631.82      2.9967751      33.792561      25.874727      20.559212    
-807622.42      3.3838178      33.677672      25.887592      20.162811    
-807614.95      2.668843       34.264236      25.901777      19.766431    
-807620.16      2.927771       34.130567      25.877987      19.370135    
-807627.7       3.3540619      33.902619      25.848924      18.97393     
-807638.36      2.8926012      33.98483       25.851957      18.57776     
-807642.75      3.1927333      34.166653      25.86637       18.18161     
-807645         3.2290905      33.891445      25.889928      17.785468    
-807639.35      2.974777       33.807685      25.881275      17.389381    
-807630.09      3.0772612      33.615524      25.847486      16.993384    
-807618.94      3.5370536      34.047729      25.831352      16.597449    
-807615.16      3.2891917      34.612606      25.850258      16.201527    
-807619.75      2.913626       34.274048      25.903287      15.805576    
-807628.57      4.2755147      33.226402      25.878713      15.409699    
-807638.85      3.0782258      33.063068      25.90296       15.013833    
-807643.75      4.6687155      34.272808      25.890529      14.618024    
-807646.24      2.8617889      33.252202      25.921244      14.222221    
-807636.49      3.8473013      34.021788      25.88669       13.8265      
-807628.42      3.035554       33.663302      25.873499      13.430833    
-807617.98      3.5074454      34.731248      25.84313       13.035238    
-807615.62      2.8038324      35.296577      25.842836      12.63968     
-807619.07      4.2496284      33.86796       25.884187      12.244118    
-807628.6       3.2012074      33.454941      25.891606      11.848589    
-807637.28      3.9842098      33.801774      25.915515      11.453076    
-807644.6       3.2785414      33.894387      25.896925      11.057621    
-807640.54      3.131969       34.101016      25.921511      10.662185    
-807637.66      2.8007206      33.809984      25.861007      10.266839    
-807627.25      2.9906993      34.327713      25.883078      9.8715115    
-807620.12      3.0687178      35.433125      25.890627      9.4762164    
-807612.94      3.2257308      35.499855      25.865492      9.0809774    
-807621.48      3.0686386      34.380893      25.855362      8.6857814    
-807626.56      2.790614       35.792629      25.871358      8.2906101    
-807639.3       3.1542146      33.697267      25.925782      7.895441     
-807640.31      2.9292566      34.671518      25.918058      7.5003158    
-807642.2       3.1430651      33.830187      25.923435      7.1052262    
-807636.3       3.9432849      34.387861      25.880135      6.7101979    
-807626.58      2.8127574      34.093094      25.850045      6.3152202    
-807616.6       2.8436504      34.903521      25.899717      5.9202531    
-807616.29      3.8139663      35.318726      25.865838      5.525337     
-807624.12      3.0759619      34.337731      25.888488      5.1304459    
-807630.5       3.512147       34.089689      25.934042      4.7355736    
-807638.89      2.9687421      33.859805      25.959551      4.3407306    
-807643.61      3.6650913      34.406797      25.924463      3.9459376    
-807642.6       2.8302786      33.36571       25.928458      3.5511804    
-807634.81      3.2688297      33.083307      25.913194      3.1564638    
-807625.33      2.664915       33.840022      25.878189      2.7617903    
-807618.55      3.0003115      34.13765       25.888043      2.3671485    
-807620.22      3.7426066      33.888805      25.881988      1.9725414    
-807623.78      5.1196966      33.734243      25.914844      1.5779635    
-807634.88      3.1491052      32.946999      25.92897       1.1834194    
-807639.55      3.521695       34.305456      25.928942      0.7889109    
-807645.6       3.4036504      33.539889      25.93067       0.39443779   
-807637.96      3.0826813      34.579165      25.919442      0            
Loop time of 197.21 on 32 procs for 5000 steps with 1080 atoms

Performance: 4.381 ns/day, 5.478 hours/ns, 25.354 timesteps/s, 27.382 katom-step/s
67.3% CPU use with 32 MPI tasks x 1 OpenMP threads

MPI task timing breakdown:
Section |  min time  |  avg time  |  max time  |%varavg| %total
---------------------------------------------------------------
Pair    | 100.9      | 144.67     | 192.72     | 312.1 | 73.36
Neigh   | 0          | 0          | 0          |   0.0 |  0.00
Comm    | 2.1317     | 50.186     | 93.963     | 529.9 | 25.45
Output  | 0.024946   | 0.031858   | 0.034435   |   0.8 |  0.02
Modify  | 1.9939     | 2.01       | 2.0233     |   0.5 |  1.02
Other   |            | 0.3143     |            |       |  0.16

Nlocal:          33.75 ave          48 max          21 min
Histogram: 8 8 0 0 0 0 0 8 0 8
Nghost:        1106.25 ave        1119 max        1092 min
Histogram: 8 0 8 0 0 0 0 0 8 8
Neighs:              0 ave           0 max           0 min
Histogram: 32 0 0 0 0 0 0 0 0 0
FullNghs:       5494.5 ave        7896 max        3378 min
Histogram: 8 8 0 0 0 0 0 8 0 8

Total # of neighbors = 175824
Ave neighs/atom = 162.8
Neighbor list builds = 0
Dangerous builds = 0

reset_timestep 0


variable interval equal 1000
thermo 10

variable nintervals equal $(v_PERIOD/v_interval)
variable nintervals equal 100
variable efield equal 1e-2*36.36*cos((step/${PERIOD})*2*3.14)
variable efield equal 1e-2*36.36*cos((step/100000)*2*3.14)
fix born all addbornforce 0.0 0.0 v_efield

variable Px equal f_born[1]+c_polarization[1]
variable Py equal f_born[2]+c_polarization[2]
variable Pz equal (f_born[3]+c_polarization[3])/vol
variable pe equal pe

fix aveP all ave/time 1 $(v_interval/2) ${interval} v_efield v_Pz v_pe f_born file Pz.${MODEL}.${STRUCTURE}.${TEMP}.$L.${ITER}
fix aveP all ave/time 1 500 ${interval} v_efield v_Pz v_pe f_born file Pz.${MODEL}.${STRUCTURE}.${TEMP}.$L.${ITER}
fix aveP all ave/time 1 500 1000 v_efield v_Pz v_pe f_born file Pz.${MODEL}.${STRUCTURE}.${TEMP}.$L.${ITER}
fix aveP all ave/time 1 500 1000 v_efield v_Pz v_pe f_born file Pz.BaTiO3-E0.${STRUCTURE}.${TEMP}.$L.${ITER}
fix aveP all ave/time 1 500 1000 v_efield v_Pz v_pe f_born file Pz.BaTiO3-E0.BaTiO3-sc333.${TEMP}.$L.${ITER}
fix aveP all ave/time 1 500 1000 v_efield v_Pz v_pe f_born file Pz.BaTiO3-E0.BaTiO3-sc333.300.$L.${ITER}
fix aveP all ave/time 1 500 1000 v_efield v_Pz v_pe f_born file Pz.BaTiO3-E0.BaTiO3-sc333.300.2.${ITER}
fix aveP all ave/time 1 500 1000 v_efield v_Pz v_pe f_born file Pz.BaTiO3-E0.BaTiO3-sc333.300.2.9

thermo_style custom step time temp press pe f_born v_efield v_Pz spcpu cpuremain

# dump 4a all custom 1000 dump.hyst.${MODEL}.${STRUCTURE}.${TEMP}.$L.${ITER}.bin id type xu yu zu fx fy fz
# dump_modify 4a sort id

fix nvt all nvt temp ${TEMP} ${TEMP} $(100*dt)
fix nvt all nvt temp 300 ${TEMP} $(100*dt)
fix nvt all nvt temp 300 300 $(100*dt)
fix nvt all nvt temp 300 300 0.2000000000000000111

run $(v_PERIOD)
run 100000
WARNING: non-constant efield is experimental, strongly distrust scalar/vector output (src/fix_addbornforce.cpp:193)
Per MPI rank memory allocation (min/avg/max) = 3.516 | 3.516 | 3.516 Mbytes
   Step          Time           Temp          Press          PotEng         f_born        v_efield         v_Pz          S/CPU         CPULeft    
         0   0              273.53536      127252.34     -807637.96     -294.06167      0.3636         0.055304703    0              0            
        10   0.02           308.35615      130199.75     -807635.62     -301.3769       0.36359993     0.056680503    28.524176      3505.4663    
        20   0.04           297.7911       139798.78     -807624.95     -310.5463       0.36359971     0.058405043    28.505396      3506.2609    
        30   0.06           293.42293      142648.72     -807620.82     -314.12812      0.36359935     0.05907874     28.502054      3506.429     
        40   0.08           305.98969      143875.39     -807620.64     -315.96805      0.36359885     0.059424863    28.509386      3506.1123    
        50   0.1            294.09418      137780        -807624.84     -310.22295      0.36359821     0.058344472    28.546816      3504.8623    
        60   0.12           309.24556      131918.67     -807635.92     -301.13308      0.36359742     0.056635038    28.525915      3504.3399    
        70   0.14           282.27147      125542.82     -807640.86     -292.39196      0.36359649     0.054991208    28.496982      3504.3746    
        80   0.16           285.37483      124618.95     -807641.83     -291.77295      0.36359541     0.054874951    28.56708       3503.2375    
        90   0.18           293.71087      126353.02     -807639.49     -295.25204      0.36359419     0.055529464    28.586318      3502.0138    
       100   0.2            306.38474      133174.59     -807633.55     -302.85165      0.36359283     0.056958972    28.575444      3501.0979    
       110   0.22           307.33957      139522.08     -807625.51     -311.00667      0.36359132     0.058492975    28.550151      3500.5666    
       120   0.24           303.19552      142964.35     -807620.7      -315.1461       0.36358968     0.059271771    28.553932      3500.0264    
       130   0.26           292.36455      143302.12     -807619.29     -314.87098      0.36358788     0.05922032     28.522306      3499.814     
       140   0.28           301.87085      136133.79     -807627.78     -307.61628      0.36358595     0.057856179    28.522806      3499.5774    
       150   0.3            302.54409      130929.9      -807635.36     -299.87658      0.36358387     0.056400825    28.586552      3498.8053    
       160   0.32           291.19729      125411.68     -807640.54     -292.9579       0.36358165     0.055099897    28.584275      3498.1032    
       170   0.34           277.86249      126505.59     -807639.08     -292.30022      0.36357928     0.054976556    28.552337      3497.6725    
       180   0.36           298.61949      127191.91     -807639.12     -294.97477      0.36357677     0.055479976    28.550481      3497.2633    
       190   0.38           316.94925      134923.11     -807632.23     -304.08909      0.36357412     0.057194648    28.534794      3496.9615    
       200   0.4            306.02561      139373.89     -807623.51     -311.09121      0.36357132     0.058512093    28.524215      3496.7196    
       210   0.42           304.97265      144620.95     -807618.24     -315.81777      0.36356838     0.059401577    28.543725      3496.3534    
       220   0.44           302.72378      141214.76     -807621.68     -311.84513      0.3635653      0.058654868    28.526335      3496.0856    
       230   0.46           315.68733      137173.69     -807627.63     -307.40922      0.36356207     0.057821031    28.523812      3495.8243    
       240   0.48           310.07749      128849.78     -807634.75     -299.29725      0.3635587      0.056295762    28.56561       3495.3421    
       250   0.5            299.32367      126610.26     -807638.89     -293.34791      0.36355519     0.055177264    28.589435      3494.7541    
       260   0.52           289.5124       125622.57     -807639.58     -291.19921      0.36355153     0.054773656    28.58565       3494.2024    
       270   0.54           317.0585       130109.72     -807636.58     -297.91885      0.36354773     0.056038185    28.585707      3493.6652    
       280   0.56           311.01491      135182.51     -807628.24     -305.35141      0.36354379     0.057436863    28.607845      3493.0448    
       290   0.58           310.54912      141062.9      -807622.05     -311.38083      0.3635397      0.058571662    28.559633      3492.6461    
       300   0.6            306.11208      142850.64     -807619.47     -313.28556      0.36353547     0.058930632    28.542263      3492.3215    
       310   0.62           309.46494      141089.37     -807620.97     -312.24638      0.3635311      0.058735864    28.53003       3492.0435    
       320   0.64           323.7701       135567.46     -807628.7      -306.46653      0.36352658     0.057649348    28.560487      3491.6446    
       330   0.66           311.49773      128944.71     -807635.52     -298.00212      0.36352192     0.056057828    28.523272      3491.3866    
       340   0.68           296.56174      127348.35     -807638.82     -292.6235       0.36351712     0.055046771    28.531121      3491.095     
       350   0.7            302.11116      125370.14     -807639.52     -292.90518      0.36351217     0.05510051     28.518506      3490.8439    
       360   0.72           306.65736      130718.17     -807633.4      -299.7315       0.36350708     0.056385446    28.554587      3490.4649    
       370   0.74           315.81554      134290.08     -807629.41     -305.26158      0.36350185     0.057426592    28.532907      3490.1589    
       380   0.76           303.08416      141891.45     -807620.85     -312.21227      0.36349647     0.058735043    28.533799      3489.8478    
       390   0.78           312.38811      141529.67     -807621.49     -313.11358      0.36349095     0.058905495    28.524386      3489.5642    
       400   0.8            312.86033      140718.01     -807622.88     -311.96802      0.36348529     0.058690898    28.549149      3489.2016    
       410   0.82           313.23307      133406.28     -807631.64     -303.51894      0.36347948     0.057102276    28.461703      3489.1009    
       420   0.84           299.98256      129461.18     -807636.57     -296.93133      0.36347353     0.055863836    28.488755      3488.9092    
       430   0.86           293.30958      124817.8      -807640.22     -292.56488      0.36346744     0.055043267    28.543378      3488.5546    
       440   0.88           302.58676      127395.42     -807639.25     -294.99704      0.3634612      0.055501806    28.53065       3488.2355    
       450   0.9            295.41924      130968.37     -807634.33     -299.17304      0.36345482     0.056288482    28.532315      3487.9105    
       460   0.92           301.57144      137543.19     -807627.55     -306.9199       0.3634483      0.057747067    28.527551      3487.5971    
       470   0.94           310.03193      140246.83     -807624.07     -311.73706      0.36344163     0.058654492    28.532617      3487.2689    
       480   0.96           305.58905      141851.56     -807621.1      -314.15285      0.36343482     0.059110141    28.579619      3486.8202    
       490   0.98           298.08488      138688.04     -807625.03     -309.27708      0.36342786     0.058193843    28.558573      3486.428     
       500   1              303.90341      133702.5      -807632.92     -302.26847      0.36342077     0.056876207    28.502905      3486.1735    
       510   1.02           300.98319      127932.35     -807637.98     -9498.475       0.36341353     0.055853493    28.459553      3486.0195    
       520   1.04           288.11579      126417.23     -807638.7      -9419.9018      0.36340614     0.055392587    28.48672       3485.7938    
       530   1.06           295.22776      127638.34     -807638.97     -9443.4075      0.36339862     0.05553196     28.451054      3485.646     
       540   1.08           300.36959      130946.49     -807634.73     -9604.0708      0.36339095     0.056477932    28.448685      3485.496     
       550   1.1            305.28384      137177.73     -807626.73     -9881.3982      0.36338313     0.05811004     28.439435      3485.3594    
       560   1.12           311.04704      140095.19     -807623.9      -10001.474      0.36337518     0.058817462    28.419323      3485.2592    
       570   1.14           303.19151      141578.1      -807622.39     -10013.16       0.36336707     0.058887502    28.454005      3485.0755    
       580   1.16           301.44608      137220.01     -807627.59     -9841.5691      0.36335883     0.057879686    28.453406      3484.8872    
       590   1.18           306.07901      132967.45     -807632.97     -9688.4787      0.36335044     0.056980654    28.439667      3484.722     
       600   1.2            288.38651      126797.11     -807636.78     -9491.0622      0.36334191     0.055820903    28.503847      3484.4194    
       610   1.22           292.2284       126710.5      -807640.51     -9385.7927      0.36333324     0.055203087    28.547043      3484.0288    
       620   1.24           289.35157      126701.38     -807639.04     -9422.6532      0.36332442     0.055421229    28.513196      3483.706     
       630   1.26           301.05765      133911.45     -807631.71     -9708.5375      0.36331546     0.057104124    28.503535      3483.4012    
       640   1.28           305.10541      136788.37     -807627.2      -9875.1549      0.36330636     0.058085597    28.517444      3483.0683    
       650   1.3            296.75613      142446.71     -807622.38     -9987.8574      0.36329711     0.058750007    28.520994      3482.7282    
       660   1.32           296.82323      139200.27     -807624.72     -9917.4001      0.36328772     0.058337075    28.486817      3482.4512    
       670   1.34           304.54201      137641.07     -807626.56     -9890.4696      0.36327819     0.058180189    28.497181      3482.153     
       680   1.36           300.4365       130668.16     -807633.44     -9653.9043      0.36326851     0.056790118    28.535727      3481.784     
       690   1.38           294.54109      128531.82     -807638.59     -9459.7564      0.36325869     0.055649527    28.512219      3481.4571    
       700   1.4            294.40503      126515.39     -807640.87     -9386.5665      0.36324873     0.055220482    28.506752      3481.1391    
       710   1.42           299.91738      129445.34     -807636.43     -9553.1727      0.36323863     0.056202178    28.472304      3480.8795    
       720   1.44           301.74976      133811.71     -807631.27     -9727.7225      0.36322838     0.057230685    28.476602      3480.6101    
       730   1.46           292.12646      138510.12     -807625.4      -9871.6952      0.36321798     0.058079375    28.445554      3480.3905    
       740   1.48           307.00262      139569.71     -807625.01     -9948.9825      0.36320745     0.058535787    28.449036      3480.1616    
       750   1.5            301.20724      138741.87     -807623.91     -9958.4074      0.36319677     0.058592962    28.420502      3479.9761    
       760   1.52           302.72835      135015.62     -807628.94     -9803.2684      0.36318595     0.057681879    28.452365      3479.7348    
       770   1.54           295.22537      131170.19     -807635.2      -9568.1595      0.36317498     0.056300211    28.490524      3479.43      
       780   1.56           294.48762      127294.75     -807639.48     -9424.1723      0.36316387     0.055454669    28.489453      3479.1257    
       790   1.58           294.03703      126638.56     -807638.76     -9444.7112      0.36315262     0.055577249    28.469694      3478.8508    
       800   1.6            301.81347      130497.37     -807635.64     -9577.7596      0.36314122     0.056361938    28.443712      3478.6138    
       810   1.62           296.40311      135071.75     -807629.96     -9735.1652      0.36312968     0.057290038    28.433765      3478.389     
       820   1.64           303.24272      138863.35     -807626.19     -9883.8077      0.363118       0.058166649    28.419436      3478.1825    
       830   1.66           299.49225      140060.53     -807622.49     -9983.3384      0.36310618     0.058754305    28.464396      3477.9062    
       840   1.68           294.95335      139581.91     -807622.57     -9957.2297      0.36309421     0.058602581    28.500029      3477.5762    
       850   1.7            298.22472      134445.54     -807629.86     -9735.4333      0.3630821      0.057299125    28.508966      3477.2328    
       860   1.72           305.64748      131260.56     -807635.72     -9574.7737      0.36306984     0.056355445    28.503881      3476.8966    
       870   1.74           297.91849      127679.29     -807637.93     -9465.19        0.36305745     0.055712357    28.505623      3476.5576    
       880   1.76           304.18855      128014.65     -807637.8      -9491.9029      0.3630449      0.055871519    28.502684      3476.2223    
       890   1.78           297.62489      130114.72     -807635.27     -9541.0664      0.36303222     0.056162869    28.516126      3475.8683    
       900   1.8            302.04752      136176.45     -807629.05     -9754.1544      0.36301939     0.057419227    28.509182      3475.5238    
       910   1.82           308.09217      137532.23     -807625.73     -9886.086       0.36300642     0.05819794     28.512753      3475.1743    
       920   1.84           309.86801      140451.2      -807622.82     -9978.7165      0.36299331     0.058745365    28.503711      3474.8368    
       930   1.86           296.94839      137732.84     -807625.24     -9840.9743      0.36298005     0.057936583    28.479406      3474.5309    
       940   1.88           311.95517      135280.4      -807630.48     -9732.5841      0.36296665     0.057300575    28.512492      3474.1811    
       950   1.9            308.28648      128967.22     -807635.46     -9554.8347      0.36295311     0.056256175    28.521801      3473.8193    
       960   1.92           299.34164      129775.21     -807636.11     -9489.108       0.36293942     0.055871301    28.472185      3473.5208    
       970   1.94           299.77851      127586.03     -807638.29     -9418.68        0.36292559     0.055458739    28.459389      3473.2374    
       980   1.96           296.01012      133952.64     -807631.98     -9598.8595      0.36291162     0.056521841    28.450845      3472.9633    
       990   1.98           312.92125      134499.14     -807629.56     -9753.2467      0.3628975      0.057433167    28.444469      3472.6954    
      1000   2              308.8388       140536.23     -807622.8      -9944.1986      0.36288325     0.058559911    28.343258      3472.5501    
      1010   2.02           300.04134      138513.07     -807623.54     -308.82179      0.36286884     0.058197693    28.468539      3472.2486    
      1020   2.04           319.61043      138678.71     -807626.23     -308.71635      0.3628543      0.058180156    28.47757       3471.9353    
      1030   2.06           307.57363      133176.6      -807630.35     -303.0406       0.36283961     0.057112824    28.512917      3471.5794    
      1040   2.08           308.46134      131469.24     -807634.31     -299.09372      0.36282478     0.056371277    28.535909      3471.1967    
      1050   2.1            297.9954       126872.37     -807638.21     -293.74134      0.3628098      0.055364779    28.518516      3470.8348    
      1060   2.12           295.43385      129269.76     -807635.92     -295.66913      0.36279469     0.055730454    28.522021      3470.4691    
      1070   2.14           317.06473      131098.58     -807633.65     -301.07463      0.36277943     0.05675172     28.553737      3470.0676    
      1080   2.16           308.20052      136743.67     -807627.01     -306.60485      0.36276402     0.057796605    28.581466      3469.636     
      1090   2.18           312.53519      139665.17     -807625.34     -308.97281      0.36274848     0.058245474    28.579133      3469.2085    
      1100   2.2            301.97532      140364.33     -807622.95     -310.07034      0.36273279     0.0584549      28.585164      3468.7757    
      1110   2.22           305.10197      138442.82     -807624.61     -309.02569      0.36271695     0.058260506    28.582236      3468.3477    
      1120   2.24           309.52047      132423.16     -807631.68     -302.8363       0.36270098     0.057096137    28.569404      3467.9349    
      1130   2.26           296.72945      130127.06     -807635.67     -297.17205      0.36268486     0.056030701    28.530989      3467.5644    
      1140   2.28           297.31701      127050.75     -807639.97     -293.30926      0.3626686      0.055304865    28.544703      3467.1797    
      1150   2.3            298.76781      129363.01     -807636.48     -297.18381      0.36265219     0.056037965    28.565095      3466.7741    
      1160   2.32           305.56457      130263.44     -807635.16     -299.82732      0.36263564     0.056539014    28.575728      3466.3583    
      1170   2.34           310.19687      136678.02     -807629.76     -306.05803      0.36261895     0.057716608    28.575374      3465.9441    
      1180   2.36           294.25526      137819.29     -807625.34     -308.64176      0.36260212     0.058206551    28.541761      3465.5655    
      1190   2.38           291.48304      140851.29     -807622.2      -311.50528      0.36258514     0.058749331    28.458149      3465.2728    
      1200   2.4            293.57933      135112.68     -807627.89     -306.38281      0.36256802     0.057785971    28.448486      3464.9889    
      1210   2.42           294.95168      134388.54     -807632.4      -302.08627      0.36255076     0.056978326    28.462827      3464.6895    
      1220   2.44           294.63373      127528.87     -807638.38     -296.23761      0.36253335     0.055877858    28.43391       3464.4181    
      1230   2.46           287.1623       129520.02     -807637.36     -296.19172      0.3625158      0.055871906    28.494298      3464.0856    
      1240   2.48           299.5742       127055.49     -807640.5      -294.93569      0.36249811     0.055637691    28.53812       3463.7099    
      1250   2.5            295.99032      133587.82     -807633.16     -301.76057      0.36248028     0.056927961    28.541306      3463.3315    
      1260   2.52           293.84807      135339.97     -807629.39     -305.42101      0.3624623      0.057621371    28.517232      3462.9767    
      1270   2.54           299.1044       140741.78     -807623.91     -311.52142      0.36244418     0.058775226    28.543559      3462.5968    
      1280   2.56           287.98168      136697.36     -807625.17     -308.76171      0.36242592     0.058257482    28.530619      3462.2297    
      1290   2.58           293.7957       138452.65     -807627.96     -306.62599      0.36240751     0.05785745     28.51471       3461.8778    
      1300   2.6            301.55909      130557.61     -807634.62     -301.13908      0.36238896     0.05682503     28.550235      3461.4927    
      1310   2.62           299.34014      130500.52     -807636.75     -298.48376      0.36237027     0.056326876    28.592967      3461.0688    
      1320   2.64           285.6684       126578.04     -807639.66     -293.73494      0.36235143     0.055433608    28.607781      3460.6325    
      1330   2.66           293.24028      131054.83     -807637.67     -296.61538      0.36233245     0.055980136    28.578437      3460.224     
      1340   2.68           288.259        132023.61     -807632.53     -301.14237      0.36231333     0.056837514    28.58392       3459.8115    
      1350   2.7            302.58353      137641.66     -807627.25     -308.15088      0.36229407     0.058163388    28.554978      3459.4258    
      1360   2.72           294.23128      137821.11     -807626.6      -307.62342      0.36227466     0.058066941    28.559079      3459.0371    
      1370   2.74           295.07491      139109.64     -807626.14     -307.9533       0.36225511     0.058132347    28.534219      3458.6708    
      1380   2.76           303.39438      134271.35     -807630.57     -304.64228      0.36223542     0.057510451    28.534457      3458.3046    
      1390   2.78           289.591        132371.33     -807631.35     -301.71697      0.36221558     0.05696133     28.564993      3457.912     
      1400   2.8            296.83915      127914.18     -807638.57     -295.37553      0.3621956      0.055767203    28.573595      3457.5126    
      1410   2.82           296.80031      128436.75     -807639.28     -294.39728      0.36217548     0.055585595    28.570231      3457.1168    
      1420   2.84           290.09974      131374.92     -807634.38     -298.27852      0.36215522     0.05632157     28.562503      3456.7282    
      1430   2.86           301.19246      133368.9      -807631.16     -302.90084      0.36213481     0.057197589    28.546         3456.3541    
      1440   2.88           308.99434      137873.11     -807628.43     -306.56237      0.36211426     0.057892291    28.527857      3455.9955    
      1450   2.9            294.25098      138379.64     -807625.69     -307.10451      0.36209357     0.057997984    28.443309      3455.7079    
      1460   2.92           309.68553      139189.89     -807625.54     -309.17498      0.36207273     0.058392361    28.450052      3455.4138    
      1470   2.94           309.45973      133717.73     -807630.42     -304.19635      0.36205176     0.0574554      28.419146      3455.1446    
      1480   2.96           299.77522      132841.56     -807633.2      -299.78518      0.36203064     0.05662554     28.48978       3454.8161    
      1490   2.98           300.6698       126967.74     -807638.79     -294.25026      0.36200937     0.05558333     28.47707       3454.4977    
      1500   3              294.17573      130423.64     -807634.59     -297.27152      0.36198796     0.056157361    28.486458      3454.1713    
      1510   3.02           303.67477      129140.18     -807635.2      -9536.4418      0.36196642     0.056300937    28.362873      3453.9443    
      1520   3.04           303.03901      135500.55     -807629.96     -9694.3445      0.36194472     0.057236588    28.343458      3453.7313    
      1530   3.06           304.38728      136186.86     -807628.37     -9751.5308      0.36192289     0.057577696    28.328794      3453.5282    
      1540   3.08           310.45193      140939.14     -807623.96     -9913.167       0.36190091     0.058535628    28.188156      3453.4358    
      1550   3.1            306.18372      135918.61     -807626.45     -9814.2693      0.36187879     0.057955196    27.84475       3453.6179    
      1560   3.12           308.07452      136286.5      -807629.65     -9714.0543      0.36185653     0.057366936    27.893597      3453.7534    
      1570   3.14           293.7274       129377.62     -807634.71     -9489.923       0.36183412     0.056046785    27.961197      3453.8282    
      1580   3.16           287.43929      130659.97     -807632.81     -9518.2214      0.36181157     0.056217417    27.923522      3453.9276    
      1590   3.18           295.55086      127295.59     -807636.41     -9442.5937      0.36178888     0.055774235    27.956715      3453.995     
      1600   3.2            309.41188      131662.8      -807634.23     -9568.7405      0.36176605     0.056522909    27.910817      3454.0932    
      1610   3.22           301.2395       133123.18     -807631.23     -9630.4969      0.36174307     0.05689132     27.870061      3454.2178    
      1620   3.24           310.94348      138645.46     -807626.03     -9839.5704      0.36171995     0.058130119    27.816809      3454.3781    
      1630   3.26           318.01918      136822.28     -807626.66     -9854.1681      0.36169669     0.058220103    27.850128      3454.506     
      1640   3.28           306.84369      137550.73     -807627.6      -9771.3128      0.36167329     0.057734316    27.826918      3454.646     
      1650   3.3            302.37694      133397.82     -807631.14     -9642.7217      0.36164974     0.056978238    27.860375      3454.7543    
      1660   3.32           297.19006      131756.81     -807632.38     -9580.6501      0.36162605     0.056615169    27.878466      3454.8431    
      1670   3.34           303.14812      128890.33     -807636.46     -9478.0421      0.36160222     0.056012517    27.875741      3454.9286    
      1680   3.36           296.85801      129334.89     -807637.07     -9433.9442      0.36157824     0.055755607    27.832236      3455.0416    
      1690   3.38           296.15307      130853.76     -807633.35     -9554.0654      0.36155413     0.056469303    27.861861      3455.1268    
      1700   3.4            307.1187       134111.73     -807629.85     -9720.9287      0.36152987     0.057459404    27.885709      3455.189     
      1710   3.42           301.24828      137664.22     -807626.36     -9810.9434      0.36150546     0.057995386    27.871721      3455.2567    
      1720   3.44           294.87309      137770.19     -807626.47     -9789.0152      0.36148092     0.057869691    27.866307      3455.3234    
      1730   3.46           298.83104      137314.83     -807627.79     -9776.2842      0.36145623     0.057798377    27.861324      3455.3888    
      1740   3.48           297.81245      133757.35     -807631.52     -9671.3002      0.3614314      0.057181629    27.882478      3455.434     
      1750   3.5            288.18232      131518.61     -807634.67     -9545.5773      0.36140643     0.056442191    27.916297      3455.4501    
      1760   3.52           291.65847      127160.58     -807640.36     -9398.2107      0.36138131     0.055574687    27.946707      3455.4403    
      1770   3.54           283.59386      129910.74     -807636.53     -9498.2176      0.36135605     0.056169987    27.892011      3455.4654    
      1780   3.56           295.88045      130154.48     -807635.44     -9600.0433      0.36133065     0.056776148    27.885693      3455.4907    
      1790   3.58           284.45579      136347.64     -807629.87     -9732.3026      0.36130511     0.057562419    27.936298      3455.4761    
      1800   3.6            291.91976      135905.21     -807630.79     -9742.1967      0.36127942     0.057625035    27.892418      3455.4884    
      1810   3.62           287.02224      138255.92     -807626.97     -9842.4698      0.3612536      0.058222312    27.889278      3455.4988    
      1820   3.64           287.6343       134780.21     -807629.6      -9765.6408      0.36122763     0.05777199     27.870695      3455.518     
      1830   3.66           287.53861      133106.41     -807633.73     -9628.5299      0.36120151     0.056964982    27.89495       3455.5164    
      1840   3.68           283.65202      128682.54     -807638.53     -9457.3987      0.36117526     0.055956591    27.869665      3455.5282    
      1850   3.7            282.11543      129300.73     -807637.72     -9472.7834      0.36114886     0.056051714    27.876257      3455.5316    
      1860   3.72           279.53506      128682.32     -807636.25     -9507.0711      0.36112232     0.056258733    27.861638      3455.5409    
      1870   3.74           293.9914       132155.04     -807634.98     -9605.0447      0.36109564     0.056842699    27.91639       3455.5094    
      1880   3.76           290.77067      134070.42     -807632.34     -9670.2647      0.36106881     0.057232923    27.881919      3455.4975    
      1890   3.78           293.14467      137714.29     -807627.42     -9831.7165      0.36104184     0.058192813    27.909425      3455.4636    
      1900   3.8            286.22149      137008.58     -807626.42     -9826.864       0.36101474     0.058168459    27.89751       3455.4342    
      1910   3.82           300.79079      134870.62     -807631.51     -9720.6         0.36098748     0.057543791    27.832766      3455.4442    
      1920   3.84           287.69085      131770.47     -807634.12     -9568.7186      0.36096009     0.056648985    27.911345      3455.3987    
      1930   3.86           290.37437      129838.67     -807636.33     -9501.5152      0.36093255     0.056255418    27.904268      3455.3545    
      1940   3.88           283.53158      129526.18     -807636.12     -9468.9796      0.36090487     0.056067085    27.897592      3455.3114    
      1950   3.9            291.11727      129759.41     -807636.41     -9482.6458      0.36087705     0.056152333    27.890457      3455.2697    
      1960   3.92           301.0724       131771.71     -807634.26     -9587.6909      0.36084909     0.056778766    27.932308      3455.1979    
      1970   3.94           297.95062      135829.05     -807628.92     -9735.005       0.36082098     0.057655658    27.906237      3455.1399    
      1980   3.96           299.91132      137918.22     -807626.08     -9825.9641      0.36079273     0.058198921    27.875438      3455.0984    
      1990   3.98           294.33718      137074.05     -807627.08     -9761.2652      0.36076434     0.057820261    27.882494      3455.0492    
      2000   4              299.91206      134707.2      -807630.17     -9678.3021      0.36073581     0.057333368    27.880491      3454.9982    
      2010   4.02           300.21799      131735.5      -807632.84     -299.61948      0.36070713     0.056801897    27.959717      3454.8946    
      2020   4.04           297.48291      129924.23     -807635.35     -296.5113       0.36067831     0.056217139    28.021281      3454.7504    
      2030   4.06           290.17938      128444.11     -807635.89     -294.71895      0.36064935     0.055881804    27.978637      3454.6303    
      2040   4.08           306.22976      129918.09     -807637.1      -295.55313      0.36062025     0.056044497    28.0194        3454.4829    
      2050   4.1            298.95828      133043.05     -807631.19     -300.30772      0.36059101     0.056950708    28.02139       3454.3323    
      2060   4.12           306.55057      135399.08     -807628.11     -304.28472      0.36056162     0.057709613    28.020338      3454.1803    
      2070   4.14           303.7681       136343.04     -807627.28     -304.614        0.36053209     0.057776794    28.034009      3454.0181    
      2080   4.16           302.14902      138040.91     -807626.83     -304.63906      0.36050242     0.057786303    27.959433      3453.8988    
      2090   4.18           307.87012      134459.75     -807629.34     -302.87597      0.36047261     0.057456619    27.963567      3453.7748    
      2100   4.2            308.42581      133222.12     -807631.84     -300.2084       0.36044265     0.056955305    27.958652      3453.6515    
      2110   4.22           305.24658      129607.56     -807636.87     -294.70918      0.36041256     0.055916666    28.008005      3453.4967    
      2120   4.24           303.41059      129367.84     -807636.64     -294.4968       0.36038232     0.055881058    28.018287      3453.3339    
      2130   4.26           308.59338      129079.34     -807635.53     -296.29007      0.36035193     0.056226074    27.995864      3453.1825    
      2140   4.28           300.88446      133018.91     -807630.38     -300.35112      0.36032141     0.057001555    27.961661      3453.0491    
      2150   4.3            312.12414      134774.91     -807630.05     -302.26252      0.36029075     0.057369189    27.968581      3452.9096    
      2160   4.32           293.16018      139096.38     -807624.37     -305.21053      0.36025994     0.057933673    27.898456      3452.8088    
      2170   4.34           306.65028      136454.65     -807626.34     -305.14425      0.36022899     0.057926068    27.892054      3452.7093    
      2180   4.36           301.19544      135604.68     -807627.63     -303.04352      0.36019789     0.057532249    27.917538      3452.5928    
      2190   4.38           306.62619      130917.15     -807634.2      -297.25264      0.36016666     0.056437756    27.91713       3452.4743    
      2200   4.4            306.37637      129948.32     -807636.09     -295.2308       0.36013528     0.056058763    28.01457       3452.2982    
      2210   4.42           298.18176      128453.28     -807635.82     -294.4435       0.36010377     0.055914163    28.05618       3452.0971    
      2220   4.44           307.93451      131300.5      -807635.03     -296.60351      0.36007211     0.056329296    27.966369      3451.945     
      2230   4.46           303.02957      132605.6      -807632.1      -299.00959      0.3600403      0.056791261    27.925499      3451.8139    
      2240   4.48           310.79252      135977.96     -807629.32     -302.87563      0.36000836     0.057530647    27.850144      3451.7232    
      2250   4.5            304.41556      136653        -807626.85     -304.64295      0.35997627     0.057871505    27.87248       3451.6175    
      2260   4.52           308.0634       136816.2      -807627.45     -304.62506      0.35994404     0.057873287    28.011967      3451.4324    
      2270   4.54           297.17724      133880.9      -807630.13     -300.57583      0.35991167     0.057109142    28.019137      3451.2418    
      2280   4.56           306.8133       131412.26     -807634.87     -297.28458      0.35987916     0.05648891     27.986086      3451.0678    
      2290   4.58           295.47891      129435.48     -807635.73     -295.10659      0.35984651     0.056080146    28.04954       3450.8577    
      2300   4.6            292.50574      130379.87     -807634.72     -295.87885      0.35981371     0.056232026    28.004894      3450.6705    
      2310   4.62           293.90691      130879.53     -807634.72     -296.25624      0.35978077     0.056308903    27.994934      3450.4872    
      2320   4.64           305.04086      133317.51     -807633.05     -299.67329      0.35974769     0.056963615    27.986824      3450.3068    
      2330   4.66           295.91445      135018.74     -807628.7      -302.98302      0.35971447     0.057598065    27.985008      3450.1258    
      2340   4.68           300.08654      136528.18     -807628.34     -304.07399      0.35968111     0.057810825    27.968193      3449.9522    
      2350   4.7            296.48012      135048.8      -807630.15     -301.9522       0.3596476      0.057412775    28.009326      3449.7553    
      2360   4.72           293.55057      132896.34     -807632.42     -299.43814      0.35961396     0.056940083    27.985205      3449.5698    
      2370   4.74           291.45819      131395.93     -807634.28     -297.46893      0.35958017     0.05657094     28.000167      3449.3749    
      2380   4.76           294.59629      129460.63     -807636.69     -295.6097       0.35954624     0.056222668    27.98579       3449.1862    
      2390   4.78           290.66942      130601.03     -807636.73     -295.07169      0.35951216     0.056125662    27.960804      3449.0091    
      2400   4.8            285.29787      130795.74     -807634.69     -296.48533      0.35947795     0.056399918    27.952621      3448.8348    
      2410   4.82           297.73054      133838.73     -807631.72     -301.20554      0.35944359     0.057303312    27.973931      3448.6479    
      2420   4.84           290.25645      135380.74     -807629.49     -302.4828       0.35940909     0.05755183     27.968357      3448.4625    
      2430   4.86           302.18208      136232.82     -807630.29     -303.27246      0.35937446     0.057707636    27.973827      3448.2729    
      2440   4.88           284.42854      134578.11     -807629.98     -301.15731      0.35933967     0.057310707    27.993423      3448.0719    
      2450   4.9            296.05825      132674.94     -807633.38     -299.30258      0.35930475     0.056963284    27.984259      3447.8742    
      2460   4.92           298.97609      129758.54     -807636.46     -296.54264      0.35926969     0.056443521    27.952485      3447.6914    
      2470   4.94           283.10297      129839.91     -807635.77     -294.92631      0.35923448     0.056141372    27.958238      3447.5042    
      2480   4.96           290.74615      129585.84     -807636.75     -294.9182       0.35919913     0.056145353    27.954007      3447.3178    
      2490   4.98           292.71041      131988.12     -807633.99     -297.80793      0.35916364     0.05670109     27.95886       3447.1276    
      2500   5              291.07967      133408.44     -807630.96     -300.52162      0.35912801     0.05722344     27.943636      3446.9437    
[...]
     98740   197.48         299.11105      133726.08     -807632.52     -9653.329       0.36236891     0.05692771     30.188158      43.860519    
     98750   197.5          295.90139      133504.78     -807632.27     -9651.7251      0.36238762     0.056915314    30.200141      43.512205    
     98760   197.52         291.11806      135797.61     -807627.73     -9775.8974      0.36240618     0.057644594    30.248285      43.163888    
     98770   197.54         298.16131      134071.83     -807630.94     -9706.2853      0.36242459     0.057231211    30.238409      42.815575    
     98780   197.56         303.02023      133255.01     -807632.89     -9663.7888      0.36244287     0.056977766    30.250828      42.467265    
     98790   197.58         301.84751      132436.47     -807632.76     -9663.3927      0.362461       0.05697258     30.244879      42.118958    
     98800   197.6          300.80634      132552.63     -807631.67     -9694.9152      0.36247899     0.057155591    30.250662      41.770655    
     98810   197.62         302.36223      132992.46     -807632.63     -9671.6387      0.36249683     0.057015559    30.270987      41.422353    
     98820   197.64         284.99312      132798.96     -807631.61     -9629.0739      0.36251453     0.056761862    30.31641       41.074048    
     98830   197.66         301.21523      133888.83     -807631.92     -9689.9484      0.36253209     0.057117941    30.234361      40.725758    
     98840   197.68         296.43236      133870.31     -807630.36     -9722.0972      0.36254951     0.057304691    30.193098      40.377476    
     98850   197.7          295.11771      134911.37     -807629.45     -9743.4512      0.36256678     0.057427822    30.236908      40.029192    
     98860   197.72         304.31117      132622.97     -807633.57     -9652.945       0.36258391     0.056891691    30.276972      39.680907    
     98870   197.74         294.81522      134391.22     -807631.4      -9678.7927      0.3626009      0.057041357    30.322272      39.33262     
     98880   197.76         303.10912      132444.73     -807632.07     -9695.7247      0.36261774     0.05713849     30.313535      38.984338    
     98890   197.78         297.89194      133142.71     -807631.56     -9686.5286      0.36263445     0.057081668    30.31738       38.636059    
     98900   197.8          296.27196      132766.76     -807633.33     -9620.2493      0.362651       0.056688502    30.26542       38.28779     
     98910   197.82         295.89343      134042.57     -807631.1      -9689.7556      0.36266742     0.057095492    30.253717      37.939526    
     98920   197.84         294.6293       133763.29     -807629.42     -9736.4036      0.36268369     0.057367785    30.215602      37.59127     
     98930   197.86         303.95029      134776.43     -807630.5      -9741.3751      0.36269982     0.057394525    30.213237      37.243018    
     98940   197.88         288.00207      134466.46     -807630.33     -9673.2613      0.36271581     0.056990698    30.235848      36.894766    
     98950   197.9          307.09124      134003.47     -807631.32     -9724.8556      0.36273165     0.057292167    30.233033      36.546519    
     98960   197.92         306.44083      133408.26     -807631.06     -9728.5994      0.36274735     0.057311743    30.238875      36.198274    
     98970   197.94         304.21678      134258.8      -807631.61     -9698.0937      0.36276291     0.057129582    30.231762      35.850034    
     98980   197.96         299.25133      132389.55     -807632.9      -9631.439       0.36277832     0.056734521    30.257822      35.501795    
     98990   197.98         305.61615      133483.43     -807632.56     -9666.9595      0.36279359     0.05694136     30.187948      35.153566    
     99000   198            295.54425      132895.38     -807630.03     -9701.6452      0.36280872     0.057143286    30.147732      34.805346    
     99010   198.02         306.2215       134400.82     -807631.23     -303.27445      0.3628237      0.057159403    30.218478      34.457121    
     99020   198.04         304.27756      133651.17     -807631.94     -302.21849      0.36283855     0.056958052    30.287559      34.108893    
     99030   198.06         296.43024      135542.54     -807628.58     -304.32834      0.36285324     0.057353364    30.276088      33.760669    
     99040   198.08         302.47177      133863.29     -807629.46     -304.16715      0.3628678      0.057320689    30.305438      33.412445    
     99050   198.1          313.96578      134203.81     -807631.09     -303.94456      0.36288221     0.057276467    30.340295      33.064222    
     99060   198.12         307.63356      133448.63     -807632.03     -302.01381      0.36289648     0.05691039     30.304662      32.716006    
     99070   198.14         293.7665       135198.79     -807629.54     -302.44036      0.36291061     0.05698855     30.295678      32.367795    
     99080   198.16         293.33701      134294.93     -807629.15     -302.67184      0.36292459     0.057029969    30.262139      32.019591    
     99090   198.18         304.49222      134053.58     -807630.52     -302.67646      0.36293843     0.057028666    30.240497      31.671392    
     99100   198.2          311.19021      132985.41     -807632.24     -301.70633      0.36295213     0.056843733    30.209597      31.323201    
     99110   198.22         305.94241      134243.16     -807630.07     -302.99237      0.36296568     0.057083901    30.256351      30.975008    
     99120   198.24         309.25627      133985.19     -807629        -304.35839      0.36297909     0.057339141    30.30175       30.626814    
     99130   198.26         315.46163      134391.51     -807630.24     -303.80854      0.36299236     0.057233462    30.350328      30.278619    
     99140   198.28         316.48488      133798.96     -807631.05     -303.03161      0.36300548     0.057085035    30.364301      29.930427    
     99150   198.3          310.61908      133884.07     -807629.86     -303.26985      0.36301846     0.057127871    30.34225       29.58224     
     99160   198.32         303.97425      134230.17     -807628.63     -303.53264      0.3630313      0.057175352    30.265587      29.234065    
     99170   198.34         313.48278      133389.65     -807631.34     -302.0933       0.36304399     0.05690224     30.322073      28.885888    
     99180   198.36         304.63729      133614.72     -807630.73     -301.40986      0.36305655     0.056771544    30.320083      28.537714    
     99190   198.38         315.3855       133207.51     -807631.06     -302.53127      0.36306895     0.056980817    30.326382      28.189544    
     99200   198.4          317.36307      133719.39     -807630.47     -303.38048      0.36308122     0.057138833    30.341632      27.841376    
     99210   198.42         311.98728      135059.33     -807629        -304.12959      0.36309334     0.057278008    30.302039      27.493216    
     99220   198.44         310.46527      135275.24     -807629.27     -303.73303      0.36310532     0.057201436    30.331464      27.145056    
     99230   198.46         309.19725      135314.24     -807628.77     -304.18014      0.36311715     0.057283772    30.31953       26.796902    
     99240   198.48         307.65542      134302.82     -807628.68     -304.23119      0.36312885     0.05729154     30.298537      26.448752    
     99250   198.5          298.20847      134456.83     -807628.6      -303.22286      0.3631404      0.057099841    30.306971      26.100606    
     99260   198.52         298.20546      132992.39     -807630.36     -301.69697      0.3631518      0.056810716    30.299416      25.752464    
     99270   198.54         313.92212      132941.14     -807632.1      -302.43507      0.36316306     0.056947937    30.293486      25.404326    
     99280   198.56         303.79576      134374.51     -807630.41     -303.09261      0.36317418     0.057070003    30.303745      25.056191    
     99290   198.58         308.61166      134370.45     -807630.54     -304.0399       0.36318516     0.057246641    30.350244      24.708056    
     99300   198.6          303.03021      134642.97     -807630.58     -303.54428      0.36319599     0.057151617    30.307022      24.359928    
     99310   198.62         309.03919      133933.52     -807631.62     -303.7307       0.36320668     0.057185033    30.268773      24.011807    
     99320   198.64         296.50626      134991.85     -807629.7      -304.27762      0.36321723     0.057286343    30.303661      23.663686    
     99330   198.66         291.78912      132817.36     -807630.92     -302.71202      0.36322763     0.056989954    30.308126      23.315569    
     99340   198.68         299.19839      132527.2      -807632.74     -302.09902      0.36323789     0.056872942    30.280045      22.967458    
     99350   198.7          298.58311      131170.38     -807633.79     -301.20526      0.36324801     0.056703103    30.280724      22.61935     
     99360   198.72         303.77548      134003.69     -807632.1      -303.69541      0.36325798     0.057170314    30.286559      22.271245    
     99370   198.74         303.02026      131633.35     -807633.41     -302.48063      0.36326781     0.056940093    30.317925      21.923142    
     99380   198.76         307.42195      134900.23     -807631.29     -305.24574      0.3632775      0.057459074    30.314453      21.575042    
     99390   198.78         287.83794      133117.02     -807630.59     -303.40712      0.36328704     0.057111475    30.29798       21.226948    
     99400   198.8          303.09706      135283.1      -807630.54     -305.51306      0.36329644     0.057506397    30.314145      20.878856    
     99410   198.82         298.43274      131898.67     -807632.68     -302.92369      0.3633057      0.057017549    30.375484      20.530763    
     99420   198.84         298.29932      134072.84     -807631.15     -304.4092       0.36331481     0.057295722    30.347208      20.182677    
     99430   198.86         293.28525      131465.97     -807633.21     -301.73846      0.36332378     0.056791633    30.311725      19.834596    
     99440   198.88         298.50935      134289.57     -807632.16     -303.47642      0.36333261     0.057117356    30.319999      19.486518    
     99450   198.9          293.51815      131957.78     -807632.1      -303.0148       0.36334129     0.057029111    30.332511      19.138444    
     99460   198.92         290.98818      134916.72     -807630.42     -304.19183      0.36334983     0.057249288    30.34771       18.790372    
     99470   198.94         303.04805      132986.32     -807632.97     -303.41256      0.36335823     0.057101311    30.360406      18.442303    
     99480   198.96         284.8583       134613.7      -807629.09     -304.67353      0.36336648     0.057337318    30.321431      18.09424     
     99490   198.98         298.31821      133865.31     -807632.34     -303.28414      0.3633746      0.057074571    30.326562      17.74618     
     99500   199            299.74001      133623.12     -807632.71     -303.07633      0.36338256     0.057034214    30.348739      17.398123    
     99510   199.02         297.28693      132991.7      -807631.75     -9715.8579      0.36339039     0.057135398    30.293287      17.050073    
     99520   199.04         293.16699      132889.59     -807632.02     -9686.7059      0.36339807     0.056962762    30.242631      16.702029    
     99530   199.06         295.31923      133602.51     -807631.77     -9701.4251      0.3634056      0.057048135    30.213587      16.353989    
     99540   199.08         303.05588      132848.83     -807632.93     -9697.0145      0.363413       0.057021039    30.244355      16.005952    
     99550   199.1          299.97684      133529.18     -807631.08     -9736.6388      0.36342025     0.057252898    30.246732      15.657918    
     99560   199.12         294.95826      133684.06     -807630.95     -9714.1661      0.36342736     0.057119639    30.264102      15.309887    
     99570   199.14         306.13069      134608.71     -807632.6      -9706.2439      0.36343432     0.057071962    30.289148      14.961858    
     99580   199.16         297.07287      133528.57     -807630.3      -9736.6308      0.36344114     0.05724956     30.289955      14.613833    
     99590   199.18         302.81884      134859.99     -807631.28     -9727.1529      0.36344782     0.057192781    30.282562      14.265812    
     99600   199.2          304.70724      133586.26     -807632.31     -9696.1683      0.36345435     0.057009576    30.244985      13.917795    
     99610   199.22         293.48095      134378.82     -807630.08     -9710.3087      0.36346074     0.057091712    30.231107      13.569783    
     99620   199.24         300.66886      132945.1      -807631.47     -9692.7187      0.36346699     0.056987312    30.287413      13.221772    
     99630   199.26         313.11728      133460.5      -807632.28     -9715.1861      0.3634731      0.057118447    30.275232      12.873766    
     99640   199.28         305.36529      132702.29     -807631.7      -9694.6183      0.36347906     0.056996588    30.272019      12.525762    
     99650   199.3          308.6679       134243.54     -807631.08     -9722.5796      0.36348487     0.057160064    30.240901      12.177764    
     99660   199.32         305.0429       134498.34     -807630.74     -9710.6447      0.36349055     0.057089006    30.280553      11.829767    
     99670   199.34         307.81918      134769.18     -807629.82     -9748.9511      0.36349608     0.057313338    30.283089      11.481774    
     99680   199.36         304.53345      134098.76     -807630.37     -9711.2095      0.36350147     0.057090612    30.27641       11.133785    
     99690   199.38         305.11431      134350.27     -807630.22     -9712.6541      0.36350671     0.05709828     30.227111      10.785801    
     99700   199.4          303.18343      133141.54     -807630.28     -9697.0272      0.36351181     0.057005614    30.243194      10.43782     
     99710   199.42         315.98416      133765.05     -807631.78     -9701.2025      0.36351677     0.057029381    30.210497      10.089844    
     99720   199.44         313.32913      132950.12     -807631.71     -9689.1631      0.36352158     0.056957853    30.209286      9.7418705    
     99730   199.46         322.51014      134440.04     -807632.45     -9701.2819      0.36352625     0.05702836     30.265479      9.3938992    
     99740   199.48         302.76493      134343.54     -807629.33     -9712.3424      0.36353078     0.057092668    30.275828      9.045931     
     99750   199.5          302.35352      134656.42     -807628.41     -9738.631       0.36353516     0.057246511    30.252773      8.6979671    
     99760   199.52         302.54625      134116.41     -807629.34     -9709.7614      0.3635394      0.057076142    30.22722       8.3500073    
     99770   199.54         307.07099      134130.11     -807629.72     -9716.7229      0.3635435      0.057116419    30.242198      8.0020505    
     99780   199.56         309.17546      134138.99     -807629.3      -9740.0514      0.36354745     0.057252925    30.260516      7.6540968    
     99790   199.58         304.62922      134934.06     -807629.22     -9724.2147      0.36355126     0.057159237    30.242377      7.306147     
     99800   199.6          309.68931      134318.53     -807631.05     -9691.07        0.36355493     0.056963837    30.213793      6.9582013    
     99810   199.62         306.86054      133791.94     -807630.15     -9712.2332      0.36355845     0.05708768     30.228732      6.6102587    
     99820   199.64         309.68802      134141.46     -807629.98     -9737.5434      0.36356183     0.057235919    30.256379      6.262319     
     99830   199.66         305.05111      134109.12     -807630.23     -9716.8616      0.36356507     0.057113846    30.313658      5.9143817    
     99840   199.68         298.7447       134736.8      -807629.81     -9712.2131      0.36356816     0.057086037    30.261744      5.5664489    
     99850   199.7          304.84864      133445.42     -807630.98     -9717.4135      0.36357111     0.057116141    30.291623      5.2185191    
     99860   199.72         308.51339      134326.51     -807630.77     -9754.5166      0.36357392     0.057333779    30.289374      4.870593     
     99870   199.74         298.71455      133654.87     -807630.94     -9718.266       0.36357658     0.057120292    30.258374      4.5226708    
     99880   199.76         301.81009      133423.22     -807632.75     -9686.5295      0.3635791      0.056933362    30.246408      4.1747523    
     99890   199.78         296.11893      133057.15     -807632.22     -9689.8201      0.36358148     0.05695233     30.221714      3.8268375    
     99900   199.8          288.87167      134551.2      -807630.02     -9736.6446      0.36358371     0.057227192    30.250881      3.4789259    
     99910   199.82         291.66266      132982.2      -807631.34     -9714.2965      0.3635858      0.057095513    30.236859      3.1310178    
     99920   199.84         291.60955      134396.32     -807631.12     -9726.1308      0.36358775     0.057164763    30.229875      2.7831133    
     99930   199.86         286.65847      133092.12     -807630.66     -9725.1854      0.36358955     0.057158923    30.242715      2.435212     
     99940   199.88         301.29325      135063.89     -807630.92     -9783.6764      0.36359121     0.057502436    30.272582      2.0873141    
     99950   199.9          292.42737      133492.76     -807631.22     -9739.3144      0.36359273     0.057241465    30.208126      1.73942      
     99960   199.92         302.41648      133151.13     -807633.77     -9702.3551      0.3635941      0.057024026    30.20157       1.3915293    
     99970   199.94         291.77015      132840.24     -807632.9      -9686.2534      0.36359533     0.056929199    30.208745      1.0436419    
     99980   199.96         286.29552      134281.47     -807630.51     -9738.0921      0.36359641     0.0572337      30.244925      0.6957578    
     99990   199.98         292.79946      132597.08     -807633.15     -9685.1154      0.36359736     0.056922193    30.2308        0.34787719   
    100000   200            286.51954      133735.36     -807631.93     -9693.931       0.36359816     0.056973879    30.193857      0            
Loop time of 3478.76 on 32 procs for 100000 steps with 1080 atoms

Performance: 4.967 ns/day, 4.832 hours/ns, 28.746 timesteps/s, 31.046 katom-step/s
61.9% CPU use with 32 MPI tasks x 1 OpenMP threads

MPI task timing breakdown:
Section |  min time  |  avg time  |  max time  |%varavg| %total
---------------------------------------------------------------
Pair    | 2516.5     | 2807.2     | 3070.3     | 253.0 | 80.70
Neigh   | 0.0016536  | 0.0017764  | 0.0019329  |   0.2 |  0.00
Comm    | 329.33     | 592.51     | 883.21     | 550.6 | 17.03
Output  | 2.4544     | 2.5238     | 2.5394     |   0.8 |  0.07
Modify  | 65.509     | 65.945     | 71.322     |  12.0 |  1.90
Other   |            | 10.57      |            |       |  0.30

Nlocal:          33.75 ave          40 max          18 min
Histogram: 1 0 0 1 2 5 3 8 3 9
Nghost:        1046.03 ave        1063 max        1032 min
Histogram: 2 3 6 3 6 4 1 5 1 1
Neighs:              0 ave           0 max           0 min
Histogram: 32 0 0 0 0 0 0 0 0 0
FullNghs:      5320.62 ave        6361 max        2826 min
Histogram: 1 0 0 2 2 4 4 9 2 8

Total # of neighbors = 170260
Ave neighs/atom = 157.64815
Neighbor list builds = 4
Dangerous builds = 0

Total wall time: 1:01:28
