
units		metal
atom_style	atomic

read_data ${STRUCTURE}.data
read_data BaTiO3-sc333.data
Reading data file ...
  orthogonal box = (0 0 0) to (11.898253 11.898253 12.912076)
  2 by 4 by 4 MPI processor grid
  reading atoms ...
  135 atoms
  read_data CPU = 0.005 seconds
replicate $L $L $L
replicate 2 $L $L
replicate 2 2 $L
replicate 2 2 2
Replication is creating a 2x2x2 = 8 times larger system...
  orthogonal box = (0 0 0) to (23.796507 23.796507 25.824152)
  2 by 4 by 4 MPI processor grid
  1080 atoms
  replicate CPU = 0.004 seconds

pair_style allegro
pair_coeff	* * ${MODEL}.pth Ba Ti O
pair_coeff	* * BaTiO3-E0.pth Ba Ti O
mass 1 137.3
mass 2 47.9
mass 3 15.9994

timestep 0.002
compute polarization all allegro polarization 3
compute allegro will evaluate the quantity polarization of length 3 (src/compute_allegro.cpp:53)
compute polarizability all allegro polarizability 9
compute allegro will evaluate the quantity polarizability of length 9 (src/compute_allegro.cpp:53)

thermo_style custom pe fmax fnorm spcpu cpuremain

variable efield equal 1e-2*36.36
fix born all addbornforce 0.0 0.0 ${efield}
fix born all addbornforce 0.0 0.0 0.3636

thermo 10
min_style fire
#minimize 0.0 1e-6 100 100
velocity all create ${TEMP} ${SEED} dist gaussian rot yes mom yes
velocity all create 350 ${SEED} dist gaussian rot yes mom yes
velocity all create 350 31867 dist gaussian rot yes mom yes
fix nvt all nvt temp ${TEMP} ${TEMP} $(100*dt)
fix nvt all nvt temp 350 ${TEMP} $(100*dt)
fix nvt all nvt temp 350 350 $(100*dt)
fix nvt all nvt temp 350 350 0.2000000000000000111
run 5000
Neighbor list info ...
  update: every = 1 steps, delay = 0 steps, check = yes
  max neighbors/atom: 2000, page size: 100000
  master list distance cutoff = 8
  ghost atom cutoff = 8
  binsize = 8, bins = 3 3 4
  1 neighbor lists, perpetual/occasional/extra = 1 0 0
  (1) pair allegro/kk, perpetual
      attributes: full, newton on, kokkos_device
      pair build: full/bin/kk/device
      stencil: full/bin/3d
      bin: kk/device
Per MPI rank memory allocation (min/avg/max) = 3.516 | 3.516 | 3.516 Mbytes
    PotEng          Fmax          Fnorm          S/CPU         CPULeft    
-807708.29      1.5956152      37.041588      0              0            
-807643.99      3.5834026      45.50575       2.1337536      2338.6027    
-807632.32      2.531573       36.121126      25.894257      1263.1184    
-807602.8       3.4211097      38.780878      25.923126      904.2949     
-807599.57      4.2929773      51.29595       25.827198      724.86795    
-807567.04      4.0043484      42.165831      25.771535      617.1397     
-807600.67      3.0418967      40.13384       25.900126      545.0329     
-807645.64      4.2268117      35.880868      25.847694      493.47289    
-807680.02      2.945431       36.000582      25.786252      454.76286    
-807666.36      3.9202241      36.100121      25.788445      424.56708    
-807647.3       4.3096039      37.795677      25.88495       400.26206    
-807656.71      2.5796483      29.475843      25.897235      380.29775    
-807622.41      4.2770345      34.052032      25.921568      363.58173    
-807581.78      3.8413325      42.462218      25.890642      349.39531    
-807563.54      4.6238897      41.303703      25.937318      337.15622    
-807631.02      3.6295853      35.535834      25.908412      326.5115     
-807650.62      3.9975685      34.70691       25.892477      317.15633    
-807661.69      3.2108833      36.458322      25.886766      308.85874    
-807641.16      4.756716       48.024517      25.901765      301.43419    
-807676.23      3.0140135      37.719458      25.877633      294.75965    
-807639.84      4.3670568      41.003654      25.855871      288.72173    
-807611.88      3.352938       40.405882      25.910057      283.20357    
-807555.88      4.4712598      47.437304      25.9299        278.14554    
-807600.79      4.4508244      50.022812      25.859448      273.51561    
-807612.87      4.3196777      39.592382      25.809362      269.25416    
-807638.48      3.171251       36.664087      25.919888      265.27124    
-807641.62      5.0058711      45.726446      25.92337       261.56408    
-807679.49      3.044614       38.349285      25.854078      258.12105    
-807661.95      3.7438374      36.128478      25.783893      254.91408    
-807633.89      3.0424608      33.825903      25.868914      251.88083    
-807604         3.5114288      35.526399      25.914024      249.01348    
-807597.81      3.546545       42.239489      25.871344      246.31585    
-807595.13      3.6864061      39.159409      25.822852      243.77329    
-807604.31      4.0110079      35.814564      25.900397      241.34494    
-807640.71      3.6865239      31.984084      25.927909      239.03112    
-807667.78      3.8575367      35.24216       25.911946      236.83063    
-807675.71      2.7405754      35.276523      25.837553      234.74526    
-807639.84      4.5390078      42.540975      25.89214       232.74149    
-807644.26      3.1108812      33.578872      25.950376      230.81232    
-807616.2       4.7149072      38.243256      25.900397      228.97111    
-807597.95      4.5796465      45.923698      25.91121       227.20079    
-807565.06      4.4676396      44.85851       25.916918      225.49706    
-807620.23      3.3901384      37.762966      25.927045      223.85444    
-807645.06      4.1489642      38.328182      25.916979      222.27188    
-807669.88      3.1443666      36.720507      25.878653      220.74963    
-807641.62      4.5991744      46.625528      25.908477      219.27337    
-807663.02      2.9549612      36.356359      25.916332      217.84335    
-807645.4       4.1145742      36.91295       25.929285      216.45592    
-807619.42      3.5938834      38.896204      25.927055      215.11053    
-807565.08      3.6603979      43.978145      25.939417      213.80262    
-807593.08      3.8721952      44.188149      25.933841      212.53235    
-807624.11      3.7831437      35.823529      25.900186      211.3012     
-807651.08      3.2660387      33.626127      25.888746      210.10401    
-807642.63      4.853374       40.67501       25.920024      208.93349    
-807666.98      2.7191205      35.742977      25.918194      207.79226    
-807664.88      2.9545037      34.80832       25.830622      206.68908    
-807638.68      4.155715       33.957241      25.864759      205.60742    
-807598.38      3.4889378      37.950986      25.88927       204.54731    
-807588         4.4027376      40.391474      25.929637      203.50584    
-807600.7       3.9763894      43.645111      25.88831       202.49122    
-807616.36      3.9344925      36.125872      25.925308      201.49349    
-807633.75      3.8602699      36.009051      25.935767      200.51471    
-807657.24      3.6793549      37.488869      25.904914      199.55831    
-807671.66      3.4162691      38.488073      25.795395      198.63139    
-807645.01      4.6876165      40.4957        25.822167      197.71858    
-807628.66      3.1351801      35.979364      25.900289      196.81412    
-807608.24      3.6101322      38.395336      25.940982      195.92139    
-807599.63      4.439876       46.555863      25.824757      195.05501    
-807578.12      3.8640111      42.262656      25.829811      194.20224    
-807610.47      2.8368885      38.274634      25.907605      193.35571    
-807639.76      4.4043806      38.478577      25.907295      192.52237    
-807669.19      2.9127037      37.425871      25.859336      191.70595    
-807650.27      4.6818246      41.597251      25.884108      190.89927    
-807645.52      3.7184887      37.862712      25.901259      190.10261    
-807640.09      4.0396735      35.978462      25.890773      189.31794    
-807619.84      4.1754536      39.438206      25.900449      188.54308    
-807576.46      4.0067274      42.454799      25.878788      187.78026    
-807580.42      3.8691537      42.6356        25.928844      187.02311    
-807624.39      3.1785462      34.65979       25.861022      186.28097    
-807652.23      2.9503318      35.056211      25.85793       185.54806    
-807651.49      3.2954364      37.331965      25.913799      184.81944    
-807650.51      3.8982958      38.909356      25.670605      184.11818    
-807661.07      2.9987649      34.936779      25.845934      183.41106    
-807639.99      3.1914035      34.305927      25.854793      182.71099    
-807603.05      2.9837447      37.484418      25.913827      182.01402    
-807576.44      5.1719023      41.887179      25.921873      181.32378    
-807599.89      3.7847706      42.884722      25.854242      180.64548    
-807622.84      3.5779444      36.973341      25.853719      179.97391    
-807636.8       4.0134062      36.980287      25.866549      179.30792    
-807646.03      4.9283644      40.478754      25.912734      178.64503    
-807666.89      3.1373549      38.181416      25.871054      177.99113    
-807649.87      3.7609102      38.268716      25.810991      177.34714    
-807627.14      3.2389652      35.939742      25.853915      176.70588    
-807600.53      4.0877868      38.188365      25.908374      176.06653    
-807598.62      4.5948913      43.742171      25.874986      175.43473    
-807592.35      4.0516247      40.914932      25.83436       174.81068    
-807613.94      3.1772541      36.246507      25.890445      174.18804    
-807636.38      4.1064017      36.680211      25.931168      173.56775    
-807663.19      2.9721661      36.890057      25.889925      172.95477    
-807658.21      3.3198515      37.456441      25.823373      172.35041    
-807643.21      6.6360022      36.755956      25.849219      171.74883    
-807630.4       3.495777       35.082191      25.905322      171.14821    
-807617.29      5.4824214      37.366736      25.917894      170.55105    
-807590.79      3.4706448      40.615012      25.820486      169.96361    
-807584.12      3.5687154      41.110579      25.906686      169.37512    
-807619.31      3.1485875      35.60288       25.928905      168.78923    
-807650.84      3.0468014      34.786975      25.885816      168.20951    
-807658.93      4.6996855      35.545961      25.852841      167.63522    
-807644.87      4.3715172      39.467314      25.892435      167.06225    
-807652.89      3.6276263      34.754988      25.885212      166.49309    
-807637.2       3.9558716      34.895256      25.927393      165.92503    
-807610.74      3.4751288      37.461298      25.866203      165.36345    
-807577.19      3.9168772      41.400021      25.888437      164.80385    
-807602.17      3.186379       39.00925       25.868311      164.24834    
-807628.05      3.2386285      35.229675      25.852958      163.69658    
-807646.7       3.9106063      34.671755      25.883771      163.14614    
-807642.98      4.8181439      40.043942      25.887931      162.59833    
-807660.3       2.8234403      36.162555      25.806925      162.05724    
-807651.38      4.1947712      37.285628      25.84467       161.51693    
-807630.69      3.2839485      35.152566      25.858813      160.97852    
-807595.72      4.5759255      39.279651      25.873013      160.44196    
-807597.56      3.2736593      40.500488      25.880154      159.90755    
-807604.19      3.8806111      39.060116      25.837572      159.37754    
-807624.08      2.9196339      34.20138       25.913944      158.84636    
-807635.76      3.7032421      35.890203      25.86219       158.31986    
-807657.71      2.8434263      35.050236      25.914061      157.79328    
-807658.81      2.5568472      36.042215      25.818112      157.27319    
-807643.13      4.1221374      35.535802      25.841554      156.75416    
-807622.98      3.6538484      35.136865      25.888661      156.23514    
-807609.05      3.3678255      38.534065      25.882545      155.71845    
-807596.37      3.3379094      41.55731       25.861639      155.20465    
-807594.41      4.1637556      39.870448      25.876529      154.69216    
-807618.73      3.8867834      36.662468      25.796133      154.18494    
-807643.64      3.8952037      36.820012      25.847003      153.67742    
-807657.07      3.1607527      36.23924       25.742205      153.17599    
-807647.67      4.4482345      38.52064       25.72458       152.67696    
-807641.11      3.6477496      36.007541      25.849677      152.17452    
-807631.3       4.186755       35.794296      25.880804      151.67253    
-807609.27      3.8178084      37.981976      25.8776        151.17234    
-807584.41      4.5117929      41.423137      25.857141      150.67458    
-807597.05      3.4258842      39.839926      25.937726      150.17532    
-807627.34      5.5588133      36.601902      25.857169      149.68073    
-807646.25      3.6330319      36.498015      25.867292      149.18728    
-807646.42      6.2343838      38.452534      25.875688      148.69501    
-807647.48      3.8929467      38.0484        25.883546      148.20391    
-807647.46      4.2726276      35.996509      25.803014      147.71722    
-807628.36      4.26659        35.86689       25.850395      147.23016    
-807596.85      4.3555396      39.901972      25.895488      146.74285    
-807589.82      3.7993795      40.233112      25.841638      146.25882    
-807608.12      4.1412578      38.848932      25.790632      145.77789    
-807628.15      3.4350963      36.29236       25.830743      145.2968     
-807638.29      3.689688       36.301948      25.884683      144.81509    
-807648.17      3.8801528      37.02596       25.808827      144.33723    
-807654.43      4.114225       37.368205      25.814006      143.86039    
-807641.98      3.302774       36.245559      25.809148      143.38486    
-807619.03      3.1453749      36.137916      25.846564      142.90923    
-807600.65      3.636763       38.671057      25.865292      142.43411    
-807597.72      3.9852672      40.819501      25.779084      141.96295    
-807608.83      3.4629031      37.416243      25.817665      141.49158    
-807622.02      4.6054969      36.291118      25.899779      141.01864    
-807641.81      4.2156607      36.711668      25.856394      140.54816    
-807655.84      3.3168835      37.155643      25.812536      140.08011    
-807648.49      3.3903173      37.747882      25.803772      139.61332    
-807635.47      3.8341822      36.975446      25.897104      139.14462    
-807621.43      3.2896684      36.479599      25.929895      138.67593    
-807607.49      3.7139384      40.36393       25.894111      138.20932    
-807594.92      3.9527219      40.171668      25.84977       137.74502    
-807602.03      3.1747794      38.300115      25.843112      137.28184    
-807627.63      3.0554071      35.735116      25.879153      136.8185     
-807649.26      2.6612193      35.041324      25.761755      136.35953    
-807649.79      3.0502331      36.953011      25.863745      135.89841    
-807644.24      4.2002713      37.805794      25.854102      135.43845    
-807640.41      3.449513       35.718068      25.842445      134.97967    
-807626.89      3.9499583      36.234503      25.845869      134.52162    
-807602.19      3.8390259      38.653652      25.882418      134.06336    
-807589.84      4.0409568      40.280904      25.851376      133.60679    
-807611.56      3.6119496      37.320829      25.820388      133.15187    
-807634.53      3.170761       35.644021      25.79836       132.69831    
-807643.33      4.5039261      36.287307      25.75385       132.24671    
-807645.24      3.2420271      37.482173      25.783536      131.79501    
-807650.48      2.9720338      35.984649      25.791529      131.34381    
-807640.86      3.4221085      36.366437      25.859854      130.8915     
-807619.18      3.1084173      36.697095      25.865469      130.43977    
-807596.7       3.1463054      38.961161      25.881966      129.98832    
-807599.42      4.4007086      40.295259      25.83409       129.53881    
-807613.97      3.4558809      37.825839      25.82051       129.09032    
-807629.63      3.2891583      35.591502      25.89948       128.6405     
-807639.83      4.0730369      36.557778      25.9286        128.19063    
-807651.35      3.1630362      36.73104       25.887015      127.74247    
-807648.11      4.1881379      36.545695      25.883463      127.29505    
-807632.26      4.0424237      36.053142      25.879599      126.84838    
-807611.68      3.5377299      37.540043      25.908243      126.40164    
-807607.1       3.3314231      38.791605      25.891017      125.95594    
-807599.01      4.0297785      40.580009      25.907245      125.51048    
-807609.33      3.1890687      37.615433      25.873851      125.06642    
-807625.64      3.5072263      36.569002      25.890371      124.62256    
-807646.5       3.3450318      36.497508      25.88066       124.17951    
-807648.03      4.6627267      37.917196      25.876965      123.73713    
-807638.91      5.6741715      38.464107      25.830898      123.29636    
-807629.53      3.6051954      37.028553      25.779113      122.8573     
-807620.22      4.2044753      38.164944      25.795423      122.41839    
-807605.93      3.6374302      39.286295      25.875511      121.9782     
-807596         3.5601949      39.942745      25.852599      121.53906    
-807612.19      3.6028957      37.11239       25.816092      121.10122    
-807632.82      3.8410647      36.246243      25.799128      120.66425    
-807643.62      3.1084318      35.720522      25.77734       120.22824    
-807641.52      3.8706283      37.255646      25.841798      119.79131    
-807640.3       3.2221116      36.023342      25.850742      119.35467    
-807635.22      4.1879689      35.620587      25.811806      118.91934    
-807619.79      3.0473942      36.262319      25.891644      118.48279    
-807601.42      3.7794679      38.228031      25.930873      118.04592    
-807598.34      3.3216693      39.645308      25.880651      117.61056    
-807618.49      4.3526803      37.2738        25.852375      117.17624    
-807633.32      3.2115529      35.830805      25.828671      116.74284    
-807636.83      4.9943357      37.552917      25.811336      116.31022    
-807645.74      2.9657202      36.075641      25.837755      115.87749    
-807644.44      3.6103878      36.203589      25.857931      115.44479    
-807632.88      3.1260946      35.183475      25.889308      115.01191    
-807611.27      3.5968164      36.951956      25.893119      114.57937    
-807603.26      3.1327012      38.16975       25.824739      114.14858    
-807607.43      3.5610753      37.980113      25.900239      113.71674    
-807618.24      3.0023662      36.674954      25.849953      113.28626    
-807630.48      3.4570631      35.783297      25.871756      112.85577    
-807643.53      3.3339627      36.387589      25.872822      112.42566    
-807647.84      3.7909418      36.61531       25.857067      111.99622    
-807640.21      3.292679       35.825392      25.852436      111.56725    
-807627.4       3.1293082      35.806956      25.866475      111.1384     
-807614.57      3.5437504      36.848376      25.904142      110.70924    
-807607.45      3.2623627      38.142123      25.879837      110.28089    
-807605.22      5.2557432      38.341655      25.819188      109.85399    
-807616.96      3.4678784      36.857591      25.873692      109.42647    
-807633.67      3.5443254      36.684029      25.853995      108.99964    
-807646.84      3.0350073      35.838347      25.854709      108.57316    
-807642.37      3.9034008      37.171975      25.824702      108.14752    
-807638.18      3.8973029      36.160636      25.858146      107.72165    
-807627.89      2.9611217      35.507041      25.891265      107.29555    
-807618.48      3.3006491      36.576735      25.889182      106.86982    
-807603.14      3.4451893      37.509211      25.921273      106.4439     
-807605.68      2.8816011      37.335029      25.854873      106.0194     
-807621.14      2.9497641      35.476136      25.836361      105.59553    
-807637.76      3.1441833      35.223705      25.86035       105.17157    
-807641.03      3.0173624      36.177494      25.813765      104.74867    
-807642.49      4.0914927      37.176625      25.79586       104.32635    
-807637.88      4.064524       36.546827      25.828657      103.90379    
-807628.73      3.780309       35.679076      25.887188      103.48061    
-807611.64      3.9659341      37.829775      25.898529      103.05755    
-807600.3       3.9300396      39.707527      25.886949      102.63497    
-807608.81      4.0195058      38.67109       25.902094      102.21245    
-807622.92      4.2667181      37.548432      25.927553      101.78984    
-807635.61      3.098405       36.06089       25.906588      101.36785    
-807639.62      4.0150075      37.758819      25.896992      100.94628    
-807646.14      2.8715121      36.276139      25.929009      100.52452    
-807636.92      3.1694659      36.472502      25.895648      100.10354    
-807624.96      4.2897301      36.368166      25.873753      99.683152    
-807609.2       4.6123982      36.972067      25.872668      99.263047    
-807607.01      3.6301341      38.458207      25.891808      98.84293     
-807608.55      5.4791711      37.822616      25.85971       98.423536    
-807622.84      4.7152012      36.563057      25.877424      98.004145    
-807633.64      4.7341345      36.543174      25.84517       97.585463    
-807645.74      3.4253946      36.354056      25.807158      97.167556    
-807641.37      4.1091046      37.022908      25.79402       96.750065    
-807635.13      2.9209965      36.272565      25.891232      96.33147     
-807622.22      4.2287902      37.221935      25.890919      95.913125    
-807611.31      3.2173677      38.168986      25.894449      95.494978    
-807604.81      3.3524576      38.248222      25.859874      95.077534    
-807609.98      3.7652176      37.708892      25.93759       94.659296    
-807623.81      3.1034637      36.233605      25.938088      94.241296    
-807638.42      3.4822774      36.198151      25.912496      93.823872    
-807642.67      4.2203553      37.123345      25.914634      93.406655    
-807640.33      2.9509459      36.355636      25.880628      92.990106    
-807631.77      3.8014082      36.3319        25.899606      92.573541    
-807624.84      3.0309874      35.608329      25.891331      92.157303    
-807609.29      3.7342984      37.898416      25.895995      91.741229    
-807604.96      3.5283483      37.935058      25.88965       91.325452    
-807610.95      3.8173323      38.204011      25.894215      90.909834    
-807628.53      3.6030835      36.18785       25.922207      90.494089    
-807636.96      3.1907431      36.336065      25.878995      90.079085    
-807640.25      3.1323288      36.865232      25.87776       89.664301    
-807641.51      3.6139271      36.886812      25.940833      89.248972    
-807633.7       3.9566292      36.521172      25.891949      88.834432    
-807621.94      4.6133111      36.390859      25.850868      88.420577    
-807607.17      3.4006015      37.247579      25.908773      88.006241    
-807606.09      3.7148342      37.838152      25.87943       87.592444    
-807614.22      3.5632256      36.99599       25.877157      87.178867    
-807629.1       3.6661091      35.32994       25.854705      86.765736    
-807636.17      4.0407598      35.921902      25.816302      86.353224    
-807642.64      4.2273887      36.747363      25.828675      85.940749    
-807642.26      4.343608       36.829537      25.851825      85.528194    
-807632.57      2.8843137      35.970536      25.901288      85.115273    
-807616.96      3.805271       36.746012      25.879346      84.702777    
-807607.97      3.212888       38.400575      25.905276      84.29018     
-807608.14      4.1620006      38.29316       25.879103      83.878048    
-807616.52      3.5571007      37.0682        25.908398      83.465779    
-807626.17      3.6880196      37.837457      25.927186      83.053492    
-807638.84      3.6736696      37.360962      25.915389      82.64151     
-807643.61      4.2137536      37.536399      25.881815      82.230052    
-807639.71      3.9187567      36.783304      25.925215      81.818319    
-807626.95      3.7976047      36.815983      25.865086      81.407373    
-807618.08      3.5148959      36.314102      25.896528      80.996272    
-807609.34      3.685999       37.931625      25.923839      80.585065    
-807607.16      4.1971506      38.040477      25.931304      80.173953    
-807618.72      3.7174951      36.179251      25.931544      79.763008    
-807631.74      3.7503649      36.312223      25.913644      79.352406    
-807641.41      4.1957879      36.931443      25.857748      78.942509    
-807640.12      3.8423559      37.092952      25.88124       78.532538    
-807637.88      3.5608224      36.445118      25.851408      78.123006    
-807629.19      3.7170584      36.149827      25.835702      77.713773    
-807616.7       3.0538302      36.985261      25.885802      77.304213    
-807605.91      3.927682       38.656626      25.902519      76.894648    
-807609.93      3.2758351      37.202204      25.923562      76.485042    
-807622.55      3.3199942      36.961555      25.935842      76.075477    
-807634.48      3.1117335      36.099941      25.930173      75.666119    
-807639.12      3.5633104      37.198603      25.916491      75.257034    
-807641.02      3.8379755      37.366528      25.921249      74.848057    
-807638.82      3.1185151      36.761713      25.881852      74.439574    
-807627.48      3.6596487      36.819047      25.900266      74.031071    
-807613.33      3.7597673      37.525667      25.875103      73.622928    
-807605.59      3.7779315      37.750073      25.909185      73.214628    
-807611.7       4.3700887      37.253588      25.924149      72.806342    
-807622.2       3.6297354      36.66948       25.932586      72.398125    
-807632.73      4.1618106      36.984984      25.888699      71.990418    
-807639.42      3.8224318      37.539477      25.856627      71.583111    
-807641.89      4.3315053      37.118226      25.839749      71.176071    
-807636.45      3.5784741      36.786724      25.857781      70.769008    
-807624.84      3.714251       37.91646       25.864843      70.362013    
-807610.64      3.985897       38.697575      25.873032      69.955077    
-807607.8       4.7207885      39.846878      25.828768      69.548621    
-807612.52      4.3635116      38.265708      25.864157      69.142002    
-807619.99      3.7228128      38.331567      25.87111       68.73545     
-807633.94      3.3578926      36.937146      25.848701      68.329194    
-807642.15      3.725551       36.942558      25.849205      67.923052    
-807641.08      4.0577448      37.23062       25.803869      67.517373    
-807631.88      3.4178379      36.73814       25.838173      67.111544    
-807623.21      4.0127944      37.320247      25.875426      66.705547    
-807612.91      3.9786311      37.390126      25.896462      66.299512    
-807605.81      3.7431315      39.215873      25.871148      65.893782    
-807609.45      3.8124734      37.863653      25.875309      65.488135    
-807623.89      3.5784685      36.669726      25.904155      65.082394    
-807636.14      3.5961434      36.604787      25.862442      64.677068    
-807639.41      3.4830807      37.811289      25.909939      64.271516    
-807637.85      3.8606641      37.274732      25.860331      63.866427    
-807633.89      3.3574318      36.405611      25.857608      63.461465    
-807621.8       4.50588        37.817645      25.881043      63.056448    
-807609.23      3.2758214      38.284432      25.853569      62.651728    
-807605.08      3.5829822      39.384358      25.855465      62.247099    
-807614.5       3.4203949      38.267817      25.841177      61.84267     
-807625.28      3.8700417      38.179192      25.869143      61.438155    
-807635         3.8812329      37.351589      25.81584       61.034095    
-807638.91      3.2131219      37.526364      25.794042      60.630275    
-807639.09      3.606818       37.453361      25.84433       60.226221    
-807633.57      3.1806226      35.566399      25.903335      59.821887    
-807620.24      3.2561         36.38634       25.890522      59.417738    
-807610.78      3.1108093      36.913956      25.926113      59.013468    
-807610.16      2.9383665      37.321286      25.899377      58.609468    
-807617.92      3.4231969      36.877416      25.866219      58.205774    
-807626.14      3.6217867      36.469938      25.807559      57.802536    
-807637.19      3.5022275      35.817627      25.844928      57.399159    
-807639.17      3.1159163      36.458083      25.86093       56.995778    
-807640.52      3.0974657      36.086643      25.906271      56.592223    
-807630.43      3.5028679      35.766112      25.896272      56.188823    
-807619.36      3.405887       37.0911        25.912755      55.785424    
-807613.23      3.3717876      37.455053      25.89971       55.382197    
-807611.63      3.0930462      36.894428      25.882261      54.979163    
-807618.1       3.7663549      36.181269      25.916671      54.576028    
-807627.23      3.2380708      36.020625      25.906997      54.173041    
-807639.74      4.3471992      35.87448       25.882037      53.770285    
-807639.2       3.8253656      36.678309      25.858889      53.367746    
-807635.76      3.6759094      36.565329      25.855607      52.96531     
-807628.66      3.6857883      37.744032      25.897949      52.562733    
-807621.72      3.221706       36.686789      25.930926      52.16007     
-807611.96      3.4788943      37.911728      25.882373      51.757754    
-807612.08      3.6942624      37.447092      25.844915      51.355719    
-807619.53      3.0599193      36.957851      25.834529      50.953818    
-807630.73      3.2539925      35.983372      25.813012      50.552106    
-807636.22      3.8143435      35.746084      25.835438      50.150358    
-807638.71      3.1815211      36.543535      25.899921      49.748367    
-807635         3.2999223      35.823258      25.86749       49.34662     
-807629.95      3.1905166      35.449371      25.913838      48.944728    
-807617.93      3.6916667      37.086294      25.898103      48.542996    
-807610.88      3.170299       37.77343       25.873553      48.141464    
-807610.17      3.1054792      38.614913      25.839938      47.740169    
-807619.38      3.6266076      37.420334      25.8576        47.338867    
-807628.79      3.6307765      36.343751      25.868518      46.937591    
-807636.36      3.3990687      36.61378       25.812258      46.536649    
-807638.22      3.3531405      37.399524      25.853529      46.13559     
-807635.14      3.2963507      36.381667      25.851816      45.734614    
-807627.83      2.9777914      36.237481      25.863878      45.333657    
-807616.19      3.6515815      37.23789       25.897082      44.93263     
-807610.16      3.8863241      38.857147      25.827167      44.531981    
-807611.07      3.6685323      39.012758      25.84581       44.131322    
-807620.38      3.7128976      38.930159      25.837452      43.730768    
-807628.64      3.6156135      38.192934      25.80808       43.330407    
-807636.94      4.6688602      38.715956      25.86193       42.929889    
-807637.38      3.5579559      37.944899      25.861668      42.529442    
-807634.15      4.2484726      37.166609      25.846939      42.129125    
-807624.36      3.4032411      36.827117      25.869401      41.728786    
-807615.11      3.0661289      36.907418      25.851317      41.328588    
-807612.06      3.2425428      36.637455      25.839439      40.928503    
-807612.06      3.0544407      37.321857      25.813482      40.528584    
-807620.87      3.45342        36.841986      25.801053      40.128775    
-807630.94      3.4623962      36.552122      25.864644      39.728789    
-807635.11      3.4409148      37.107127      25.905868      39.328717    
-807638.18      3.3755599      36.651183      25.840297      38.928955    
-807632.62      4.0427373      36.660321      25.805973      38.529379    
-807624.6       3.6382811      36.63565       25.859286      38.129673    
-807616.68      3.0127241      36.977085      25.851667      37.730059    
-807612.4       3.6869417      38.239093      25.908028      37.330312    
-807613.56      3.0072353      37.147072      25.909571      36.930628    
-807623.47      3.6570511      36.683289      25.872856      36.531135    
-807631.54      4.1223629      36.787867      25.821587      36.131876    
-807635.38      4.3714914      36.693801      25.852367      35.732574    
-807637.07      3.6634189      36.540916      25.856713      35.333319    
-807631.43      4.6786279      36.591124      25.8652        34.934098    
-807622.9       3.2010871      36.249017      25.857101      34.534963    
-807614.79      3.9820534      37.879386      25.908366      34.135729    
-807613.83      3.5400854      37.705866      25.919402      33.736525    
-807615.84      3.545058       37.374812      25.921785      33.337378    
-807625.73      3.9055191      36.525805      25.819929      32.938599    
-807631.63      3.570267       36.395326      25.797037      32.539942    
-807636.74      3.2903359      36.188243      25.776927      32.141395    
-807634.17      3.8506734      36.759998      25.838166      31.742725    
-807630.52      3.3210808      36.132308      25.830284      31.344131    
-807621.78      3.6230309      36.405122      25.850178      30.945537    
-807615.64      3.3200498      37.051534      25.847023      30.547007    
-807611.56      3.576719       37.685076      25.831696      30.148573    
-807618.39      3.7154694      37.173266      25.808494      29.750254    
-807626.32      3.1804887      36.013933      25.807592      29.351988    
-807632.47      3.6590075      36.011695      25.826938      28.953723    
-807636.74      3.2428739      35.859904      25.854967      28.555439    
-807636.95      3.485696       35.780781      25.8608        28.157195    
-807629.55      3.5212136      36.289882      25.884662      27.758946    
-807620.82      3.3598107      36.728979      25.902376      27.36071     
-807614.25      3.0913919      37.371741      25.874768      26.962595    
-807610.94      3.2117302      37.8645        25.891701      26.564495    
-807618.06      2.8534416      36.818876      25.880034      26.166476    
-807626.4       3.7939986      36.303369      25.869154      25.768535    
-807632.7       3.2519298      37.237669      25.804703      25.370787    
-807636.63      4.41257        37.272162      25.796777      24.973104    
-807633.64      3.0855607      37.287021      25.857544      24.575338    
-807629.33      4.6149383      37.059427      25.886482      24.177561    
-807620.56      3.0643224      36.907029      25.862276      23.779886    
-807612.55      4.6610647      38.487697      25.856162      23.382274    
-807613.59      4.5174661      37.708973      25.855434      22.984712    
-807620.4       3.9309148      37.175016      25.85028       22.587208    
-807627.52      3.1578655      35.758684      25.886187      22.189685    
-807632.71      3.1173635      36.864318      25.857213      21.792266    
-807636.79      4.543511       36.370819      25.879043      21.394855    
-807632.82      3.9769101      37.50404       25.906716      20.997445    
-807628.03      3.0085258      36.059116      25.851312      20.600181    
-807619.88      3.2446975      36.28875       25.843454      20.202978    
-807615.54      3.3033317      37.533407      25.84924       19.80581     
-807612.66      3.6436446      37.529623      25.862178      19.408667    
-807621.04      2.9209003      36.709049      25.846837      19.011594    
-807629.08      3.6092131      36.480213      25.873169      18.614526    
-807633.59      3.8528746      36.330002      25.852115      18.217536    
-807633.64      3.5422716      37.055094      25.871729      17.820562    
-807633.02      3.8897133      36.887714      25.875283      17.423629    
-807626.23      3.5682518      36.361929      25.909463      17.026694    
-807619.2       3.5833556      37.616163      25.861771      16.629871    
-807611.45      3.8005676      38.433527      25.867836      16.233085    
-807614.17      4.3076041      37.87061       25.841738      15.836377    
-807621.37      3.1888279      37.205328      25.926282      15.439605    
-807627.96      4.3276629      36.79507       25.820558      15.04301     
-807632.79      3.1920103      36.086544      25.890002      14.646373    
-807634.78      3.549174       36.40865       25.858474      14.249817    
-807632.66      2.8074045      35.802973      25.876358      13.853283    
-807625.82      3.3234326      36.693052      25.838791      13.456833    
-807618.07      3.5745534      37.337926      25.852208      13.06041     
-807614.07      2.9054138      36.54297       25.81668       12.664064    
-807615.52      4.065297       37.097432      25.792864      12.26778     
-807621.16      3.4752211      36.24547       25.799979      11.871526    
-807629.91      3.744841       36.216869      25.829072      11.475281    
-807633.35      3.3692642      36.647685      25.892376      11.079019    
-807633.84      4.4037455      36.628179      25.811937      10.682868    
-807630.46      3.5870406      36.690635      25.836245      10.286734    
-807624.68      3.812951       36.90444       25.891163      9.8905954    
-807616.29      3.424245       36.922008      25.88505       9.4945026    
-807614.85      3.4456371      36.764133      25.85506       9.0984725    
-807616.49      3.5364553      36.878719      25.858829      8.7024784    
-807623.51      2.8423799      36.95369       25.839793      8.3065356    
-807628.87      3.0323181      35.827157      25.856382      7.9106198    
-807635.29      3.4603706      35.999717      25.849426      7.5147461    
-807634         3.6479726      36.114565      25.854262      7.1189071    
-807630.8       3.1724239      35.954056      25.829622      6.7231187    
-807622.01      4.244063       36.678354      25.860113      6.3273508    
-807619.04      2.9626374      35.605164      25.817476      5.9316401    
-807613.66      4.0192287      37.308895      25.871739      5.5359404    
-807618.86      3.7425774      36.075809      25.88461       5.1402734    
-807624.75      3.3503442      35.773271      25.887764      4.7446434    
-807631.42      2.9881235      35.593903      25.89238       4.3490501    
-807634.99      3.0157401      35.868048      25.886894      3.9534968    
-807633.86      3.2283852      36.024286      25.903482      3.5579766    
-807630.32      3.7891609      35.985426      25.837998      3.1625108    
-807621.95      3.4990063      36.346275      25.792909      2.7670889    
-807617.2       3.2687847      36.676144      25.801647      2.3716967    
-807614.47      3.6122974      36.785705      25.779507      1.9763394    
-807618.56      3.2968983      36.521422      25.832012      1.5810058    
-807623.6       3.6907284      36.553987      25.855064      1.1857031    
-807634.03      3.4804069      36.012886      25.820087      0.79043687   
-807635.38      3.705596       36.161815      25.833466      0.39520215   
-807635.37      3.7078994      35.894675      25.859668      0            
Loop time of 197.593 on 32 procs for 5000 steps with 1080 atoms

Performance: 4.373 ns/day, 5.489 hours/ns, 25.305 timesteps/s, 27.329 katom-step/s
67.3% CPU use with 32 MPI tasks x 1 OpenMP threads

MPI task timing breakdown:
Section |  min time  |  avg time  |  max time  |%varavg| %total
---------------------------------------------------------------
Pair    | 101.05     | 144.18     | 193.54     | 313.7 | 72.97
Neigh   | 0          | 0          | 0          |   0.0 |  0.00
Comm    | 1.7802     | 51.139     | 94.268     | 526.8 | 25.88
Output  | 0.026552   | 0.027634   | 0.0306     |   0.4 |  0.01
Modify  | 1.9192     | 1.9297     | 1.9389     |   0.4 |  0.98
Other   |            | 0.3152     |            |       |  0.16

Nlocal:          33.75 ave          48 max          21 min
Histogram: 8 8 0 0 0 0 0 8 0 8
Nghost:        1106.25 ave        1119 max        1092 min
Histogram: 8 0 8 0 0 0 0 0 8 8
Neighs:              0 ave           0 max           0 min
Histogram: 32 0 0 0 0 0 0 0 0 0
FullNghs:       5494.5 ave        7896 max        3378 min
Histogram: 8 8 0 0 0 0 0 8 0 8

Total # of neighbors = 175824
Ave neighs/atom = 162.8
Neighbor list builds = 0
Dangerous builds = 0

reset_timestep 0


variable interval equal 1000
thermo 10

variable nintervals equal $(v_PERIOD/v_interval)
variable nintervals equal 100
variable efield equal 1e-2*36.36*cos((step/${PERIOD})*2*3.14)
variable efield equal 1e-2*36.36*cos((step/100000)*2*3.14)
fix born all addbornforce 0.0 0.0 v_efield

variable Px equal f_born[1]+c_polarization[1]
variable Py equal f_born[2]+c_polarization[2]
variable Pz equal (f_born[3]+c_polarization[3])/vol
variable pe equal pe

fix aveP all ave/time 1 $(v_interval/2) ${interval} v_efield v_Pz v_pe f_born file Pz.${MODEL}.${STRUCTURE}.${TEMP}.$L.${ITER}
fix aveP all ave/time 1 500 ${interval} v_efield v_Pz v_pe f_born file Pz.${MODEL}.${STRUCTURE}.${TEMP}.$L.${ITER}
fix aveP all ave/time 1 500 1000 v_efield v_Pz v_pe f_born file Pz.${MODEL}.${STRUCTURE}.${TEMP}.$L.${ITER}
fix aveP all ave/time 1 500 1000 v_efield v_Pz v_pe f_born file Pz.BaTiO3-E0.${STRUCTURE}.${TEMP}.$L.${ITER}
fix aveP all ave/time 1 500 1000 v_efield v_Pz v_pe f_born file Pz.BaTiO3-E0.BaTiO3-sc333.${TEMP}.$L.${ITER}
fix aveP all ave/time 1 500 1000 v_efield v_Pz v_pe f_born file Pz.BaTiO3-E0.BaTiO3-sc333.350.$L.${ITER}
fix aveP all ave/time 1 500 1000 v_efield v_Pz v_pe f_born file Pz.BaTiO3-E0.BaTiO3-sc333.350.2.${ITER}
fix aveP all ave/time 1 500 1000 v_efield v_Pz v_pe f_born file Pz.BaTiO3-E0.BaTiO3-sc333.350.2.8

thermo_style custom step time temp press pe f_born v_efield v_Pz spcpu cpuremain

# dump 4a all custom 1000 dump.hyst.${MODEL}.${STRUCTURE}.${TEMP}.$L.${ITER}.bin id type xu yu zu fx fy fz
# dump_modify 4a sort id

fix nvt all nvt temp ${TEMP} ${TEMP} $(100*dt)
fix nvt all nvt temp 350 ${TEMP} $(100*dt)
fix nvt all nvt temp 350 350 $(100*dt)
fix nvt all nvt temp 350 350 0.2000000000000000111

run $(v_PERIOD)
run 100000
WARNING: non-constant efield is experimental, strongly distrust scalar/vector output (src/fix_addbornforce.cpp:193)
Per MPI rank memory allocation (min/avg/max) = 3.516 | 3.516 | 3.516 Mbytes
   Step          Time           Temp          Press          PotEng         f_born        v_efield         v_Pz          S/CPU         CPULeft    
         0   0              336.30985      126812.09     -807635.37     -292.5333       0.3636         0.055017259    0              0            
        10   0.02           350.38332      133853.65     -807629.44     -300.35253      0.36359993     0.056487846    26.547076      3766.5346    
        20   0.04           342.2701       137468.24     -807623.08     -305.70612      0.36359971     0.05749474     26.536779      3766.8803    
        30   0.06           344.00394      143781        -807615.73     -313.19413      0.36359935     0.058903084    26.524538      3767.3231    
        40   0.08           349.23825      142492.3      -807616.2      -313.47045      0.36359885     0.058955133    26.599027      3764.719     
        50   0.1            345.79998      141583.02     -807618.45     -310.59638      0.36359821     0.058414702    26.482769      3766.3035    
        60   0.12           343.86422      135250.22     -807626.68     -302.02751      0.36359742     0.056803256    26.537625      3765.9344    
        70   0.14           347.26395      130588.22     -807632.6      -296.43049      0.36359649     0.05575075     26.597737      3764.3474    
        80   0.16           334.62896      126657.54     -807634.93     -292.19808      0.36359541     0.054954907    26.539499      3764.0937    
        90   0.18           341.21721      128920.17     -807633.17     -294.73404      0.36359419     0.055432042    26.574496      3763.2617    
       100   0.2            350.02395      133343.66     -807629.1      -299.85081      0.36359283     0.056394589    26.597366      3762.1977    
       110   0.22           353.21364      139868.73     -807620.98     -308.20413      0.36359132     0.057965883    26.606683      3761.1391    
       120   0.24           353.68763      142714.96     -807616.21     -312.88121      0.36358968     0.058845798    26.561126      3760.731     
       130   0.26           351.4286       143817.18     -807616.11     -312.31195      0.36358788     0.058739023    26.529575      3760.6716    
       140   0.28           352.76985      139831.99     -807620.1      -308.27499      0.36358595     0.057980069    26.50634       3760.8026    
       150   0.3            356.0162       133825.79     -807626.92     -301.60866      0.36358387     0.056726595    26.512264      3760.8097    
       160   0.32           350.76166      130736.02     -807631.56     -295.83354      0.36358165     0.055640749    26.546894      3760.4617    
       170   0.34           339.57705      128691.88     -807633.38     -292.19368      0.36357928     0.054956518    26.586087      3759.7843    
       180   0.36           349.25337      131076.16     -807631.48     -295.09956      0.36357677     0.055503446    26.602624      3759.0106    
       190   0.38           351.51793      133819.06     -807626        -300.72255      0.36357412     0.056561453    26.653448      3757.9024    
       200   0.4            353.48555      141362.38     -807617.36     -309.25605      0.36357132     0.058166924    26.619396      3757.1068    
       210   0.42           359.71365      142774.6      -807616.36     -310.98556      0.36356838     0.058492696    26.576913      3756.6367    
       220   0.44           351.0803       144920.11     -807613.16     -312.67839      0.3635653      0.058811595    26.60647       3755.9855    
       230   0.46           370.92226      138895.31     -807621.01     -307.44882      0.36356207     0.05782848     26.633037      3755.1958    
       240   0.48           371.92978      135266.78     -807626.06     -302.26207      0.3635587      0.056853424    26.581373      3754.7436    
       250   0.5            364.88258      129125.77     -807633.82     -293.53196      0.36355519     0.055211883    26.514901      3754.6737    
       260   0.52           349.42795      129571.07     -807631.92     -293.1466       0.36355153     0.055139953    26.529541      3754.5008    
       270   0.54           369.2556       128998.84     -807632.44     -295.42914      0.36354773     0.055569874    26.528902      3754.3159    
       280   0.56           356.74412      136147.82     -807624.06     -302.06704      0.36354379     0.056819071    26.560397      3753.9583    
       290   0.58           360.99252      139595.24     -807619.66     -307.17754      0.3635397      0.05778101     26.469991      3754.0413    
       300   0.6            373.0948       143737.81     -807616.04     -312.4324       0.36353547     0.058770148    26.499041      3753.956     
       310   0.62           353.85676      142673.89     -807614.19     -311.78387      0.3635311      0.058648863    26.582281      3753.4718    
       320   0.64           371.14181      140316.49     -807621.18     -307.17786      0.36352658     0.057783155    26.570309      3753.0471    
       330   0.66           348.26079      133429.91     -807626.24     -299.10218      0.36352192     0.056264763    26.558639      3752.6753    
       340   0.68           350.96854      131073.22     -807630.04     -295.64393      0.36351712     0.055614958    26.536243      3752.3965    
       350   0.7            351.11519      128472.27     -807632.81     -293.08492      0.36351217     0.055134321    26.588284      3751.902     
       360   0.72           367.16715      131430.28     -807631.49     -296.69143      0.36350708     0.055813549    26.545329      3751.5825    
       370   0.74           354.37663      134831.95     -807624.43     -302.17358      0.36350185     0.056845669    26.561255      3751.1992    
       380   0.76           362.35735      141108.66     -807618.6      -309.20601      0.36349647     0.058169489    26.835084      3749.8091    
       390   0.78           362.49362      142564.62     -807616.17     -311.79215      0.36349095     0.058656898    26.923748      3748.1576    
       400   0.8            358.71527      142681.41     -807616.15     -311.39646      0.36348529     0.05858337     26.961299      3746.4414    
       410   0.82           347.72977      138788.93     -807620.03     -306.14355      0.36347948     0.057596055    27.001644      3744.6562    
       420   0.84           345.23183      133651.88     -807625.52     -300.36674      0.36347353     0.056510165    27.01956       3742.8801    
       430   0.86           355.64782      129368.86     -807632.59     -294.88576      0.36346744     0.055479918    27.024445      3741.154     
       440   0.88           349.55462      129618.68     -807632.8      -293.91802      0.3634612      0.055298796    26.99809       3739.5712    
       450   0.9            352.53216      132061.45     -807629.81     -297.46458      0.36345482     0.055967041    26.991103      3738.0636    
       460   0.92           366.2828       135491.02     -807625.83     -303.49852      0.3634483      0.057103334    27.062759      3736.393     
       470   0.94           368.32369      140160.84     -807620.78     -308.96348      0.36344163     0.058132634    27.069922      3734.7571    
       480   0.96           344.30483      141701.8      -807616.57     -310.02038      0.36343482     0.058332587    27.073311      3733.1645    
       490   0.98           351.35378      142217.23     -807617.45     -310.20655      0.36342786     0.058368733    27.066473      3731.6407    
       500   1              351.24341      136556.47     -807623.31     -304.51353      0.36342077     0.057298648    27.069303      3730.1554    
       510   1.02           351.76928      134038.13     -807627.22     -9622.5434      0.36341353     0.056583047    26.952347      3729.0265    
       520   1.04           344.38869      129014.45     -807632.32     -9433.561       0.36340614     0.055472909    26.956046      3727.9171    
       530   1.06           342.63465      132137.65     -807630.6      -9481.9295      0.36339862     0.055758488    26.916297      3726.9384    
       540   1.08           344.22678      131505.14     -807628.84     -9550.7664      0.36339095     0.056164469    26.903548      3726.0146    
       550   1.1            349.74698      138022.5      -807622.99     -9764.4689      0.36338313     0.057422408    26.901637      3725.1156    
       560   1.12           355.59819      138771.72     -807622.04     -9826.7281      0.36337518     0.057789804    26.922345      3724.1847    
       570   1.14           345.09296      142964.33     -807617.44     -9926.7205      0.36336707     0.058379149    26.924234      3723.2689    
       580   1.16           355.96781      139298.03     -807620.98     -9867.9357      0.36335883     0.058034752    26.892295      3722.4474    
       590   1.18           354.44719      136917.52     -807624.16     -9759.2515      0.36335044     0.057396889    26.906571      3721.608     
       600   1.2            343.99058      131794.7      -807630.68     -9507.9299      0.36334191     0.055920109    26.938073      3720.7121    
       610   1.22           346.05673      131060.99     -807631.95     -9475.9406      0.36333324     0.055733297    26.959832      3719.7847    
       620   1.24           338.96231      129754.87     -807631        -9478.9412      0.36332442     0.055752298    26.964752      3718.8643    
       630   1.26           346.32119      132606.75     -807628.39     -9595.4144      0.36331546     0.056438751    26.949795      3717.9938    
       640   1.28           350.15486      135849.46     -807624.68     -9732.3339      0.36330636     0.057245525    26.961233      3717.1145    
       650   1.3            346.65768      140738.43     -807618.97     -9900.45        0.36329711     0.058235864    26.89908       3716.3819    
       660   1.32           350.27137      141448.61     -807618.31     -9939.2533      0.36328772     0.058465622    26.886013      3715.6874    
       670   1.34           346.92738      140026.95     -807620.6      -9851.06        0.36327819     0.057948364    26.947208      3714.8773    
       680   1.36           337.34825      135624.79     -807624.01     -9698.6308      0.36326851     0.057053226    26.979121      3714.016     
       690   1.38           350.46786      131771.1      -807630.58     -9546.5672      0.36325869     0.056160214    26.956041      3713.2146    
       700   1.4            335.21775      130434.04     -807630.94     -9467.0628      0.36324873     0.055694036    26.911279      3712.5129    
       710   1.42           342.08269      129778.24     -807631.67     -9471.7248      0.36323863     0.055723013    26.897776      3711.8467    
       720   1.44           344.28946      134362.48     -807628.42     -9584.1555      0.36322838     0.056386044    26.943132      3711.1024    
       730   1.46           353.22807      136969.23     -807623.86     -9769.4494      0.36321798     0.05747782     26.894012      3710.4606    
       740   1.48           350.76514      141440.22     -807618.6      -9923.3153      0.36320745     0.058384772    26.8977        3709.8191    
       750   1.5            342.30566      140747.64     -807618.3      -9892.1211      0.36319677     0.058202949    26.903517      3709.1742    
       760   1.52           348.9697       140082.96     -807620.03     -9857.4767      0.36318595     0.058000837    26.94192       3708.4673    
       770   1.54           352.57116      134230.27     -807626.63     -9657.313       0.36317498     0.056824801    26.960482      3707.7362    
       780   1.56           345.65913      133627.33     -807628.02     -9571.8359      0.36316387     0.056323566    27.006381      3706.9341    
       790   1.58           342.69894      129536.19     -807631.98     -9422.5006      0.36315262     0.05544655     26.984078      3706.1814    
       800   1.6            341.71015      132607.86     -807628.96     -9503.3814      0.36314122     0.055924247    26.984287      3705.4379    
       810   1.62           349.96294      133516.88     -807627.08     -9593.7696      0.36312968     0.056457946    27.004476      3704.6697    
       820   1.64           368.681        139112.55     -807621.95     -9827.7535      0.363118       0.057836767    27.017067      3703.8903    
       830   1.66           354.34331      139329.23     -807618.51     -9866.2771      0.36310618     0.058065372    27.013973      3703.1258    
       840   1.68           359.30808      142022.43     -807618.14     -9887.2834      0.36309421     0.058190917    27.021161      3702.3592    
       850   1.7            358.03287      137937.86     -807620.6      -9797.3306      0.3630821      0.057663429    27.00056       3701.6348    
       860   1.72           358.35507      135979.07     -807623.71     -9690.0376      0.36306984     0.057033868    26.973718      3700.961     
       870   1.74           355.43658      131456.27     -807629.02     -9500.688       0.36305745     0.055921299    26.997673      3700.2568    
       880   1.76           356.90947      131162.86     -807630.82     -9443.1448      0.3630449      0.055584518    26.932717      3699.6608    
       890   1.78           359.39067      131124.74     -807630.43     -9464.2691      0.36303222     0.055710807    26.898473      3699.1224    
       900   1.8            365.70666      135345.19     -807625.07     -9659.699       0.36301939     0.056863202    26.947924      3698.5126    
       910   1.82           354.98685      138693.12     -807619.22     -9796.3625      0.36300642     0.057669751    26.947432      3697.9089    
       920   1.84           360.11919      141649.01     -807618.1      -9852.9313      0.36299331     0.058004859    26.92024       3697.3506    
       930   1.86           354.54326      140739.08     -807616.33     -9885.6084      0.36298005     0.058199357    26.932271      3696.7787    
       940   1.88           350.83293      139282.4      -807617.87     -9820.4294      0.36296665     0.057817764    26.9803        3696.1412    
       950   1.9            362.39182      135023.79     -807624.65     -9653.3484      0.36295311     0.056836195    26.972133      3695.5212    
       960   1.92           359.94183      132478.72     -807630.35     -9461.7057      0.36293942     0.055709958    26.968947      3694.9108    
       970   1.94           355.01795      131293.74     -807630.12     -9450.2271      0.36292559     0.055644493    26.974434      3694.2977    
       980   1.96           354.50339      132781.91     -807626.7      -9561.0587      0.36291162     0.056299255    26.974002      3693.6901    
       990   1.98           363.48944      135051.15     -807625.58     -9644.6         0.3628975      0.056793388    26.98358       3693.0742    
      1000   2              356.81404      138489.72     -807620.6      -9778.7202      0.36288325     0.057585434    26.949973      3692.509     
      1010   2.02           359.56455      140077.85     -807618.24     -308.61028      0.36286884     0.058157835    27.070378      3691.7858    
      1020   2.04           353.41717      140929.39     -807617.34     -308.89332      0.3628543      0.058213508    27.06077       3691.0822    
      1030   2.06           354.35255      138028.26     -807622.37     -304.22523      0.36283961     0.057336088    27.052078      3690.3966    
      1040   2.08           365.78329      132690.53     -807629.64     -298.78867      0.36282478     0.056313782    27.067788      3689.6966    
      1050   2.1            360.51712      130383        -807631.42     -296.57047      0.3628098      0.055898017    27.057067      3689.0167    
      1060   2.12           358.12136      130761.49     -807631.24     -296.74317      0.36279469     0.055932899    27.031445      3688.3754    
      1070   2.14           335.24826      133969.37     -807626.59     -298.47716      0.36277943     0.056262104    27.057558      3687.7061    
      1080   2.16           357.9317       135469.29     -807627.45     -301.05879      0.36276402     0.056751145    27.034569      3687.0712    
      1090   2.18           345.82487      139860.67     -807619.79     -307.2353       0.36274848     0.05791793     27.06744       3686.4004    
      1100   2.2            350.84886      140571.73     -807618.39     -309.59373      0.36273279     0.058365049    27.130833      3685.6574    
      1110   2.22           340.41894      140179.55     -807619.3      -307.29519      0.36271695     0.057934254    27.080981      3684.9817    
      1120   2.24           348.40741      136730.3      -807625.43     -302.43854      0.36270098     0.057021144    27.07329       3684.3206    
      1130   2.26           343.72947      133979.4      -807627.39     -299.88359      0.36268486     0.056541952    27.008128      3683.7427    
      1140   2.28           346.02065      129885.08     -807630.87     -296.78009      0.3626686      0.055959306    27.033272      3683.1386    
      1150   2.3            339.05243      130943.88     -807631.43     -295.24139      0.36265219     0.055671696    27.040282      3682.5303    
      1160   2.32           342.36791      131543.03     -807630.06     -297.20643      0.36263564     0.056044787    26.980366      3681.9961    
      1170   2.34           352.1307       136605.69     -807624.39     -304.24141      0.36261895     0.057374028    27.030368      3681.4067    
      1180   2.36           339.91166      138498.15     -807619.48     -307.52962      0.36260212     0.057996813    27.051112      3680.7974    
      1190   2.38           352.72963      140300.11     -807620.8      -307.89015      0.36258514     0.058067523    26.999511      3680.2507    
      1200   2.4            346.97043      138323.11     -807622.07     -305.8418       0.36256802     0.057683933    26.940901      3679.7733    
      1210   2.42           361.0813       137042.1      -807625.36     -304.48708      0.36255076     0.057431157    26.92873       3679.3114    
      1220   2.44           333.70884      133563.47     -807626.78     -299.29955      0.36253335     0.056455416    26.924877      3678.8553    
      1230   2.46           348.83298      131735.85     -807631.95     -296.05463      0.3625158      0.055846046    26.993077      3678.3251    
      1240   2.48           337.46122      130073.27     -807631.41     -294.99655      0.36249811     0.055649173    27.049599      3677.7359    
      1250   2.5            344.27102      134614.09     -807627.03     -300.23005      0.36248028     0.056639223    27.062447      3677.1364    
      1260   2.52           348.45033      135312.13     -807624.9      -302.93279      0.3624623      0.057151937    27.115502      3676.4838    
      1270   2.54           358.49736      138949.1      -807622.92     -306.14921      0.36244418     0.057761641    27.092721      3675.8598    
      1280   2.56           349.5184       138954.57     -807621.97     -305.79621      0.36242592     0.057697949    27.093352      3675.2392    
      1290   2.58           347.54274      140193.71     -807620.36     -307.02214      0.36240751     0.057932201    27.093736      3674.622     
      1300   2.6            346.93679      135558.24     -807624.37     -302.87645      0.36238896     0.057152873    27.074749      3674.0283    
      1310   2.62           340.97569      133481.31     -807628.28     -297.95418      0.36237027     0.05622694     27.083753      3673.4288    
      1320   2.64           343.65878      131239.58     -807630.9      -295.61523      0.36235143     0.055788455    27.083532      3672.833     
      1330   2.66           336.57451      132736.29     -807626.96     -298.43699      0.36233245     0.056323929    27.090532      3672.2335    
      1340   2.68           345.90018      134751.98     -807626.17     -300.40893      0.36231333     0.056699084    27.085039      3671.6429    
      1350   2.7            349.09087      137068.92     -807624.45     -302.39319      0.36229407     0.057076628    27.10327       3671.0375    
      1360   2.72           362.09497      138359.88     -807622.83     -305.71551      0.36227466     0.057706806    27.093669      3670.4451    
      1370   2.74           351.8873       140199.14     -807618.53     -308.35507      0.36225511     0.058208189    27.054526      3669.8944    
      1380   2.76           349.30816      137874.48     -807622.18     -304.25664      0.36223542     0.057437652    26.97599       3669.4232    
      1390   2.78           364.45352      135096.74     -807627.69     -300.59961      0.36221558     0.056750384    26.951373      3668.9774    
      1400   2.8            356.06321      132314.62     -807628.78     -298.18708      0.3621956      0.056298027    27.005851      3668.48      
      1410   2.82           348.84615      132476        -807627.98     -297.78481      0.36217548     0.0562252      27.025527      3667.9656    
      1420   2.84           350.29852      132610.34     -807628.72     -297.05373      0.36215522     0.056090302    27.088087      3667.3939    
      1430   2.86           351.76358      134024.32     -807627.68     -298.16171      0.36213481     0.056302685    27.05878       3666.8525    
      1440   2.88           356.91135      138071.96     -807622.31     -303.99507      0.36211426     0.057407473    27.048961      3666.3228    
      1450   2.9            347.41273      138839.67     -807618.95     -305.88271      0.36209357     0.057767243    27.015583      3665.8263    
      1460   2.92           352.06384      141025.13     -807618.31     -306.71085      0.36207273     0.057926973    26.949531      3665.3927    
      1470   2.94           351.18338      136264.92     -807622.39     -302.27708      0.36205176     0.057092897    26.974495      3664.937     
      1480   2.96           374.228        136629.61     -807625.15     -302.20185      0.36203064     0.057082017    27.022599      3664.4385    
      1490   2.98           360.03993      132901.75     -807627.35     -297.76032      0.36200937     0.056246374    27.040001      3663.926     
      1500   3              349.03536      134220.65     -807626.01     -297.03548      0.36198796     0.056112771    27.027486      3663.4266    
      1510   3.02           360.61974      130912.44     -807630.43     -9403.7348      0.36196642     0.055517466    26.98333       3662.9684    
      1520   3.04           362.82245      136135.53     -807623.71     -9614.2005      0.36194472     0.056763408    27.038709      3662.4622    
      1530   3.06           365.5465       136289.48     -807620.55     -9720.5706      0.36192289     0.057394893    27.008826      3661.9842    
      1540   3.08           365.9575       140906.38     -807618.29     -9779.6487      0.36190091     0.057747225    26.979639      3661.5331    
      1550   3.1            378.04899      137598.62     -807621.56     -9724.3358      0.36187879     0.057424121    26.96495       3661.0959    
      1560   3.12           368.87823      140585.72     -807618.29     -9780.6911      0.36185653     0.057760463    26.981002      3660.6456    
      1570   3.14           368.77038      135663.92     -807622.4      -9646.3548      0.36183412     0.05697066     27.002729      3660.1777    
      1580   3.16           372.03213      134418.64     -807626.43     -9525.4307      0.36181157     0.056259997    27.023726      3659.693     
      1590   3.18           358.14128      131209.3      -807627.54     -9430.4557      0.36178888     0.05570254     27.026021      3659.2079    
      1600   3.2            364.55671      134216.06     -807625.12     -9535.8877      0.36176605     0.056328847    27.012918      3658.7352    
      1610   3.22           369.64287      133898.71     -807624.01     -9600.2648      0.36174307     0.056712727    26.954361      3658.3129    
      1620   3.24           365.77816      138166.07     -807620.68     -9690.2327      0.36171995     0.057247863    26.956589      3657.8894    
      1630   3.26           387.92491      137719.31     -807623.26     -9713.6303      0.36169669     0.057389782    26.996115      3657.4338    
      1640   3.28           351.24592      140812.79     -807614.72     -9829.9125      0.36167329     0.058080555    27.014905      3656.9638    
      1650   3.3            368.46432      137446.77     -807621.33     -9705.3456      0.36164974     0.057348279    26.992456      3656.5133    
      1660   3.32           356.72014      136539.82     -807623.04     -9603.6986      0.36162605     0.056751371    26.95289       3656.096     
      1670   3.34           360.58244      132190.62     -807628        -9472.0441      0.36160222     0.055977071    26.979802      3655.6575    
      1680   3.36           346.63061      133287.01     -807625.54     -9493.7049      0.36157824     0.056108799    26.996853      3655.2061    
      1690   3.38           363.40844      132702.68     -807628.08     -9496.6693      0.36155413     0.056130063    26.987506      3654.7631    
      1700   3.4            364.83154      135795.97     -807625.93     -9578.4367      0.36152987     0.056617148    26.988183      3654.3204    
      1710   3.42           368.98969      137097        -807622.74     -9707.5941      0.36150546     0.057384458    26.966281      3653.8959    
      1720   3.44           363.60619      139238.89     -807619.93     -9778.269       0.36148092     0.057806163    26.926036      3653.5036    
      1730   3.46           358.64008      139208.84     -807619.09     -9789.5925      0.36145623     0.057877057    26.947437      3653.0949    
      1740   3.48           359.86882      137663.14     -807621.99     -9705.3619      0.3614314      0.057383019    26.913909      3652.7127    
      1750   3.5            353.23339      134560.55     -807624.81     -9589.513       0.36140643     0.05670198     26.901783      3652.34      
      1760   3.52           359.61967      132027.22     -807628.93     -9488.9022      0.36138131     0.056110976    26.956117      3651.9255    
      1770   3.54           350.94965      132216.27     -807628.21     -9475.4898      0.36135605     0.05603558     26.991026      3651.4848    
      1780   3.56           357.9858       130966.24     -807629.76     -9462.1815      0.36133065     0.055960812    26.98062       3651.0529    
      1790   3.58           350.32637      136032.04     -807624.26     -9606.3301      0.36130511     0.056817346    26.966331      3650.6324    
      1800   3.6            356.63861      136067.29     -807623.13     -9680.7982      0.36127942     0.057261863    26.960705      3650.2166    
      1810   3.62           355.73674      141035.17     -807618.61     -9820.0889      0.3612536      0.05808992     26.997933      3649.7736    
      1820   3.64           343.59444      138357.94     -807620.16     -9724.7373      0.36122763     0.057530011    27.003646      3649.3273    
      1830   3.66           350.05901      138865.81     -807621.61     -9707.1035      0.36120151     0.057429844    26.999205      3648.8849    
      1840   3.68           349.38974      133274.74     -807626.61     -9552.3334      0.36117526     0.056518291    26.963635      3648.4695    
      1850   3.7            347.59378      134006.41     -807626.62     -9544.2395      0.36114886     0.056474529    26.946798      3648.0668    
      1860   3.72           349.81671      129817.2      -807630.89     -9422.1234      0.36112232     0.055756049    26.904124      3647.6955    
      1870   3.74           354.86595      133404.46     -807629.26     -9500.8959      0.36109564     0.056226345    26.905822      3647.323     
      1880   3.76           353.3301       133453.17     -807626.65     -9586.0266      0.36106881     0.056734364    26.959974      3646.9115    
      1890   3.78           359.83837      139416.43     -807622.64     -9744.9815      0.36104184     0.057679438    27.009926      3646.4648    
      1900   3.8            340.6545       138655.6      -807621.47     -9704.8192      0.36101474     0.057446035    27.043111      3645.9955    
      1910   3.82           346.93925      139515.26     -807621.73     -9725.1811      0.36098748     0.05757091     27.028506      3645.5375    
      1920   3.84           359.86783      134961.79     -807626.81     -9627.5611      0.36096009     0.056997346    26.961177      3645.1276    
      1930   3.86           339.32159      135187.07     -807624.59     -9608.6325      0.36093255     0.056889625    26.970233      3644.7118    
      1940   3.88           349.02918      130585.6      -807631.21     -9444.6255      0.36090487     0.055922881    26.958788      3644.3044    
      1950   3.9            336.82084      132293.01     -807629.95     -9430.8114      0.36087705     0.055845391    26.938353      3643.9115    
      1960   3.92           341.79131      132355.15     -807628.03     -9519.1269      0.36084909     0.056372727    26.92182       3643.5303    
      1970   3.94           349.20849      136119        -807625.38     -9640.686       0.36082098     0.057097053    27.0019        3643.0943    
      1980   3.96           345.33906      137218.67     -807623.09     -9699.5729      0.36079273     0.057450309    27.063318      3642.6173    
      1990   3.98           345.58884      139000.88     -807622.6      -9716.7471      0.36076434     0.057556561    27.071725      3642.1359    
      2000   4              340.00728      138524.77     -807621.69     -9722.1036      0.36073581     0.057592844    26.9977        3641.7051    
      2010   4.02           346.818        135414.32     -807624.23     -302.29092      0.36070713     0.057308348    27.043802      3641.2442    
      2020   4.04           347.22929      134575.22     -807628.75     -297.77585      0.36067831     0.056456891    26.999034      3640.814     
      2030   4.06           337.89024      131778.07     -807630.68     -294.63706      0.36064935     0.055866278    26.97991       3640.397     
      2040   4.08           329.89524      133865.55     -807626.83     -297.31633      0.36062025     0.056378844    27.023039      3639.952     
      2050   4.1            345.49757      132165.01     -807628.32     -298.00214      0.36059101     0.056513474    27.05463       3639.4871    
      2060   4.12           343.49603      136214.1      -807625.14     -300.75096      0.36056162     0.057039412    27.046801      3639.0282    
      2070   4.14           356.12566      136781.61     -807625.72     -301.92661      0.36053209     0.057267072    27.073077      3638.5532    
      2080   4.16           341.29334      140663.76     -807619.96     -305.48332      0.36050242     0.057946449    27.066869      3638.0833    
      2090   4.18           345.10995      136595.58     -807623.13     -302.79481      0.36047261     0.057441222    27.034162      3637.6352    
      2100   4.2            354.03861      135927.17     -807626.79     -300.08174      0.36044265     0.056931276    27.017292      3637.1986    
      2110   4.22           339.67286      131917.77     -807628.41     -296.38014      0.36041256     0.056233705    27.062326      3636.7341    
      2120   4.24           347.09947      132632.95     -807628.4      -297.12678      0.36038232     0.0563801      27.059856      3636.272     
      2130   4.26           341.62888      131387.31     -807628.78     -295.82813      0.36035193     0.056138412    27.084005      3635.7957    
      2140   4.28           348.81783      133904.87     -807627.68     -297.56724      0.36032141     0.056473221    27.148176      3635.2805    
      2150   4.3            356.58706      135741.71     -807625.24     -300.74837      0.36029075     0.057081805    27.163524      3634.7571    
      2160   4.32           350.53784      138008.62     -807620.46     -304.32118      0.36025994     0.057764861    27.147337      3634.2451    
      2170   4.34           347.57912      138696.52     -807620.53     -303.47686      0.36022899     0.057609546    27.128635      3633.746     
      2180   4.36           362.76874      137903.47     -807624.15     -301.51963      0.36019789     0.057242942    27.109199      3633.2598    
      2190   4.38           352.08709      136035.36     -807623.96     -299.91392      0.36016666     0.056943037    27.092999      3632.7846    
      2200   4.4            345.09598      133509.66     -807625.34     -297.22866      0.36013528     0.056438118    27.075862      3632.3207    
      2210   4.42           352.64244      133024.31     -807628.01     -295.24923      0.36010377     0.05606717     27.078898      3631.8559    
      2220   4.44           362.06541      131213.77     -807630.27     -294.0254       0.36007211     0.055839677    27.08441       3631.3886    
      2230   4.46           352.43723      135323.46     -807623.87     -298.84748      0.3600403      0.056760472    27.11614       3630.9033    
      2240   4.48           365.94369      135605.36     -807623.18     -301.25899      0.36000836     0.057223571    27.119273      3630.4171    
      2250   4.5            356.99975      138512.95     -807619.63     -303.3657       0.35997627     0.057628871    27.097311      3629.9449    
      2260   4.52           368.89222      137967.6      -807623.04     -301.56387      0.35994404     0.057291717    27.057514      3629.4972    
      2270   4.54           352.40936      138842.09     -807619.88     -302.32085      0.35991167     0.057440695    27.033697      3629.0641    
      2280   4.56           352.1673       135197.95     -807623.4      -298.80172      0.35987916     0.056777191    27.027533      3628.6352    
      2290   4.58           358.89166      133707.48     -807627.28     -295.73494      0.35984651     0.056199553    27.035157      3628.2024    
      2300   4.6            345.81799      131884.37     -807626.7      -294.49044      0.35981371     0.055968157    27.062316      3627.7544    
      2310   4.62           365.70453      133257.35     -807628.46     -295.5349       0.35978077     0.056171801    27.083083      3627.295     
      2320   4.64           359.66048      133887.15     -807625.39     -297.83801      0.35974769     0.056614753    27.077311      3626.8398    
      2330   4.66           360.75487      136774.96     -807622.49     -300.93981      0.35971447     0.057209645    27.049453      3626.4012    
      2340   4.68           357.92612      138512.95     -807620.61     -302.4992       0.35968111     0.057511423    27.077516      3625.9472    
      2350   4.7            363.08261      138568.75     -807621.44     -302.52351      0.3596476      0.057521404    27.039221      3625.5157    
      2360   4.72           361.62779      137272.22     -807622.99     -300.89757      0.35961396     0.057217602    27.049243      3625.079     
      2370   4.74           358.55939      134547.57     -807625.27     -298.35033      0.35958017     0.05673856     27.01268       3624.6636    
      2380   4.76           352.8004       133928.41     -807627.06     -295.89749      0.35954624     0.056277404    27.055049      3624.2247    
      2390   4.78           346.33803      132775.42     -807628.18     -294.05503      0.35951216     0.055932282    27.028895      3623.801     
      2400   4.8            349.44788      133380.03     -807626.63     -296.13765      0.35947795     0.05633378     27.035744      3623.3739    
      2410   4.82           360.57892      134198.94     -807626.12     -298.33595      0.35944359     0.056757382    27.036735      3622.9468    
      2420   4.84           364.80105      136437.87     -807624.7      -300.49972      0.35940909     0.05717452     27.060229      3622.5072    
      2430   4.86           357.58771      137188.16     -807623.16     -301.25588      0.35937446     0.057323915    27.062193      3622.0671    
      2440   4.88           358.77667      137408.91     -807622.94     -301.77432      0.35933967     0.057428124    27.08276       3621.6163    
      2450   4.9            349.76759      136053.54     -807623.8      -299.85631      0.35930475     0.05706867     27.113577      3621.1495    
      2460   4.92           350.27305      133882.87     -807626.47     -297.34991      0.35926969     0.056597176    27.058225      3620.7134    
      2470   4.94           330.69403      133715.67     -807625.81     -295.34767      0.35923448     0.056221582    27.040426      3620.2875    
      2480   4.96           351.31376      132666.43     -807629.47     -294.65376      0.35919913     0.056095011    27.049524      3619.8571    
      2490   4.98           346.56653      133306.69     -807627.33     -296.19374      0.35916364     0.056393757    27.043823      3619.4303    
      2500   5              353.71798      134276.11     -807627.5      -297.05726      0.35912801     0.056563778    27.069402      3618.9903    
[...]
     98740   197.48         346.97928      136282.32     -807626.27     -9631.4391      0.36236891     0.056798621    31.240516      43.689546    
     98750   197.5          338.66046      133934.57     -807626.45     -9588.1243      0.36238762     0.056540266    31.218447      43.342469    
     98760   197.52         357.16535      136812.43     -807624.43     -9729.1481      0.36240618     0.057368932    31.251228      42.995394    
     98770   197.54         344.05983      136309.28     -807622.38     -9731.8366      0.36242459     0.057381869    31.251071      42.648323    
     98780   197.56         354.7778       136977.77     -807625.11     -9682.0538      0.36244287     0.057085456    31.209247      42.301264    
     98790   197.58         353.38114      135209.68     -807626.16     -9634.9764      0.362461       0.056805045    31.205139      41.954211    
     98800   197.6          363.20057      135279.71     -807626.57     -9659.3623      0.36247899     0.056945992    31.208193      41.607162    
     98810   197.62         341.09914      134741.05     -807623.27     -9658.616       0.36249683     0.056938789    31.219577      41.260118    
     98820   197.64         349.0616       134743.96     -807626.6      -9578.7027      0.36251453     0.056464932    31.173757      40.913084    
     98830   197.66         353.80662      134779.29     -807626.47     -9595.4303      0.36253209     0.056560799    31.172956      40.566056    
     98840   197.68         356.76342      135616.65     -807623.4      -9700.4409      0.36254951     0.057177043    31.174836      40.219033    
     98850   197.7          350.89329      137832.44     -807620.98     -9742.7595      0.36256678     0.057423744    31.191359      39.872014    
     98860   197.72         362.58144      136226.14     -807624.29     -9685.2154      0.36258391     0.057081883    31.114239      39.525009    
     98870   197.74         364.96769      137488.24     -807624.61     -9678.919       0.3626009      0.057042101    31.183479      39.178       
     98880   197.76         352.37906      135726.86     -807622.8      -9679.0205      0.36261774     0.05704005     31.197612      38.830996    
     98890   197.78         361.46514      134668.75     -807623.92     -9676.802       0.36263445     0.057024349    31.141436      38.484004    
     98900   197.8          357.10383      134038.68     -807626.71     -9565.9354      0.362651       0.056368451    31.134698      38.137017    
     98910   197.82         365.91768      135690.67     -807625.93     -9627.9047      0.36266742     0.056731045    31.161905      37.790033    
     98920   197.84         353.17219      135258.66     -807623.48     -9650.3362      0.36268369     0.056860668    31.200821      37.443049    
     98930   197.86         360.28929      137634.34     -807621.92     -9728.1978      0.36269982     0.057316886    31.152873      37.096076    
     98940   197.88         360.55408      135026.25     -807624.81     -9642.6379      0.36271581     0.056810278    31.119622      36.749112    
     98950   197.9          366.50915      138369.76     -807623.82     -9697.7642      0.36273165     0.057132563    31.137549      36.402152    
     98960   197.92         352.82802      135044.73     -807622.23     -9692.913       0.36274735     0.057101512    31.149586      36.055195    
     98970   197.94         361.78174      137466.05     -807623.46     -9695.8252      0.36276291     0.057116218    31.117823      35.708247    
     98980   197.96         354.53601      134290.2      -807626.07     -9585.3679      0.36277832     0.056463136    31.1129        35.361304    
     98990   197.98         362.79193      136189.36     -807626.25     -9617.5685      0.36279359     0.056650431    31.158839      35.014362    
     99000   198            357.70752      133742.74     -807625.02     -9644.4475      0.36280872     0.056806388    31.149356      34.667426    
     99010   198.02         366.94331      136561.51     -807625.04     -302.78601      0.3628237      0.057067346    31.274662      34.320483    
     99020   198.04         358.93559      135219.93     -807625.9      -301.12112      0.36283855     0.056751234    31.259238      33.973546    
     99030   198.06         352.74799      137267.21     -807622.36     -304.03143      0.36285324     0.057297409    31.282555      33.626613    
     99040   198.08         350.16905      136988.66     -807622.1      -304.28113      0.3628678      0.057342168    31.266754      33.279687    
     99050   198.1          347.9372       136548.92     -807622.49     -303.92861      0.36288221     0.05727346     31.232094      32.932769    
     99060   198.12         342.58212      135664.14     -807624.18     -301.67931      0.36289648     0.056847357    31.162753      32.585864    
     99070   198.14         344.45782      134265.8      -807626.14     -300.35904      0.36291061     0.056596369    31.191836      32.238961    
     99080   198.16         353.82862      134742.77     -807626.09     -301.968        0.36292459     0.05689735     31.212663      31.892062    
     99090   198.18         364.99952      133458.35     -807628.61     -301.29512      0.36293843     0.056768401    31.192971      31.54517     
     99100   198.2          346.02561      136488.86     -807625.86     -301.62468      0.36295213     0.056828351    31.166653      31.198285    
     99110   198.22         347.53099      135525.27     -807625.8      -302.22428      0.36296568     0.056939193    31.25887       30.851397    
     99120   198.24         336.69043      137843.36     -807621.75     -304.96132      0.36297909     0.05745273     31.255165      30.504516    
     99130   198.26         342.17841      137259.42     -807623.6      -304.1202       0.36299236     0.057292174    31.282951      30.157637    
     99140   198.28         331.73758      137163.88     -807622.58     -303.74841      0.36300548     0.057220065    31.260358      29.810765    
     99150   198.3          350.95953      134148.06     -807627.28     -301.80718      0.36301846     0.056852344    31.258174      29.463899    
     99160   198.32         348.62279      134664.39     -807626.94     -301.89519      0.3630313      0.056866911    31.254114      29.117039    
     99170   198.34         350.86051      133849.72     -807627.96     -301.28364      0.36304399     0.056749731    31.309636      28.77018     
     99180   198.36         348.55463      133025.89     -807628.74     -300.14542      0.36305655     0.056533381    31.270237      28.423329    
     99190   198.38         354.83146      134869.67     -807628.53     -301.32562      0.36306895     0.056753737    31.300485      28.076482    
     99200   198.4          345.02238      136189.77     -807624.97     -303.48442      0.36308122     0.057158409    31.322588      27.729638    
     99210   198.42         337.09695      136925.85     -807622.21     -305.17827      0.36309334     0.05747551     31.313854      27.3828      
     99220   198.44         340.17329      136410.81     -807624.21     -303.55303      0.36310532     0.057167536    31.272982      27.035971    
     99230   198.46         344.01686      136675.1      -807624.53     -303.65075      0.36311715     0.057184077    31.244525      26.68915     
     99240   198.48         338.82704      135031.48     -807624.41     -303.06292      0.36312885     0.057071537    31.21627       26.342337    
     99250   198.5          348.75557      135108.34     -807626.38     -302.34671      0.3631404      0.056934852    31.20159       25.99553     
     99260   198.52         344.20344      134423.87     -807627.87     -300.21669      0.3631518      0.056531973    31.265279      25.648723    
     99270   198.54         344.27284      135344.12     -807626.47     -301.51031      0.36316306     0.056773806    31.296729      25.301919    
     99280   198.56         341.80543      134486.45     -807625.01     -302.60839      0.36317418     0.056978829    31.293692      24.955122    
     99290   198.58         341.63534      136882.61     -807623.46     -304.00527      0.36318516     0.05724012     31.275004      24.608331    
     99300   198.6          350.23531      135525.38     -807625.44     -303.17323      0.36319599     0.057081755    31.273925      24.261545    
     99310   198.62         343.73917      136757.31     -807623.12     -304.48361      0.36320668     0.057326787    31.174647      23.914772    
     99320   198.64         344.92133      136760.49     -807623.65     -304.08387      0.36321723     0.057249865    31.206976      23.568002    
     99330   198.66         346.71826      136355.01     -807624.47     -303.43903      0.36322763     0.057126824    31.245091      23.221235    
     99340   198.68         343.68721      134604.13     -807626.32     -301.03315      0.36323789     0.056672281    31.21614       22.874475    
     99350   198.7          349.51026      134354.23     -807627.15     -300.88259      0.36324801     0.05664236     31.20178       22.527722    
     99360   198.72         345.68415      135275.83     -807625.81     -301.60379      0.36325798     0.056776569    31.30696       22.180966    
     99370   198.74         344.52433      135791.98     -807624.31     -302.81624      0.36326781     0.05700327     31.298371      21.834217    
     99380   198.76         353.55864      135821.93     -807626.04     -302.26381      0.3632775      0.05689776     31.239283      21.487477    
     99390   198.78         353.06641      136409.84     -807625.11     -302.93223      0.36328704     0.057022086    31.294869      21.140739    
     99400   198.8          339.82334      137136.07     -807621.01     -305.15277      0.36329644     0.05743858     31.307391      20.794006    
     99410   198.82         351.66585      136759.39     -807623.91     -303.79748      0.3633057      0.057182017    31.291114      20.447279    
     99420   198.84         347.1577       136213.58     -807624.42     -302.44369      0.36331481     0.056925773    31.258645      20.100559    
     99430   198.86         350.56217      135670.23     -807624.85     -302.39615      0.36332378     0.056915421    31.206785      19.753848    
     99440   198.88         363.23495      134602.41     -807626.71     -302.1866       0.36333261     0.056874598    31.313471      19.407136    
     99450   198.9          355.24037      135617.54     -807626.06     -301.59745      0.36334129     0.056762358    31.333233      19.060428    
     99460   198.92         350.93367      135576.08     -807625.84     -301.13713      0.36334983     0.056674391    31.302449      18.713728    
     99470   198.94         357.4002       136545.22     -807624.83     -302.95195      0.36335823     0.057014625    31.273105      18.367035    
     99480   198.96         356.97608      136461.36     -807623.75     -303.94584      0.36336648     0.057200372    31.300697      18.020346    
     99490   198.98         355.95149      136978.92     -807623.19     -304.21172      0.3633746      0.057249131    31.236646      17.673665    
     99500   199            349.00135      136504.43     -807623.43     -302.87543      0.36338256     0.056996408    31.266747      17.326988    
     99510   199.02         352.93239      135713.04     -807623.75     -9697.5704      0.36339039     0.057027857    31.190368      16.980321    
     99520   199.04         354.46626      136069.86     -807623.26     -9714.6228      0.36339807     0.057126928    31.222178      16.633657    
     99530   199.06         352.38202      135478.42     -807624.49     -9661.3203      0.3634056      0.056812303    31.178591      16.287001    
     99540   199.08         358.13287      135475.3      -807624.93     -9663.4428      0.363413       0.056823629    31.189675      15.940349    
     99550   199.1          358.52721      134504.22     -807625.2      -9652.9927      0.36342025     0.056761047    31.16778       15.593704    
     99560   199.12         356.49886      138629.14     -807621.28     -9757.9018      0.36342736     0.057376806    31.154318      15.247064    
     99570   199.14         356.45115      135796.45     -807622.92     -9697.8762      0.36343432     0.05702276     31.153335      14.90043     
     99580   199.16         363.41098      138199.55     -807623.17     -9708.2638      0.36344114     0.057082768    31.195281      14.553799    
     99590   199.18         359.89279      135735.53     -807623.52     -9674.4198      0.36344782     0.056882726    31.206201      14.207172    
     99600   199.2          352.7744       137874.22     -807620.28     -9733.5847      0.36345435     0.057229569    31.21776       13.860551    
     99610   199.22         370.09756      134144.53     -807626.59     -9601.7789      0.36346074     0.056453612    31.217685      13.513934    
     99620   199.24         367.36434      135431.32     -807623.95     -9664.2741      0.36346699     0.056820075    31.15543       13.167326    
     99630   199.26         365.23052      134442.82     -807623.87     -9653.0295      0.3634731      0.05675301     31.190538      12.820721    
     99640   199.28         375.66086      137033.52     -807622.29     -9744.6119      0.36347906     0.057290511    31.121686      12.474124    
     99650   199.3          372.49594      135436.12     -807623.72     -9683.1182      0.36348487     0.056928066    31.133799      12.127532    
     99660   199.32         371.5686       137733.31     -807622.44     -9715.9363      0.36349055     0.057120115    31.223574      11.780941    
     99670   199.34         365.95702      136547.51     -807621.91     -9710.9638      0.36349608     0.057090014    31.214732      11.434357    
     99680   199.36         375.19228      136848.27     -807622.76     -9725.4721      0.36350147     0.057174459    31.244846      11.087776    
     99690   199.38         373.67789      135283.98     -807624.55     -9666.0531      0.36350671     0.056824325    31.191075      10.741202    
     99700   199.4          359.26041      134859.88     -807623.31     -9646.9439      0.36351181     0.056711191    31.161797      10.394635    
     99710   199.42         368.35087      135857.47     -807623.49     -9687.8318      0.36351677     0.056950781    31.095536      10.048075    
     99720   199.44         356.61758      135929.5      -807622.19     -9688.6398      0.36352158     0.056954776    31.081334      9.70152      
     99730   199.46         367.83487      137951.56     -807622.91     -9722.4226      0.36352625     0.057152635    31.0927        9.3549698    
     99740   199.48         357.32945      136729.78     -807623.68     -9665.0081      0.36353078     0.056814419    31.175645      9.0084224    
     99750   199.5          365.47547      137840.6      -807622.24     -9755.5409      0.36353516     0.057345913    31.18526       8.6618799    
     99760   199.52         351.10068      134886.61     -807622.57     -9695.2657      0.3635394      0.056990933    31.181443      8.3153428    
     99770   199.54         362.06911      136411.65     -807624.25     -9699.1055      0.3635435      0.057012862    31.147392      7.9688115    
     99780   199.56         357.86621      134251.47     -807625.59     -9651.2983      0.36354745     0.056731226    31.130584      7.6222858    
     99790   199.58         358.37055      136916.16     -807623.6      -9724.8379      0.36355126     0.0571629      31.192081      7.2757638    
     99800   199.6          364.69357      133687.78     -807626.27     -9680.2977      0.36355493     0.056900517    31.226413      6.9292463    
     99810   199.62         351.50711      136710.35     -807622.77     -9739.0687      0.36355845     0.057245417    31.234486      6.5827339    
     99820   199.64         355.96002      135336.8      -807625.74     -9673.1523      0.36356183     0.056857437    31.22258       6.2362271    
     99830   199.66         352.06464      137760.09     -807623.28     -9738.7386      0.36356507     0.057242434    31.211316      5.8897256    
     99840   199.68         345.33395      135571.64     -807623.33     -9714.5539      0.36356816     0.057099796    31.22083       5.5432293    
     99850   199.7          369.42115      135120.93     -807626.92     -9710.3425      0.36357111     0.057074579    31.257608      5.1967376    
     99860   199.72         351.00871      134787.38     -807626.02     -9662.3695      0.36357392     0.056792169    31.234969      4.8502515    
     99870   199.74         348.65472      135272.4      -807624.14     -9715.1506      0.36357658     0.05710198     31.179576      4.5037715    
     99880   199.76         347.81466      135440.55     -807624.66     -9697.6521      0.3635791      0.056998736    31.143002      4.1572971    
     99890   199.78         345.55496      135822.67     -807625.58     -9663.1013      0.36358148     0.056795289    31.110623      3.8108281    
     99900   199.8          341.78607      135470.87     -807624.53     -9683.7759      0.36358371     0.056916456    31.140414      3.4643639    
     99910   199.82         359.69367      135535.13     -807625.91     -9721.8108      0.3635858      0.057139678    31.154366      3.1179046    
     99920   199.84         346.03914      136607.39     -807623.16     -9751.761       0.36358775     0.057315403    31.216916      2.7714498    
     99930   199.86         360.62266      135409.97     -807627.07     -9693.3511      0.36358955     0.05697182     31.208547      2.4250004    
     99940   199.88         351.3625       136961.51     -807625.91     -9692.2989      0.36359121     0.056965375    31.158149      2.0785565    
     99950   199.9          352.7531       134687.47     -807626.01     -9698.6542      0.36359273     0.05700249     31.134943      1.7321178    
     99960   199.92         334.62536      136515.06     -807622.7      -9724.5974      0.3635941      0.057154752    31.163635      1.385684     
     99970   199.94         342.59475      133594.86     -807627.14     -9622.8275      0.36359533     0.056556424    31.195778      1.0392552    
     99980   199.96         348.6143       136156.89     -807626.13     -9678.3819      0.36359641     0.056882766    31.19917       0.69283164   
     99990   199.98         346.62052      133921.87     -807625.2      -9704.7968      0.36359736     0.057037866    31.227653      0.3464132    
    100000   200            355.4387       137824.03     -807623.22     -9805.1805      0.36359816     0.057627723    31.107602      0            
Loop time of 3464.11 on 32 procs for 100000 steps with 1080 atoms

Performance: 4.988 ns/day, 4.811 hours/ns, 28.867 timesteps/s, 31.177 katom-step/s
62.5% CPU use with 32 MPI tasks x 1 OpenMP threads

MPI task timing breakdown:
Section |  min time  |  avg time  |  max time  |%varavg| %total
---------------------------------------------------------------
Pair    | 2434.3     | 2800.6     | 3032.8     | 257.6 | 80.85
Neigh   | 0.0016595  | 0.0031244  | 0.0071976  |   3.9 |  0.00
Comm    | 356.63     | 589.09     | 955.54     | 561.6 | 17.01
Output  | 2.3847     | 2.391      | 2.3988     |   0.2 |  0.07
Modify  | 65.498     | 65.803     | 66.148     |   1.9 |  1.90
Other   |            | 6.201      |            |       |  0.18

Nlocal:          33.75 ave          39 max          26 min
Histogram: 1 1 0 9 1 2 8 2 5 3
Nghost:        1025.19 ave        1044 max        1012 min
Histogram: 1 5 4 7 6 2 5 0 0 2
Neighs:              0 ave           0 max           0 min
Histogram: 32 0 0 0 0 0 0 0 0 0
FullNghs:      5354.88 ave        6109 max        4102 min
Histogram: 1 1 0 3 7 2 4 4 5 5

Total # of neighbors = 171356
Ave neighs/atom = 158.66296
Neighbor list builds = 4
Dangerous builds = 0

Total wall time: 1:01:20
