
units		metal
atom_style	atomic

read_data ${STRUCTURE}.data
read_data BaTiO3-sc333.data
Reading data file ...
  orthogonal box = (0 0 0) to (11.898253 11.898253 12.912076)
  2 by 4 by 4 MPI processor grid
  reading atoms ...
  135 atoms
  read_data CPU = 0.043 seconds
replicate $L $L $L
replicate 2 $L $L
replicate 2 2 $L
replicate 2 2 2
Replication is creating a 2x2x2 = 8 times larger system...
  orthogonal box = (0 0 0) to (23.796507 23.796507 25.824152)
  2 by 4 by 4 MPI processor grid
  1080 atoms
  replicate CPU = 0.003 seconds

pair_style allegro
pair_coeff	* * ${MODEL}.pth Ba Ti O
pair_coeff	* * BaTiO3-E0.pth Ba Ti O
mass 1 137.3
mass 2 47.9
mass 3 15.9994

timestep 0.002
compute polarization all allegro polarization 3
compute allegro will evaluate the quantity polarization of length 3 (src/compute_allegro.cpp:53)
compute polarizability all allegro polarizability 9
compute allegro will evaluate the quantity polarizability of length 9 (src/compute_allegro.cpp:53)

thermo_style custom pe fmax fnorm spcpu cpuremain

variable efield equal 1e-2*36.36
fix born all addbornforce 0.0 0.0 ${efield}
fix born all addbornforce 0.0 0.0 0.3636

thermo 10
min_style fire
#minimize 0.0 1e-6 100 100
velocity all create ${TEMP} ${SEED} dist gaussian rot yes mom yes
velocity all create 330 ${SEED} dist gaussian rot yes mom yes
velocity all create 330 8547 dist gaussian rot yes mom yes
fix nvt all nvt temp ${TEMP} ${TEMP} $(100*dt)
fix nvt all nvt temp 330 ${TEMP} $(100*dt)
fix nvt all nvt temp 330 330 $(100*dt)
fix nvt all nvt temp 330 330 0.2000000000000000111
run 5000
Neighbor list info ...
  update: every = 1 steps, delay = 0 steps, check = yes
  max neighbors/atom: 2000, page size: 100000
  master list distance cutoff = 8
  ghost atom cutoff = 8
  binsize = 8, bins = 3 3 4
  1 neighbor lists, perpetual/occasional/extra = 1 0 0
  (1) pair allegro/kk, perpetual
      attributes: full, newton on, kokkos_device
      pair build: full/bin/kk/device
      stencil: full/bin/3d
      bin: kk/device
Per MPI rank memory allocation (min/avg/max) = 3.516 | 3.516 | 3.516 Mbytes
    PotEng          Fmax          Fnorm          S/CPU         CPULeft    
-807708.29      1.5952593      37.044719      0              0            
-807644.33      3.4674059      45.760115      2.3217111      2149.2778    
-807633.82      2.3873456      35.800572      25.82131       1168.9173    
-807606.54      2.8111521      37.826008      25.836928      841.83351    
-807602.86      3.8871466      50.154169      25.800056      678.16666    
-807565.33      3.4720376      40.24843       25.727038      579.92043    
-807602.18      2.6893146      38.599323      25.792764      514.21182    
-807646.49      3.2668684      33.256758      25.788128      467.17124    
-807682.84      2.4853789      34.156359      25.795998      431.78659    
-807665.4       3.5024279      34.321121      25.841997      404.1414     
-807651.83      3.2413547      35.121346      25.922647      381.88886    
-807660.24      2.2946301      27.757308      25.8537        363.65783    
-807625.84      3.4201798      31.274501      25.869367      348.39133    
-807583.31      3.7994523      40.496628      25.877006      335.40975    
-807569.9       2.9088652      37.471685      25.903494      324.21377    
-807631.78      2.8296499      34.130308      25.890004      314.46562    
-807652.39      2.9671267      30.700148      25.852607      305.90461    
-807662.43      2.7458764      34.101557      25.892823      298.2882     
-807645.58      3.6812145      44.295439      25.887959      291.47709    
-807679.81      2.9399101      36.587052      25.836784      285.36164    
-807639.21      4.1311731      39.403308      25.799587      279.83243    
-807615.06      2.9735765      38.770447      25.87442       274.76733    
-807560.58      4.3094135      45.75972       25.896597      270.12036    
-807604.07      3.7517846      49.85073       25.842655      265.86061    
-807609.51      3.9007395      39.666688      25.817934      261.93095    
-807638.24      2.6009602      35.919613      25.8666        258.27083    
-807641.33      4.5475262      45.192115      25.901568      254.85301    
-807681.45      3.1601839      37.900833      25.829443      251.67863    
-807660.43      3.1711471      35.098174      25.80772       248.70885    
-807636.56      2.7484         32.16642       25.873649      245.90111    
-807607.91      3.4473918      33.380059      25.921103      243.24371    
-807602.79      3.6617929      42.427332      25.88064       240.74199    
-807592.94      3.1334192      36.401658      25.789363      238.39248    
-807605.47      3.1502635      34.061271      25.907417      236.13685    
-807640.31      3.4217743      31.000134      25.920188      233.9886     
-807670.35      2.9760349      32.799156      25.819596      231.96102    
-807674.75      2.8161541      33.089466      25.772828      230.03365    
-807642.97      5.0857297      39.359193      25.869951      228.17124    
-807647.78      3.3075704      31.600958      25.863086      226.38776    
-807619.91      4.4942813      35.327198      25.864151      224.67573    
-807598.61      4.2370448      43.21448       25.817827      223.03793    
-807565.68      3.9915081      41.412222      25.871666      221.45212    
-807620.7       3.145048       36.171201      25.861428      219.92509    
-807645.54      3.7537601      35.379932      25.807966      218.4596     
-807670.12      2.7063282      35.03836       25.811763      217.04253    
-807639.53      4.9586892      46.752815      25.880771      215.66077    
-807666.06      2.6696702      36.112461      25.804097      214.33362    
-807643.08      3.5268459      37.333047      25.843452      213.04077    
-807622.56      3.3393322      37.974438      25.85271       211.78436    
-807563.95      3.9782966      44.141936      25.891634      210.55809    
-807598.82      4.4284434      44.446817      25.869306      209.36842    
-807619.1       4.3450944      36.199281      25.825203      208.21606    
-807649.64      3.1640841      33.168632      25.858465      207.08884    
-807640.09      4.5104152      41.39588       25.886591      205.98602    
-807669.51      2.5186351      34.967782      25.847389      204.91457    
-807664.26      2.9302215      33.640486      25.772948      203.87706    
-807642.27      3.4325842      30.933684      25.87571       202.85052    
-807601.8       3.9224456      35.117944      25.902429      201.84335    
-807596.88      3.3697741      37.935886      25.921271      200.85546    
-807602.06      3.3645368      39.768889      25.847445      199.89621    
-807613.92      3.6177023      33.246393      25.900466      198.95023    
-807634.53      2.9751851      33.020517      25.890261      198.02371    
-807658.52      4.2430501      35.124216      25.873736      197.11635    
-807672.49      2.75752        36.051412      25.770062      196.23632    
-807645.55      4.0367192      38.817627      25.801385      195.36846    
-807635.39      3.2355851      34.004303      25.854025      194.51009    
-807615.97      3.9461819      35.229504      25.870212      193.66442    
-807602.13      3.7208338      44.88192       25.75264       192.84385    
-807575.26      3.6375533      41.579926      25.824355      192.02916    
-807611.04      3.2528054      37.248332      25.884232      191.22125    
-807639.58      4.3102494      37.318751      25.891871      190.42469    
-807670.33      3.1455176      36.35625       25.802115      189.64781    
-807647.62      5.5741606      42.204348      25.84118       188.87826    
-807652.29      3.53381        36.276825      25.885332      188.11533    
-807641.86      4.6227626      35.274302      25.860675      187.3647     
-807623.47      3.702488       37.707724      25.852518      186.62447    
-807575.22      4.324558       40.178985      25.872002      185.89191    
-807586.09      3.4698199      41.083429      25.889971      185.16686    
-807621.45      3.494704       33.711669      25.883095      184.45106    
-807653.42      2.5270196      32.256263      25.838624      183.74714    
-807648.45      3.6728932      36.618483      25.882857      183.04767    
-807656.21      2.7142888      35.610485      25.757912      182.36563    
-807661.63      2.5706883      33.764286      25.785651      181.68863    
-807643.51      2.9043953      32.205965      25.819758      181.01602    
-807604.01      3.5403679      35.386339      25.875275      180.34608    
-807585.06      3.9521747      39.537285      25.91512       179.67992    
-807600.61      3.9002892      41.186473      25.832415      179.02622    
-807621.2       3.8716201      35.195381      25.842001      178.37797    
-807634.53      3.8049728      35.247794      25.90129       177.73151    
-807648.85      4.5850673      38.291306      25.895931      177.09127    
-807668.11      3.1901976      36.801058      25.808882      176.46261    
-807650.68      3.5377884      37.425992      25.78861       175.84062    
-807632.7       3.3355281      34.858226      25.868501      175.21841    
-807607.26      3.3442577      36.516354      25.900981      174.59914    
-807602.71      3.9545608      43.189725      25.781408      173.99257    
-807590.89      3.7269784      39.407875      25.822221      173.388      
-807611.36      3.0252516      36.850599      25.874887      172.78463    
-807634.84      3.7394859      37.181316      25.83503       172.18821    
-807666.59      2.7916539      35.606405      25.822557      171.59683    
-807654.8       3.6290633      38.254676      25.805072      171.01064    
-807647.95      3.6498562      35.683619      25.860656      170.42509    
-807635.15      3.9983786      35.085596      25.838773      169.84477    
-807626.07      3.9747864      36.012996      25.881163      169.26577    
-807589.54      3.5199262      39.153659      25.81172       168.69451    
-807587.6       3.5302865      39.448381      25.909441      168.12123    
-807619.86      3.3854844      34.348412      25.918681      167.55099    
-807652.82      3.0511061      33.211986      25.81703       166.98988    
-807655.89      4.0352976      34.763719      25.780976      166.43401    
-807649.51      3.9556925      37.594706      25.841777      165.87794    
-807656.49      3.4418391      34.228337      25.817207      165.32629    
-807641.51      3.5559722      33.729653      25.848448      164.77597    
-807613.19      3.0500254      35.639372      25.850571      164.22849    
-807580.07      3.135492       39.824268      25.872352      163.68274    
-807603.22      3.2592249      39.210917      25.792749      163.1439     
-807624.79      3.3578301      35.521468      25.790212      162.60784    
-807645.14      3.2802083      34.094009      25.855305      162.07109    
-807644.25      4.1993714      38.979673      25.822291      161.53856    
-807663.57      2.5863587      35.977172      25.833244      161.00798    
-807652.34      3.6699772      35.783367      25.773945      160.48271    
-807633.89      3.0959503      33.363959      25.80717       159.95815    
-807598.94      3.6985993      36.740661      25.896779      159.43163    
-807601.21      3.4337653      40.242371      25.830061      158.91055    
-807601.97      3.3840769      36.946925      25.813772      158.39243    
-807621.82      2.9719064      33.91452       25.716017      157.88095    
-807634.98      3.1817438      34.818332      25.834321      157.36604    
-807659.99      2.6045575      34.348906      25.827778      156.85347    
-807659.72      3.8029053      35.461865      25.740727      156.34678    
-807645.24      3.339861       34.877402      25.868169      155.83633    
-807624.76      3.4492789      34.969768      25.893117      155.32674    
-807616.66      3.5692982      36.56946       25.889048      154.81923    
-807598.05      3.339269       39.645276      25.857541      154.31492    
-807595.15      2.8891179      37.955902      25.849479      153.81275    
-807618.62      2.824346       34.662651      25.842042      153.31264    
-807649.2       2.914615       33.777054      25.825796      152.8149     
-807658.37      3.6125868      35.555462      25.828527      152.3187     
-807647.96      4.0865279      37.211481      25.851676      151.82318    
-807645.77      3.2967438      34.856638      25.819138      151.33056    
-807635.97      3.3681511      33.128714      25.852091      150.83817    
-807613.41      4.0522904      37.18972       25.836124      150.34794    
-807583.47      3.5151671      39.83906       25.838553      149.85909    
-807599.45      3.5405719      38.427099      25.830657      149.37201    
-807628.53      3.6196201      34.818297      25.837266      148.88609    
-807649.63      3.1857467      34.213837      25.878879      148.4        
-807644.96      4.0499544      38.262384      25.864387      147.91584    
-807653.53      3.3635668      36.443221      25.826132      147.43445    
-807651.17      3.4605318      35.583246      25.765396      146.95659    
-807632.8       3.2803502      34.766874      25.817741      146.47806    
-807595.99      3.3013722      38.316454      25.884236      145.99837    
-807591.43      3.8545812      39.96694       25.866373      145.52058    
-807608.25      3.3788503      38.022832      25.820264      145.04565    
-807630.22      3.065179       33.928785      25.771415      144.57359    
-807635.05      4.5854867      37.428874      25.84979       144.09993    
-807653.06      3.892595       36.944039      25.930329      143.62466    
-807656.81      2.9890721      36.427597      25.827437      143.15404    
-807645.91      4.0709537      35.085163      25.823468      142.68465    
-807618.83      3.8432032      36.292178      25.925132      142.21293    
-807604.66      4.213895       37.844255      25.893668      141.74335    
-807598.62      3.9398579      40.20403       25.847975      141.27632    
-807607         4.3868317      36.647536      25.821475      140.81117    
-807619.14      3.2870636      34.878452      25.905427      140.3443     
-807645.52      4.2871125      33.777737      25.887493      139.87902    
-807658.16      3.3621433      35.311332      25.855565      139.41571    
-807651.74      2.9933273      35.479481      25.861865      138.95316    
-807637.95      3.607123       34.519631      25.909646      138.49007    
-807627.99      2.9300297      33.195284      25.903665      138.02809    
-807613.49      3.3773685      37.122775      25.861005      137.56833    
-807592.96      3.4389792      38.926076      25.855878      137.10961    
-807601.07      2.9576191      37.541479      25.817191      136.6529     
-807627.36      3.4346847      35.16042       25.845498      136.19618    
-807651.76      3.0352074      34.625529      25.79154       135.74188    
-807650.63      3.2986409      35.813717      25.838124      135.28699    
-807647.23      3.3646791      35.682024      25.868079      134.83204    
-807645.22      3.5242932      33.532521      25.911723      134.37665    
-807635.08      2.9385423      33.249329      25.885757      133.92278    
-807601.8       3.2578928      36.26376       25.870406      133.47013    
-807591.58      3.2369322      38.644888      25.872402      133.01817    
-807611.26      3.0843681      35.711927      25.824991      132.56827    
-807636.04      3.9770058      33.492042      25.857904      132.11817    
-807640.9       3.6543889      35.574136      25.886725      131.668      
-807649.69      3.9946319      35.572957      25.906711      131.21802    
-807654.99      2.957902       34.578536      25.911751      130.76861    
-807647.36      4.4428996      33.315629      25.863378      130.32118    
-807620.16      3.2408606      34.055039      25.909787      129.8732     
-807601.11      3.2104303      36.048243      25.859758      129.4272     
-807602.43      3.1179267      37.630306      25.843109      128.98226    
-807615.44      3.5229863      35.156383      25.82154       128.53851    
-807625.84      3.1613777      33.969546      25.903093      128.0933     
-807641.58      4.195233       34.47167       25.883716      127.64921    
-807658.07      2.9236517      34.415827      25.850943      127.20655    
-807652.83      2.907812       34.184158      25.848055      126.76455    
-807637.66      3.7251979      33.651318      25.847984      126.32313    
-807619.24      3.335585       34.412875      25.865312      125.88186    
-807610.91      2.9864448      36.593084      25.807601      125.44255    
-807602.68      3.6218891      36.992124      25.802648      125.0039     
-807609.58      3.7898617      35.853342      25.852535      124.56459    
-807626.93      3.6469311      34.316775      25.858226      124.12569    
-807649.83      3.152477       34.316825      25.859693      123.68728    
-807651.67      3.018045       35.991341      25.849832      123.24963    
-807644.41      3.4879111      35.466008      25.867504      122.81209    
-807634.88      3.4256749      34.971032      25.899424      122.37434    
-807628.79      2.7860781      33.715355      25.879922      121.93754    
-807605.84      3.2931925      37.219553      25.859328      121.5017     
-807596.82      2.9305426      37.873995      25.86136       121.0663     
-807610.13      3.8441298      36.74454       25.91859       120.63014    
-807635.87      2.9638996      34.660642      25.870131      120.19551    
-807643.72      4.0941999      36.015734      25.909604      119.76051    
-807644.58      3.4597903      36.701484      25.843431      119.32739    
-807644.19      3.7107923      35.929366      25.854916      118.89448    
-807641.94      4.3748644      34.431571      25.84268       118.46227    
-807621.95      3.8346177      35.406791      25.7964        118.03145    
-807598.08      3.7533103      38.860316      25.787252      117.60124    
-807598.51      3.96195        38.325659      25.817913      117.1708     
-807619.39      4.1589405      36.230709      25.806792      116.74099    
-807631.84      2.8614969      34.790232      25.846048      116.31079    
-807638.97      3.7998095      35.852764      25.865808      115.8806     
-807647.58      3.3549743      36.618613      25.893045      115.45027    
-807650.02      4.670488       35.417885      25.815874      115.02187    
-807636.98      3.5919371      34.213742      25.83852       114.59341    
-807612.68      5.1620199      35.692277      25.88439       114.16443    
-807603.24      3.1553201      37.537152      25.896159      113.73563    
-807606.72      4.3737632      38.1529        25.785534      113.30931    
-807616.94      2.9365611      35.48007       25.75558       112.88392    
-807625.91      3.9233997      35.756333      25.789751      112.45822    
-807647.96      3.2115125      33.993767      25.852936      112.03168    
-807652.63      3.681058       35.171901      25.833201      111.60586    
-807645.83      3.8861638      35.226163      25.798259      111.18102    
-807628.62      4.0081499      34.639967      25.891107      110.75483    
-807620.2       3.3825613      34.952524      25.89164       110.32898    
-807608.83      3.9074426      36.748926      25.859352      109.90405    
-807606.27      3.2428545      37.202474      25.862112      109.47941    
-807612.89      3.8360493      35.14695       25.917905      109.05412    
-807638.19      2.928542       33.539243      25.899124      108.6295     
-807648.53      3.2097015      34.836692      25.905769      108.20509    
-807647.1       4.3670464      35.987125      25.862701      107.78176    
-807639.32      4.0208675      35.589418      25.909655      107.35794    
-807634.92      3.1479399      34.046273      25.923353      106.93421    
-807620.79      3.342105       35.564822      25.865317      106.51177    
-807605.06      3.3307127      36.638511      25.843585      106.08999    
-807604.22      2.7620908      35.997254      25.892802      105.6677     
-807623.68      3.5785545      34.893144      25.894689      105.24568    
-807639.33      2.8782825      33.849777      25.852568      104.82464    
-807643.68      2.4444557      34.860168      25.891069      104.40326    
-807645.55      3.7668456      35.130688      25.926418      103.98162    
-807643.94      4.6776178      34.620631      25.900338      103.56068    
-807634.17      2.7684675      34.02877       25.87966       103.14035    
-807613.54      3.1371529      35.778996      25.919111      102.71968    
-807602.85      3.783722       37.702079      25.856357      102.30027    
-807611.07      2.8622514      36.648641      25.828178      101.88155    
-807627.16      2.7849928      34.840447      25.826804      101.46311    
-807634.83      3.0221482      34.479147      25.902653      101.04377    
-807643.28      3.0215054      35.467264      25.921613      100.62442    
-807649.57      3.7311565      35.210337      25.878183      100.20598    
-807642.94      3.6776278      35.268394      25.813916      99.788738    
-807623.2       4.199542       35.964996      25.880975      99.370754    
-807612.28      3.1322398      36.098469      25.877018      98.953075    
-807608.32      3.6848597      36.712319      25.826091      98.536374    
-807613.68      3.6116558      36.077663      25.824717      98.119923    
-807620.36      3.4871865      35.063713      25.909483      97.702501    
-807637.96      2.8383018      34.103993      25.924645      97.285112    
-807647.12      3.178119       35.846535      25.877369      96.868622    
-807646.35      3.6134727      35.706501      25.865047      96.452534    
-807633.94      3.206849       35.659661      25.896371      96.036244    
-807626.86      3.9073121      35.710129      25.928255      95.619752    
-807615.76      3.3146108      36.915013      25.867486      95.20431     
-807605.99      3.5631006      38.284982      25.882781      94.788884    
-807608.43      3.1845028      36.892643      25.922166      94.373156    
-807625.29      3.0070446      35.389726      25.925325      93.957612    
-807641.23      3.5937206      34.777437      25.865603      93.543068    
-807646.06      3.2467218      35.132353      25.906862      93.1282      
-807640.26      3.9843936      36.003941      25.918394      92.713399    
-807637.36      3.1214179      34.838786      25.863117      92.299516    
-807629.98      3.2116356      34.528754      25.845662      91.886053    
-807611.72      2.7654283      36.020806      25.857167      91.472642    
-807603.57      2.9686722      37.970393      25.860347      91.059387    
-807614.28      3.1809271      36.760863      25.860628      90.646322    
-807632         2.8928724      34.548956      25.870052      90.233333    
-807637.37      3.3654572      35.434035      25.903928      89.820126    
-807643.15      3.6700631      34.91157       25.919933      89.406924    
-807644.39      3.2842745      35.536796      25.876303      88.994438    
-807641.2       3.1214056      34.300811      25.84904       88.582461    
-807623.44      3.2111639      34.670862      25.860814      88.170525    
-807609.88      3.5004585      36.139974      25.866893      87.758698    
-807607.6       3.9037075      37.314023      25.893828      87.346739    
-807618.48      3.39997        36.45668       25.858129      86.935371    
-807627.61      3.328183       35.126323      25.884218      86.523881    
-807638.16      3.6324311      35.228256      25.877991      86.112636    
-807647.87      3.1023807      35.338884      25.888074      85.701453    
-807647.18      3.0252238      34.931019      25.87187       85.290623    
-807634.95      3.7792219      34.719306      25.858531      84.880109    
-807621.64      3.1077581      34.993154      25.916062      84.469132    
-807613.59      2.9736362      35.338577      25.919318      84.058293    
-807610.31      3.4841488      37.400487      25.92494       83.647567    
-807614.81      3.0198493      35.493353      25.927687      83.236982    
-807630.27      3.3676782      34.958749      25.934454      82.826497    
-807643.71      3.1992382      34.877492      25.913567      82.416398    
-807649.41      3.5367059      35.410096      25.917798      82.00642     
-807642.08      3.2845816      35.31578       25.888814      81.596903    
-807633.83      3.2867449      35.141154      25.835188      81.18809     
-807624.54      2.8919588      34.89          25.859353      80.779178    
-807612.99      3.6342307      36.023095      25.863799      80.370369    
-807608.05      3.1153686      36.806392      25.896399      79.961385    
-807616.32      4.7721824      35.605998      25.888654      79.552628    
-807634.9       3.4168949      34.874911      25.856648      79.144333    
-807642.75      4.70105        35.746         25.860636      78.736142    
-807643.28      3.770585       36.630599      25.868523      78.328017    
-807639.52      3.2159675      36.323719      25.88083       77.919915    
-807637.7       2.8793767      35.209764      25.84394       77.512305    
-807621.35      3.0956251      36.307583      25.84234       77.104844    
-807606.3       3.2857976      38.270193      25.859464      76.697357    
-807608.21      4.0420692      37.315854      25.912033      76.28952     
-807622.27      3.2968514      36.156033      25.912614      75.881819    
-807633.23      3.0506769      34.78925       25.856032      75.474771    
-807639.17      3.6734696      35.681991      25.886192      75.067581    
-807645.44      3.5282742      35.116422      25.85726       74.660783    
-807643.38      2.5684438      35.286537      25.867855      74.254019    
-807633.93      3.0699019      34.882019      25.845442      73.847581    
-807616.85      2.9196081      35.581983      25.864944      73.441096    
-807609.75      3.2396434      37.091122      25.899851      73.034435    
-807611.09      3.1552614      37.157481      25.864313      72.628207    
-807622.6       3.6425904      36.008344      25.860146      72.222138    
-807629.42      3.4778931      36.090244      25.922654      71.815665    
-807641.54      3.133652       35.851954      25.882556      71.409654    
-807645.11      3.7140582      36.141911      25.845036      71.004076    
-807640.28      3.0457327      35.762912      25.845297      70.598611    
-807627.73      3.5457305      35.990756      25.86343       70.193113    
-807618.49      3.6562207      36.401526      25.86864       69.787689    
-807611.75      3.3364007      36.605755      25.900858      69.382124    
-807610.45      3.4058651      37.439961      25.864668      68.976964    
-807619.77      3.8214139      35.684234      25.881723      68.571783    
-807634.76      2.8996113      34.84152       25.899396      68.16658     
-807643.35      2.9248857      35.224781      25.855406      67.761831    
-807642.9       3.2104228      34.937759      25.85853       67.357167    
-807638.16      2.9744915      34.750043      25.854668      66.952639    
-807629.53      3.4493071      34.882909      25.830433      66.548401    
-807619.57      3.2145854      35.422033      25.840101      66.144193    
-807609.75      3.0872563      36.600384      25.86229       65.739924    
-807611.14      3.6397589      36.705115      25.89534       65.335519    
-807623.57      4.1959955      35.778251      25.872365      64.931389    
-807636.39      4.3956103      35.2902        25.853506      64.527497    
-807641.56      3.2965819      35.815841      25.817001      64.123966    
-807641.9       5.0815523      35.957331      25.849847      63.720299    
-807638.11      4.1655293      36.342735      25.832423      63.316852    
-807629.36      3.3567034      35.908878      25.866584      62.913265    
-807615.45      2.8506986      36.561548      25.869364      62.509758    
-807608.37      3.0220337      38.122413      25.883628      62.106252    
-807614.72      2.9707559      36.176304      25.85557       61.703034    
-807627.08      4.641122       35.031421      25.837905      61.300029    
-807633.6       3.204199       35.604359      25.830032      60.897169    
-807641.27      3.6586767      35.358255      25.83963       60.494335    
-807642.26      3.0563381      35.062516      25.839672      60.091592    
-807637.48      2.8844522      35.188472      25.871851      59.688733    
-807624.66      2.9694138      35.197859      25.888921      59.285859    
-807617.17      3.0032822      35.992212      25.922241      58.88287     
-807608.98      3.4803558      37.558193      25.886557      58.480201    
-807617.63      3.5090414      35.620534      25.875498      58.077692    
-807626.73      3.4259648      35.364274      25.957496      57.674774    
-807637.51      2.9008682      34.349575      25.871599      57.272474    
-807641.95      2.9302494      35.31949       25.861968      56.870319    
-807643.92      3.3532276      34.257773      25.851107      56.468315    
-807636.1       3.3836701      33.683587      25.879211      56.066231    
-807624.61      3.451166       34.989832      25.912539      55.664041    
-807616.73      3.680526       35.344337      25.869836      55.262186    
-807612.13      3.3377249      36.842078      25.863266      54.860453    
-807615.82      3.0518341      35.515027      25.839877      54.458935    
-807627.64      3.048364       35.251278      25.85106       54.057435    
-807641.07      3.2617648      34.254042      25.839999      53.656076    
-807642.02      2.7655322      34.683006      25.860165      53.254685    
-807642.05      3.4475814      35.11024       25.825103      52.853565    
-807635.54      3.5119631      34.591134      25.833211      52.452476    
-807626.28      3.7744145      34.68939       25.782952      52.051731    
-807616.36      3.4335778      35.432977      25.844523      51.650731    
-807612.9       3.6207572      36.23888       25.865028      51.249701    
-807618.76      2.9524628      34.774409      25.854799      50.8488      
-807631.78      3.4576776      34.346606      25.869364      50.447901    
-807637.91      2.8646286      34.198777      25.877827      50.047036    
-807641.66      3.922889       34.948317      25.856345      49.646355    
-807641.89      3.8113322      34.444917      25.858736      49.245737    
-807635.31      2.9801428      34.117202      25.862561      48.845173    
-807624.42      2.906875       34.889241      25.849926      48.444745    
-807616.78      3.346755       35.12524       25.866074      48.04431     
-807612.27      3.0468244      35.731944      25.897185      47.643802    
-807620.86      3.1074602      34.791305      25.921908      47.243254    
-807629.07      2.5965346      34.346023      25.888233      46.842939    
-807637.89      3.0158139      34.814947      25.920509      46.44255     
-807641.46      3.2962293      35.112269      25.857264      46.042522    
-807639.59      3.1142569      35.467883      25.846692      45.64261     
-807632.89      3.6427433      35.222496      25.853613      45.242735    
-807622.46      3.3163878      34.885428      25.868598      44.842862    
-807615.19      2.929322       35.766892      25.865158      44.443073    
-807614.28      3.8878368      36.390356      25.867229      44.043342    
-807620.21      3.6305084      35.339592      25.889244      43.643587    
-807629.23      3.0442309      34.807097      25.883408      43.243924    
-807639.38      3.4986479      34.404813      25.863603      42.844411    
-807641         3.1452834      35.070901      25.854673      42.445       
-807638.24      3.0028101      34.71931       25.841267      42.045707    
-807630.51      3.2837055      34.984605      25.866696      41.646375    
-807624.16      4.1050601      35.425915      25.875433      41.247073    
-807610.99      3.4133311      37.106621      25.857017      40.847908    
-807612.14      3.1194918      37.619577      25.853889      40.448816    
-807620.8       4.1149255      36.365318      25.893401      40.049637    
-807629.38      3.2454274      36.082548      25.886295      39.65055     
-807637.46      4.026789       36.313168      25.857022      39.251634    
-807640.98      2.709505       35.603638      25.851784      38.852798    
-807636.25      3.2271345      36.686928      25.835742      38.454079    
-807631.46      3.3399893      35.315486      25.861888      38.055325    
-807620.57      2.5381386      35.447936      25.877509      37.656576    
-807613.58      3.0850634      36.2272        25.879974      37.257879    
-807614.09      3.807698       35.723423      25.884924      36.859225    
-807621.51      2.8275939      35.206533      25.92425       36.4605      
-807631.55      3.1053726      35.134952      25.875591      36.062       
-807637.42      3.4370639      36.070378      25.896876      35.663488    
-807639.48      2.8313168      34.910729      25.861043      35.265153    
-807638.5       3.8278572      35.556407      25.862911      34.866868    
-807629.02      3.51808        35.322765      25.858133      34.468655    
-807619.74      2.8711515      35.767053      25.866116      34.070473    
-807613.54      3.2017646      36.690947      25.870201      33.672333    
-807615.11      2.8461735      36.481568      25.906351      33.274141    
-807623.22      2.6402249      35.553627      25.820963      32.876261    
-807631.74      3.3202646      35.321691      25.888195      32.478234    
-807637.63      4.1255456      36.029756      25.867116      32.080325    
-807640.98      2.6349872      35.532418      25.82263       31.682596    
-807637.27      3.9480031      35.71858       25.842447      31.284861    
-807628.36      3.4286736      36.186968      25.837854      30.88719     
-807619.51      3.8232082      36.413424      25.832288      30.489584    
-807615.9       3.5605863      36.426341      25.838693      30.092011    
-807616.7       3.5103653      36.402745      25.858922      29.694434    
-807625.12      3.1942907      34.566912      25.872884      29.296872    
-807633.38      4.2606294      35.423943      25.883543      28.899334    
-807640.44      3.6145417      35.030696      25.820982      28.502006    
-807641.5       3.6141884      34.77687       25.854846      28.104641    
-807635.14      4.1637635      34.686371      25.862154      27.707308    
-807630.23      2.9880263      34.302521      25.875493      27.309992    
-807620.57      3.4946331      36.004495      25.8801        26.912715    
-807616.27      2.6826547      35.899847      25.91791       26.515402    
-807617.9       4.0412257      36.074253      25.883417      26.118219    
-807626.68      2.9538332      35.14516       25.869051      25.721119    
-807634.92      3.4609314      34.643098      25.886922      25.324027    
-807639.74      3.2684421      34.99847       25.894417      24.926969    
-807637.45      3.5372565      35.531152      25.867135      24.530018    
-807636.37      3.5194198      34.462844      25.863505      24.133122    
-807628.71      3.159613       34.456094      25.898441      23.736202    
-807619.88      3.2508491      34.660274      25.858423      23.33941     
-807613.92      3.469334       36.423421      25.908399      22.942566    
-807619.95      2.9761719      34.676202      25.920734      22.545747    
-807627.29      2.5949382      35.082134      25.859978      22.149093    
-807634.25      3.2723919      35.385944      25.856443      21.75249     
-807638.48      3.1278012      35.854778      25.860604      21.355923    
-807637.53      3.5610423      36.290625      25.875395      20.959374    
-807635.76      3.660513       34.576526      25.907237      20.562816    
-807623.72      3.4090977      36.007539      25.837303      20.166422    
-807617.48      3.7568856      36.585339      25.853319      19.770044    
-807615.96      3.4859687      36.484683      25.889679      19.37365     
-807619.39      3.439127       35.81936       25.853613      18.977357    
-807627.42      3.2779104      35.511303      25.878458      18.581068    
-807634.87      3.2833357      35.352324      25.863416      18.184845    
-807639.27      2.720371       35.288011      25.84422       17.788693    
-807637.97      3.6507226      35.48444       25.87          17.392544    
-807631.82      3.6677029      34.605211      25.880994      16.996421    
-807623.49      2.8645088      35.321415      25.907832      16.600304    
-807619.52      2.5904205      34.91665       25.852171      16.204306    
-807615.83      3.0650895      36.035727      25.852997      15.808346    
-807620.48      2.8631168      35.486325      25.857213      15.412421    
-807628.93      3.63061        35.340301      25.92432       15.016453    
-807636.18      3.0076655      34.949688      25.906997      14.62055     
-807637         4.6071899      35.641376      25.919027      14.224676    
-807637.53      3.1648169      35.189464      25.842764      13.828931    
-807631.48      4.0695971      35.263266      25.904823      13.433156    
-807624.52      3.2811431      35.728521      25.920373      13.037406    
-807616.7       4.9173829      36.979998      25.883155      12.641737    
-807616.7       3.4474199      36.309791      25.903867      12.246087    
-807621.09      4.3237707      36.768852      25.928832      11.850454    
-807628.89      2.9346148      35.90027       25.910026      11.454881    
-807636.44      4.1602422      35.481631      25.916226      11.059343    
-807636.61      3.3994998      35.36981       25.901027      10.663859    
-807636.47      3.3602276      34.789215      25.843576      10.268462    
-807630.19      3.2608404      35.412242      25.903942      9.8730525    
-807625.24      3.0528786      34.973035      25.837742      9.4777325    
-807617.25      3.3782132      36.58307       25.867102      9.0824261    
-807618.23      2.6727318      35.716133      25.857568      8.6871628    
-807622.18      3.348157       36.029834      25.823417      8.2919574    
-807632.2       3.1890824      35.878319      25.855584      7.8967651    
-807633.79      4.1142297      36.706195      25.863355      7.5016033    
-807637.42      3.2524869      35.504479      25.761688      7.1065338    
-807633.78      3.6286899      35.573269      25.820842      6.7114616    
-807631.7       2.6379296      34.828667      25.823916      6.31642      
-807621.42      3.115931       36.280042      25.796926      5.9214232    
-807618.34      3.5081902      36.735919      25.846669      5.5264351    
-807617.69      2.8828359      36.162723      25.83404       5.1314853    
-807624.77      3.1254586      35.787585      25.831025      4.7365688    
-807631.34      3.8102804      35.841736      25.862187      4.3416737    
-807635.6       3.8966687      35.676961      25.857942      3.9468134    
-807636.2       3.5208961      35.905477      25.861678      3.5519853    
-807635.37      3.3635693      35.916375      25.844266      3.1571945    
-807629.14      3.827345       35.424902      25.805536      2.7624439    
-807621.85      3.1673915      35.59671       25.858899      2.3677128    
-807618.5       3.3476614      36.063366      25.899415      1.9730081    
-807620.38      4.5269251      35.399627      25.895008      1.5783385    
-807625.32      3.3012937      35.462977      25.866663      1.1837057    
-807631.63      3.2432198      34.853709      25.847224      0.78910627   
-807636.07      3.3100653      35.530865      25.84401       0.39453787   
-807635.03      3.3095331      34.860309      25.815791      0            
Loop time of 197.262 on 32 procs for 5000 steps with 1080 atoms

Performance: 4.380 ns/day, 5.479 hours/ns, 25.347 timesteps/s, 27.375 katom-step/s
67.1% CPU use with 32 MPI tasks x 1 OpenMP threads

MPI task timing breakdown:
Section |  min time  |  avg time  |  max time  |%varavg| %total
---------------------------------------------------------------
Pair    | 101.2      | 145        | 192.86     | 314.6 | 73.51
Neigh   | 0          | 0          | 0          |   0.0 |  0.00
Comm    | 2.0646     | 49.909     | 93.716     | 536.2 | 25.30
Output  | 0.030003   | 0.03092    | 0.03282    |   0.3 |  0.02
Modify  | 1.9825     | 2.0031     | 2.0219     |   0.9 |  1.02
Other   |            | 0.3206     |            |       |  0.16

Nlocal:          33.75 ave          48 max          21 min
Histogram: 8 8 0 0 0 0 0 8 0 8
Nghost:        1106.25 ave        1119 max        1092 min
Histogram: 8 0 8 0 0 0 0 0 8 8
Neighs:              0 ave           0 max           0 min
Histogram: 32 0 0 0 0 0 0 0 0 0
FullNghs:       5494.5 ave        7896 max        3378 min
Histogram: 8 8 0 0 0 0 0 8 0 8

Total # of neighbors = 175824
Ave neighs/atom = 162.8
Neighbor list builds = 0
Dangerous builds = 0

reset_timestep 0


variable interval equal 1000
thermo 10

variable nintervals equal $(v_PERIOD/v_interval)
variable nintervals equal 100
variable efield equal 1e-2*36.36*cos((step/${PERIOD})*2*3.14)
variable efield equal 1e-2*36.36*cos((step/100000)*2*3.14)
fix born all addbornforce 0.0 0.0 v_efield

variable Px equal f_born[1]+c_polarization[1]
variable Py equal f_born[2]+c_polarization[2]
variable Pz equal (f_born[3]+c_polarization[3])/vol
variable pe equal pe

fix aveP all ave/time 1 $(v_interval/2) ${interval} v_efield v_Pz v_pe f_born file Pz.${MODEL}.${STRUCTURE}.${TEMP}.$L.${ITER}
fix aveP all ave/time 1 500 ${interval} v_efield v_Pz v_pe f_born file Pz.${MODEL}.${STRUCTURE}.${TEMP}.$L.${ITER}
fix aveP all ave/time 1 500 1000 v_efield v_Pz v_pe f_born file Pz.${MODEL}.${STRUCTURE}.${TEMP}.$L.${ITER}
fix aveP all ave/time 1 500 1000 v_efield v_Pz v_pe f_born file Pz.BaTiO3-E0.${STRUCTURE}.${TEMP}.$L.${ITER}
fix aveP all ave/time 1 500 1000 v_efield v_Pz v_pe f_born file Pz.BaTiO3-E0.BaTiO3-sc333.${TEMP}.$L.${ITER}
fix aveP all ave/time 1 500 1000 v_efield v_Pz v_pe f_born file Pz.BaTiO3-E0.BaTiO3-sc333.330.$L.${ITER}
fix aveP all ave/time 1 500 1000 v_efield v_Pz v_pe f_born file Pz.BaTiO3-E0.BaTiO3-sc333.330.2.${ITER}
fix aveP all ave/time 1 500 1000 v_efield v_Pz v_pe f_born file Pz.BaTiO3-E0.BaTiO3-sc333.330.2.0

thermo_style custom step time temp press pe f_born v_efield v_Pz spcpu cpuremain

# dump 4a all custom 1000 dump.hyst.${MODEL}.${STRUCTURE}.${TEMP}.$L.${ITER}.bin id type xu yu zu fx fy fz
# dump_modify 4a sort id

fix nvt all nvt temp ${TEMP} ${TEMP} $(100*dt)
fix nvt all nvt temp 330 ${TEMP} $(100*dt)
fix nvt all nvt temp 330 330 $(100*dt)
fix nvt all nvt temp 330 330 0.2000000000000000111

run $(v_PERIOD)
run 100000
WARNING: non-constant efield is experimental, strongly distrust scalar/vector output (src/fix_addbornforce.cpp:193)
Per MPI rank memory allocation (min/avg/max) = 3.516 | 3.516 | 3.516 Mbytes
   Step          Time           Temp          Press          PotEng         f_born        v_efield         v_Pz          S/CPU         CPULeft    
         0   0              311.87946      128974.64     -807635.03     -294.7515       0.3636         0.05543444     0              0            
        10   0.02           330.10073      128388.13     -807635.98     -296.42856      0.36359993     0.055749859    28.201511      3545.5784    
        20   0.04           330.9284       137087.45     -807626.67     -305.77547      0.36359971     0.057507784    28.217773      3544.1879    
        30   0.06           326.07476      138975.88     -807622.89     -308.99824      0.36359935     0.058113953    28.305353      3539.8343    
        40   0.08           326.37951      143568.1      -807618.55     -313.18388      0.36359885     0.058901236    28.323097      3536.9314    
        50   0.1            328.55994      139087.62     -807622.73     -309.37836      0.36359821     0.058185626    28.27049       3536.3589    
        60   0.12           333.81488      137375.69     -807626.02     -306.62814      0.36359742     0.057668511    28.277263      3535.7188    
        70   0.14           318.1049       129709.96     -807632.55     -297.89751      0.36359649     0.056026657    28.400213      3532.9752    
        80   0.16           308.75615      129654.42     -807634.1      -294.83318      0.36359541     0.055450502    28.396704      3530.8836    
        90   0.18           322.37136      127043.55     -807636.88     -293.89149      0.36359419     0.05527358     28.323349      3530.1912    
       100   0.2            328.62304      132038.05     -807631.29     -300.12901      0.36359283     0.056446912    28.252484      3530.4514    
       110   0.22           329.67035      135439.68     -807626.45     -305.01065      0.36359132     0.057365266    28.292819      3530.1416    
       120   0.24           329.35685      141441.95     -807620.02     -311.15516      0.36358968     0.058521168    28.347893      3529.253     
       130   0.26           331.99372      142040.94     -807618.79     -312.5757       0.36358788     0.058788629    28.281966      3529.0786    
       140   0.28           325.96295      139895.35     -807619.27     -311.01927      0.36358595     0.058496209    28.285145      3528.8502    
       150   0.3            337.59416      136000.44     -807626.83     -304.76239      0.36358387     0.05731975     28.339567      3528.1532    
       160   0.32           320.97498      130568.87     -807631        -298.01869      0.36358165     0.056051737    28.355208      3527.3778    
       170   0.34           323.40015      128190.38     -807634.26     -294.70889      0.36357928     0.055429584    28.374482      3526.5114    
       180   0.36           336.94087      127367.72     -807636.2      -294.40083      0.36357677     0.055372026    28.300844      3526.2106    
       190   0.38           336.56011      133716.02     -807629.72     -300.46447      0.36357412     0.056512912    28.389846      3525.3224    
       200   0.4            346.42197      136664.6      -807625.44     -305.9083       0.36357132     0.057537258    28.297711      3525.0601    
       210   0.42           338.26201      142963.12     -807618.19     -311.72161      0.36356838     0.058631138    28.340829      3524.5334    
       220   0.44           342.3389       141215.33     -807618.54     -311.79238      0.3635653      0.058644946    28.336858      3524.0456    
       230   0.46           338.16234      141099.32     -807619.2      -310.22052      0.36356207     0.058349813    28.32944       3523.609     
       240   0.48           343.64384      133894.02     -807628.07     -301.98168      0.3635587      0.056800685    28.269793      3523.4891    
       250   0.5            336.60435      132274.45     -807630.63     -298.2337       0.36355519     0.056096258    28.310569      3523.1474    
       260   0.52           340.15623      126433.69     -807636        -293.37006      0.36355153     0.055181987    28.264815      3523.0238    
       270   0.54           337.43327      130652.93     -807633.21     -295.61239      0.36354773     0.055604342    28.307709      3522.6854    
       280   0.56           338.35334      131303.96     -807629.68     -299.3976       0.36354379     0.056316946    28.331054      3522.2421    
       290   0.58           340.35685      140003.72     -807620.63     -308.65788      0.3635397      0.058059467    28.326122      3521.8263    
       300   0.6            334.38036      140624.6      -807618.01     -310.66801      0.36353547     0.058438258    28.336931      3521.3699    
       310   0.62           343.49999      143988.16     -807616.58     -313.20593      0.3635311      0.058916363    28.346855      3520.8804    
       320   0.64           337.40202      138266.13     -807621.72     -307.52507      0.36352658     0.05784847     28.271668      3520.6919    
       330   0.66           343.09534      136209.34     -807625.84     -304.08803      0.36352192     0.057202661    28.283497      3520.4484    
       340   0.68           344.14206      127659.07     -807634.67     -295.60183      0.36351712     0.055607038    28.274448      3520.2317    
       350   0.7            325.43024      129797.63     -807634.17     -293.49237      0.36351217     0.05521097     28.337699      3519.7824    
       360   0.72           326.06215      128612.35     -807633.24     -294.76051      0.36350708     0.055450304    28.314729      3519.4177    
       370   0.74           335.7099       134713.82     -807626.67     -302.73647      0.36350185     0.056951561    28.315003      3519.0528    
       380   0.76           346.34501      137627.12     -807623.64     -307.45739      0.36349647     0.057840529    28.289113      3518.7733    
       390   0.78           329.77838      142803.04     -807616.6      -312.19531      0.36349095     0.058732744    28.344403      3518.3136    
       400   0.8            346.58748      141057.79     -807620.35     -310.97978      0.36348529     0.05850498     28.35801       3517.8174    
       410   0.82           342.18195      139841.56     -807622.38     -308.4614       0.36347948     0.05803212     28.288587      3517.5382    
       420   0.84           341.49451      133065.39     -807629.36     -301.51397      0.36347353     0.056726001    28.254881      3517.3555    
       430   0.86           332.29369      128822.2      -807634.18     -295.4172       0.36346744     0.055579902    28.289767      3517.0638    
       440   0.88           335.41065      128219.28     -807636.96     -293.19832      0.3634612      0.055163389    28.308201      3516.7172    
       450   0.9            322.7608       129610.61     -807632.1      -296.51668      0.36345482     0.055788697    28.388         3516.1506    
       460   0.92           334.3139       135779.51     -807626.84     -303.4392       0.3634483      0.057092172    28.322161      3515.7705    
       470   0.94           329.36622      138196.32     -807622.75     -307.01901      0.36344163     0.057766774    28.379656      3515.2402    
       480   0.96           334.3831       143495.27     -807617.55     -312.89655      0.36343482     0.058873758    28.367354      3514.7489    
       490   0.98           328.35745      140210.1      -807618.84     -311.00432      0.36342786     0.058518842    28.362639      3514.2752    
       500   1              333.51812      139119.2      -807621.92     -308.57723      0.36342077     0.058063291    28.340711      3513.8606    
       510   1.02           333.02449      130181.67     -807632.27     -9547.4148      0.36341353     0.056141271    28.20155       3513.7882    
       520   1.04           323.49647      131113.92     -807633.04     -9479.9867      0.36340614     0.055745909    28.210513      3513.6833    
       530   1.06           333.78584      125632.1      -807637.2      -9401.9882      0.36339862     0.055288393    28.219064      3513.5487    
       540   1.08           325.18818      132658.24     -807631.24     -9554.0106      0.36339095     0.056183547    28.194875      3513.462     
       550   1.1            329.38252      132772.97     -807629.59     -9634.1162      0.36338313     0.056655837    28.157637      3513.4505    
       560   1.12           325.93741      141827.89     -807619.56     -9938.7805      0.36337518     0.058448771    28.201161      3513.3293    
       570   1.14           323.56354      140397.55     -807618.54     -9969.6482      0.36336707     0.058631607    28.233949      3513.1281    
       580   1.16           328.44849      143058.26     -807618.24     -9995.9889      0.36335883     0.058787851    28.237885      3512.9132    
       590   1.18           331.80829      134542.99     -807628.02     -9705.619       0.36335044     0.057081461    28.150263      3512.8793    
       600   1.2            328.40337      133452.6      -807630.4      -9611.0353      0.36334191     0.056526515    28.227069      3512.6745    
       610   1.22           328.02199      126952.9      -807635.63     -9448.2307      0.36333324     0.05557032     28.219219      3512.4809    
       620   1.24           320.30136      128903.26     -807634.78     -9439.9925      0.36332442     0.055523214    28.2724        3512.1753    
       630   1.26           317.82556      129148.36     -807633.18     -9484.0782      0.36331546     0.055783888    28.244976      3511.9223    
       640   1.28           331.33303      135946.02     -807627.16     -9737.7638      0.36330636     0.057277463    28.225105      3511.7048    
       650   1.3            334.7434       140308.68     -807621.3      -9944.9132      0.36329711     0.058497403    28.255483      3511.4249    
       660   1.32           323.52449      142595.33     -807618.63     -9978.7969      0.36328772     0.058698229    28.209095      3511.2304    
       670   1.34           330.87429      139086.39     -807623.31     -9862.3732      0.36327819     0.058014913    28.199123      3511.0497    
       680   1.36           337.7174       135467.83     -807628.01     -9744.7921      0.36326851     0.057324775    28.226858      3510.8129    
       690   1.38           326.60053      131728.85     -807630.74     -9609.7125      0.36325869     0.056531683    28.239033      3510.5508    
       700   1.4            307.37571      128590.59     -807634.06     -9417.7161      0.36324873     0.055403733    28.215316      3510.3283    
       710   1.42           311.20894      129512.61     -807635.56     -9386.176       0.36323863     0.055219721    28.232885      3510.0712    
       720   1.44           323.53791      130501.73     -807631.88     -9562.9028      0.36322838     0.056261008    28.217384      3509.8382    
       730   1.46           327.99197      137609.14     -807623.93     -9836.4737      0.36321798     0.057872152    28.208534      3509.6171    
       740   1.48           327.29431      139038.9      -807622.9      -9866.5309      0.36320745     0.058050675    28.249825      3509.3228    
       750   1.5            330.50314      142491.13     -807621.28     -9928.8575      0.36319677     0.058419097    28.201139      3509.1078    
       760   1.52           330.1307       138019.44     -807623.46     -9861.9651      0.36318595     0.058027247    28.179216      3508.9252    
       770   1.54           324.89384      137655.63     -807624.53     -9798.9734      0.36317498     0.057658349    28.229195      3508.6571    
       780   1.56           314.857        130042.24     -807633.88     -9455.8949      0.36316387     0.055641335    28.271021      3508.3202    
       790   1.58           326.62076      129447.64     -807636.37     -9420.2367      0.36315262     0.055433229    28.256163      3508.0061    
       800   1.6            314.44794      127367.56     -807634.15     -9438.9588      0.36314122     0.055545141    28.306355      3507.6133    
       810   1.62           328.12939      134566.11     -807629.19     -9652.6479      0.36312968     0.056804436    28.289744      3507.2469    
       820   1.64           327.3998       134767.78     -807627.32     -9705.8238      0.363118       0.057119206    28.234199      3506.9648    
       830   1.66           337.94327      140967.01     -807622.86     -9886.1871      0.36310618     0.058182547    28.296375      3506.5881    
       840   1.68           329.32284      140055.3      -807619.68     -9948.211       0.36309421     0.058549502    28.245784      3506.2866    
       850   1.7            324.98372      141129.24     -807619.72     -9919.5698      0.3630821      0.058382884    28.246158      3505.9833    
       860   1.72           342.27971      134297.41     -807630.61     -9642.4499      0.36306984     0.056753775    28.191977      3505.7573    
       870   1.74           324.67211      132518.39     -807631.81     -9514.4722      0.36305745     0.056002433    28.253392      3505.4405    
       880   1.76           324.33873      127875.72     -807633.99     -9439.7874      0.3630449      0.055564755    28.270446      3505.0988    
       890   1.78           332.79251      130495.02     -807633.17     -9493.9243      0.36303222     0.05588537     28.259443      3504.7722    
       900   1.8            331.88013      131639.18     -807631.4      -9541.5285      0.36301939     0.056167574    28.269982      3504.4304    
       910   1.82           346.29316      136961.4      -807626.23     -9764.1538      0.36300642     0.057480143    28.220098      3504.1564    
       920   1.84           332.94402      140257.3      -807619.16     -9928.1103      0.36299331     0.058447442    28.25734       3503.8304    
       930   1.86           336.66575      141113.76     -807619.29     -9933.3894      0.36298005     0.058480657    28.201433      3503.5786    
       940   1.88           332.74505      138435.43     -807622.76     -9799.624       0.36296665     0.057695272    28.226529      3503.2913    
       950   1.9            327.52802      135014.6      -807626.33     -9656.696       0.36295311     0.056855905    28.267013      3502.9497    
       960   1.92           322.6247       132469.24     -807628.56     -9557.0675      0.36293942     0.056271442    28.20085       3502.6935    
       970   1.94           344.84162      128619.56     -807636.51     -9399.0132      0.36292559     0.055342937    28.174758      3502.4688    
       980   1.96           331.02254      131010.7      -807631.94     -9479.5261      0.36291162     0.055819159    28.226574      3502.1756    
       990   1.98           339.65591      132208.74     -807629.71     -9589.9454      0.3628975      0.056471548    28.228828      3501.8783    
      1000   2              341.24949      139193.38     -807622.3      -9830.8945      0.36288325     0.05789268     28.124634      3501.7098    
      1010   2.02           340.0846       138487.24     -807621.54     -307.89477      0.36286884     0.058022996    28.357084      3501.252     
      1020   2.04           328.07735      142606.43     -807617.69     -309.92512      0.3628543      0.058407957    28.348735      3500.8063    
      1030   2.06           348.80275      136020.25     -807625.53     -305.11085      0.36283961     0.057502997    28.350604      3500.3602    
      1040   2.08           339.0556       136854.39     -807625.93     -303.24934      0.36282478     0.057154502    28.324469      3499.9468    
      1050   2.1            329.41973      128454.61     -807632.31     -295.69235      0.3628098      0.055732508    28.307838      3499.5542    
      1060   2.12           331.49782      131017.25     -807632.96     -295.30343      0.36279469     0.055661524    28.302829      3499.1681    
      1070   2.14           342.06043      128489.16     -807634.85     -295.17409      0.36277943     0.055639486    28.449567      3498.6141    
      1080   2.16           336.88351      136105.41     -807626.3      -303.03514      0.36276402     0.057123696    28.420693      3498.0966    
      1090   2.18           335.19031      136381.96     -807624.19     -305.21851      0.36274848     0.057537739    28.502967      3497.4899    
      1100   2.2            333.07002      142396.11     -807620.02     -309.18482      0.36273279     0.058287962    28.392093      3497.0111    
      1110   2.22           341.94991      138042.91     -807622.59     -308.1935       0.36271695     0.058103613    28.481762      3496.4358    
      1120   2.24           342.74182      138738.19     -807623.65     -307.40504      0.36270098     0.057957517    28.435205      3495.9153    
      1130   2.26           336.0565       131512.57     -807631.55     -298.937        0.36268486     0.056363475    28.370619      3495.4677    
      1140   2.28           328.38603      130868.03     -807633.29     -296.29607      0.3626686      0.055868043    28.375016      3495.0171    
      1150   2.3            320.81277      128276.17     -807634.38     -294.54264      0.36265219     0.055539938    28.409365      3494.5316    
      1160   2.32           328.34864      130481.06     -807631.95     -298.23282      0.36263564     0.056238337    28.39533       3494.0633    
      1170   2.34           322.14523      133401.19     -807628.06     -301.48622      0.36261895     0.056854453    28.382643      3493.6102    
      1180   2.36           330.86481      137474.6      -807625.66     -305.32138      0.36260212     0.057580363    28.352215      3493.1904    
      1190   2.38           318.81327      139973.32     -807620.6      -308.91902      0.36258514     0.058261567    28.288654      3492.8376    
      1200   2.4            333.09845      138360.2      -807623.15     -308.50834      0.36256802     0.058186861    28.347332      3492.4246    
      1210   2.42           328.55989      135741.79     -807626.4      -304.72397      0.36255076     0.057475839    28.313598      3492.0468    
      1220   2.44           318.64883      131676.46     -807630.59     -299.19581      0.36253335     0.056435849    28.241467      3491.7426    
      1230   2.46           319.74061      130405.46     -807632.83     -297.15993      0.3625158      0.056054542    28.193071      3491.4863    
      1240   2.48           316.7397       129501.95     -807633.85     -295.8138       0.36249811     0.055803341    28.285413      3491.1361    
      1250   2.5            323.38294      131962.53     -807631.86     -298.68028      0.36248028     0.056346856    28.299132      3490.7724    
      1260   2.52           324.26338      133517.56     -807629.43     -301.34779      0.3624623      0.056852909    28.319298      3490.3892    
      1270   2.54           327.92769      138553.79     -807623.85     -307.36796      0.36244418     0.057991586    28.291421      3490.0334    
      1280   2.56           324.42276      138253.84     -807622.6      -308.16938      0.36242592     0.05814572     28.303697      3489.6659    
      1290   2.58           339.93934      138478.83     -807625.42     -307.43128      0.36240751     0.058009401    28.384759      3489.2214    
      1300   2.6            317.71525      134732.48     -807626.36     -303.33046      0.36238896     0.057238545    28.266528      3488.8902    
      1310   2.62           327.92626      133012        -807631.29     -299.70955      0.36237027     0.056558196    28.241873      3488.5819    
      1320   2.64           322.90284      128916.06     -807634.06     -296.16764      0.36235143     0.055892707    28.32113       3488.1988    
      1330   2.66           322.193        131048.85     -807633.62     -296.37788      0.36233245     0.055935313    28.351845      3487.7878    
      1340   2.68           315.25148      131460.65     -807631.29     -297.66555      0.36231333     0.056181298    28.351879      3487.3777    
      1350   2.7            323.73275      135509.96     -807626.88     -303.12187      0.36229407     0.057214165    28.372637      3486.9495    
      1360   2.72           331.01648      136924.05     -807624.83     -306.14004      0.36227466     0.057786939    28.372576      3486.5225    
      1370   2.74           337.54543      139060.95     -807623.25     -308.45816      0.36225511     0.058227649    28.495519      3485.9871    
      1380   2.76           326.01689      137302.97     -807624.29     -305.73235      0.36223542     0.057716236    28.345643      3485.587     
      1390   2.78           329.17013      136131.94     -807627.04     -303.23644      0.36221558     0.057248191    28.356691      3485.1779    
      1400   2.8            324.30064      131683.28     -807629.91     -299.58689      0.3621956      0.056562312    28.413875      3484.7195    
      1410   2.82           321.82021      130495.22     -807632.39     -296.61145      0.36217548     0.056003656    28.393466      3484.2804    
      1420   2.84           319.58405      130273.87     -807633.54     -295.05489      0.36215522     0.055712876    28.347394      3483.8822    
      1430   2.86           324.355        132796.35     -807629.84     -299.27781      0.36213481     0.056513441    28.359269      3483.4744    
      1440   2.88           327.30555      134896.64     -807625.78     -303.69251      0.36211426     0.057350336    28.435594      3483.0027    
      1450   2.9            338.81842      137086.75     -807625.28     -305.66869      0.36209357     0.057726823    28.372609      3482.5856    
      1460   2.92           321.95737      138776.59     -807622.06     -306.39189      0.36207273     0.057866732    28.406537      3482.1411    
      1470   2.94           333.41198      137056.13     -807623.94     -306.06684      0.36205176     0.057808692    28.304382      3481.7829    
      1480   2.96           339.61682      135114.17     -807627.66     -303.11489      0.36203064     0.057254478    28.33736       3481.3975    
      1490   2.98           330.33817      131527.17     -807631.8      -297.5165       0.36200937     0.056200316    28.284834      3481.0558    
      1500   3              321.60614      130629.23     -807632.66     -295.34854      0.36198796     0.055794092    28.276868      3480.7205    
      1510   3.02           334.46696      128912.48     -807634.04     -9463.547       0.36196642     0.055870584    28.20834       3480.441     
      1520   3.04           337.51383      133595.31     -807629.86     -9605.9659      0.36194472     0.05671479     28.240237      3480.1346    
      1530   3.06           335.50502      134572.64     -807628.02     -9656.8362      0.36192289     0.057018575    28.223887      3479.8407    
      1540   3.08           323.60627      139857.03     -807621.93     -9794.5839      0.36190091     0.057835415    28.196835      3479.5678    
      1550   3.1            334.23291      138911.09     -807623.12     -9804.8634      0.36187879     0.057899652    28.253105      3479.249     
      1560   3.12           335.30827      139031.99     -807622.97     -9810.8285      0.36185653     0.057938442    28.223054      3478.9535    
      1570   3.14           331.71905      134090.4      -807627.92     -9635.6101      0.36183412     0.056907203    28.230088      3478.6517    
      1580   3.16           325.24079      133113.11     -807629.93     -9540.1856      0.36181157     0.056347144    28.216858      3478.3596    
      1590   3.18           333.26586      129451.73     -807633.71     -9455.4191      0.36178888     0.055849991    28.259083      3478.0339    
      1600   3.2            315.75867      131856.14     -807629.39     -9512.1565      0.36176605     0.056188666    28.278611      3477.6929    
      1610   3.22           338.0325       131708.42     -807631.73     -9539.298       0.36174307     0.05635257     28.282426      3477.3488    
      1620   3.24           337.77648      136730.3      -807626.63     -9700.052       0.36171995     0.057305873    28.266586      3477.0166    
      1630   3.26           331.67377      138055.56     -807623.33     -9779.98        0.36169669     0.057781787    28.276567      3476.6766    
      1640   3.28           328.50356      138497.75     -807621.67     -9817.5664      0.36167329     0.058007607    28.273144      3476.339     
      1650   3.3            328.62176      136710.34     -807624.29     -9733.7436      0.36164974     0.057516081    28.243012      3476.0237    
      1660   3.32           342.37076      134409.99     -807629.6      -9623.0896      0.36162605     0.056865958    28.266279      3475.6907    
      1670   3.34           333.68917      131952.5      -807631.43     -9525.9206      0.36160222     0.056295465    28.249939      3475.3694    
      1680   3.36           321.98922      131708.75     -807630.93     -9489.7422      0.36157824     0.056085379    28.217264      3475.0718    
      1690   3.38           335.4745       131297.48     -807632.85     -9488.0543      0.36155413     0.056079145    28.247503      3474.7514    
      1700   3.4            336.4764       132560.68     -807630.48     -9567.7017      0.36152987     0.056553695    28.260522      3474.4212    
      1710   3.42           338.18701      135440.48     -807627.11     -9684.3628      0.36150546     0.057247131    28.240066      3474.1055    
      1720   3.44           326.72549      138267.7      -807622.71     -9776.4781      0.36148092     0.057795576    28.254359      3473.779     
      1730   3.46           331.03157      138637.49     -807623.15     -9779.5033      0.36145623     0.057817409    28.269538      3473.4415    
      1740   3.48           330.89645      136358.55     -807625.93     -9689.3115      0.3614314      0.057288121    28.259523      3473.1109    
      1750   3.5            341.64773      133919.33     -807629.8      -9612.3709      0.36140643     0.056837136    28.280287      3472.7654    
      1760   3.52           323.64889      131793.23     -807629.37     -9547.6704      0.36138131     0.056458491    28.230294      3472.4547    
      1770   3.54           327.89456      130634.83     -807632.28     -9472.49        0.36135605     0.05601784     28.253417      3472.1275    
      1780   3.56           331.86373      131440.94     -807632.55     -9480.4609      0.36133065     0.056068919    28.227773      3471.8178    
      1790   3.58           333.58424      132878.05     -807629.82     -9577.0904      0.36130511     0.056644406    28.292078      3471.4633    
      1800   3.6            331.66722      136324.1      -807625.94     -9694.2696      0.36127942     0.057341547    28.224835      3471.1548    
      1810   3.62           330.91726      137005.76     -807624.49     -9737.3407      0.3612536      0.05760043     28.279778      3470.8085    
      1820   3.64           325.41897      137797.8      -807623.62     -9738.2844      0.36122763     0.057610154    28.262892      3470.4734    
      1830   3.66           337.26005      136224.65     -807626.4      -9703.2115      0.36120151     0.057406818    28.277606      3470.1283    
      1840   3.68           333.88561      134434.45     -807627.73     -9645.2376      0.36117526     0.057067977    28.233639      3469.8125    
      1850   3.7            333.68429      132226.78     -807631.02     -9537.3938      0.36114886     0.056434022    28.304891      3469.449     
      1860   3.72           329.5738       129462.72     -807633.39     -9444.4174      0.36112232     0.055887976    28.280471      3469.1016    
      1870   3.74           333.8739       132057.07     -807631.9      -9509.7397      0.36109564     0.056278683    28.270783      3468.7606    
      1880   3.76           329.57757      132366.49     -807629.75     -9562.2349      0.36106881     0.056593554    28.243742      3468.4371    
      1890   3.78           330.03918      137000.6      -807625.63     -9692.4366      0.36104184     0.057368431    28.267658      3468.0977    
      1900   3.8            330.78394      135538        -807626.42     -9672.2367      0.36101474     0.057253169    28.237325      3467.7778    
      1910   3.82           327.78055      139323.53     -807622.88     -9768.3351      0.36098748     0.057826372    28.199881      3467.4817    
      1920   3.84           325.94642      134835.57     -807625.63     -9677.7545      0.36096009     0.057294503    28.224317      3467.1693    
      1930   3.86           332.89226      136563.55     -807627.13     -9654.7475      0.36093255     0.057162657    28.238573      3466.8473    
      1940   3.88           327.40305      130459.5      -807632.37     -9466.8472      0.36090487     0.056054459    28.243965      3466.5216    
      1950   3.9            332.44358      132837.59     -807630.76     -9535.9977      0.36087705     0.056468261    28.271425      3466.1784    
      1960   3.92           323.78128      129796.5      -807631.89     -9468.0529      0.36084909     0.056070265    28.245441      3465.8513    
      1970   3.94           329.8355       135412.39     -807628.09     -9614.7761      0.36082098     0.056943602    28.216341      3465.5421    
      1980   3.96           317.94595      133183.48     -807626.56     -9615.2635      0.36079273     0.056950947    28.238116      3465.2189    
      1990   3.98           329.99344      138614.14     -807624.1      -9744.0193      0.36076434     0.057718106    28.227478      3464.902     
      2000   4              333.84019      134710.1      -807626.29     -9698.2843      0.36073581     0.057451741    28.243503      3464.5748    
      2010   4.02           327.13725      137814.61     -807624.18     -304.1839       0.36070713     0.057667219    28.447614      3464.1236    
      2020   4.04           327.25888      133048.21     -807629.69     -298.87465      0.36067831     0.056665218    28.319503      3463.7505    
      2030   4.06           326.82885      133148.03     -807630.04     -298.43412      0.36064935     0.056586239    28.273027      3463.4055    
      2040   4.08           327.07214      130446.25     -807632.36     -296.24279      0.36062025     0.056175274    28.328641      3463.0272    
      2050   4.1            330.31945      131834.47     -807631.99     -297.12356      0.36059101     0.05634686     28.297893      3462.6674    
      2060   4.12           331.02944      133140.66     -807630.62     -298.65492      0.36056162     0.056641885    28.354245      3462.2743    
      2070   4.14           318.8905       135843.92     -807626.97     -300.66622      0.36053209     0.057028011    28.335632      3461.8925    
      2080   4.16           333.46966      137786.69     -807626.63     -303.06129      0.36050242     0.05748702     28.42425       3461.4592    
      2090   4.18           323.65638      135837.78     -807625.89     -302.57509      0.36047261     0.057399542    28.438313      3461.0186    
      2100   4.2            327.85087      136486.96     -807626.49     -302.48003      0.36044265     0.057386276    28.352746      3460.6283    
      2110   4.22           320.44903      132401.5      -807629.67     -298.3079       0.36041256     0.056599469    28.315034      3460.2601    
      2120   4.24           323.56503      133990.92     -807629.42     -298.90941      0.36038232     0.056718356    28.354739      3459.8692    
      2130   4.26           321.86743      131116.04     -807632.18     -296.03539      0.36035193     0.056177744    28.321177      3459.4979    
      2140   4.28           329.79158      134059.64     -807630.58     -298.59117      0.36032141     0.056667546    28.340854      3459.1155    
      2150   4.3            326.06859      131685.19     -807630.53     -298.17303      0.36029075     0.056593007    28.35274       3458.7267    
      2160   4.32           323.8276       137487.22     -807625.85     -302.35799      0.36025994     0.057392217    28.359996      3458.3341    
      2170   4.34           320.26318      135025.65     -807626.49     -301.27349      0.36022899     0.057191275    28.354205      3457.9452    
      2180   4.36           327.98277      137421.63     -807626.48     -302.13352      0.36019789     0.057359487    28.277718      3457.5994    
      2190   4.38           323.40609      133171.98     -807628.25     -299.72667      0.36016666     0.056907485    28.274674      3457.2552    
      2200   4.4            332.84556      135483.77     -807628.43     -300.60629      0.36013528     0.057079467    28.311708      3456.8904    
      2210   4.42           328.59194      130640.24     -807632.28     -296.15468      0.36010377     0.056239111    28.349838      3456.5046    
      2220   4.44           326.02339      134091.24     -807630.5      -297.27183      0.36007211     0.056456219    28.348838      3456.1197    
      2230   4.46           340.15075      129909.81     -807633.34     -296.33796      0.3600403      0.056283836    28.423201      3455.6947    
      2240   4.48           329.41579      135508.36     -807627.78     -300.05991      0.36000836     0.056995807    28.34128       3455.3146    
      2250   4.5            318.98951      133689.4      -807627.61     -298.76382      0.35997627     0.056754676    28.355587      3454.9271    
      2260   4.52           320.6956       137921.56     -807623.88     -302.38416      0.35994404     0.057447556    28.452339      3454.488     
      2270   4.54           340.16001      134926.91     -807627.72     -301.1103       0.35991167     0.057210691    28.43357       3454.0597    
      2280   4.56           332.72703      136875.45     -807625.17     -302.31715      0.35987916     0.05744518     28.436399      3453.6305    
      2290   4.58           337.522        133523.15     -807629.13     -298.82452      0.35984651     0.056786676    28.370672      3453.2368    
      2300   4.6            334.41751      133976.33     -807629.88     -297.34649      0.35981371     0.056510952    28.372921      3452.8423    
      2310   4.62           340.06739      132094.14     -807631.18     -296.69469      0.35978077     0.056392238    28.316333      3452.4779    
      2320   4.64           336.3244       133505.41     -807630.06     -297.03052      0.35974769     0.056461262    28.353094      3452.0943    
      2330   4.66           333.15062      133347.87     -807628.25     -298.22744      0.35971447     0.056694013    28.437009      3451.6674    
      2340   4.68           317.91537      135766.69     -807624.33     -299.85727      0.35968111     0.057009138    28.378843      3451.2711    
      2350   4.7            336.59359      137120.27     -807625.88     -300.6532       0.3596476      0.057165786    28.349989      3450.8902    
      2360   4.72           345.08305      136064.13     -807626.6      -301.04373      0.35961396     0.057245395    28.359389      3450.5047    
      2370   4.74           330.26804      136807.55     -807624.54     -300.77818      0.35958017     0.057200274    28.417785      3450.0896    
      2380   4.76           340.57571      133447.59     -807628.87     -297.79277      0.35954624     0.056637871    28.356732      3449.7061    
      2390   4.78           336.09416      133829.38     -807628.53     -297.31675      0.35951216     0.056552695    28.435343      3449.283     
      2400   4.8            344.18095      131519.64     -807630.85     -296.12127      0.35947795     0.056330663    28.319452      3448.9191    
      2410   4.82           331.94227      135012.06     -807627.43     -297.71259      0.35944359     0.05663879     28.396729      3448.5163    
      2420   4.84           336.611        133535.89     -807628.88     -296.94777      0.35940909     0.056498709    28.425802      3448.0994    
      2430   4.86           333.86723      137923.49     -807624.36     -300.96703      0.35937446     0.057268952    28.443663      3447.6742    
      2440   4.88           339.51377      134546.78     -807626.2      -300.02093      0.35933967     0.057094451    28.37431       3447.284     
      2450   4.9            336.48834      137338.4      -807623.61     -302.07341      0.35930475     0.057490628    28.459505      3446.8521    
      2460   4.92           330.80487      133797.7      -807626.59     -298.4417       0.35926969     0.056804984    28.385386      3446.4572    
      2470   4.94           338.48874      134813.75     -807627.27     -298.76935      0.35923448     0.056872922    28.361304      3446.0744    
      2480   4.96           341.55066      131045.07     -807630.93     -295.71151      0.35919913     0.05629638     28.352987      3445.696     
      2490   4.98           337.08028      134053.29     -807628.96     -297.12949      0.35916364     0.056571918    28.347851      3445.3203    
      2500   5              333.77488      132319.2      -807629.63     -296.22078      0.35912801     0.056404502    28.362175      3444.9378    
[...]
     98740   197.48         332.28493      134921.95     -807626.24     -9663.3558      0.36236891     0.05698684     28.725007      43.583324    
     98750   197.5          339.29038      135849.9      -807626.68     -9673.5978      0.36238762     0.057044295    28.699109      43.237456    
     98760   197.52         331.6296       134241.06     -807626.32     -9648.2197      0.36240618     0.056891729    28.652258      42.891596    
     98770   197.54         338.36162      135483.69     -807625.69     -9692.7658      0.36242459     0.057151495    28.688971      42.545729    
     98780   197.56         341.94707      134419.76     -807628.3      -9624.1255      0.36244287     0.05674391     28.648675      42.199868    
     98790   197.58         342.00511      135933.78     -807627.59     -9642.6764      0.362461       0.056850443    28.726373      41.853994    
     98800   197.6          338.58675      134991.4      -807626.03     -9677.038       0.36247899     0.057050198    28.740182      41.508118    
     98810   197.62         333.36939      136500.66     -807624.14     -9712.3976      0.36249683     0.057255838    28.773218      41.162237    
     98820   197.64         336.21378      135402.88     -807626.07     -9663.9021      0.36251453     0.056967169    28.727842      40.816362    
     98830   197.66         340.50332      135072.12     -807627.34     -9643.3074      0.36253209     0.056843013    28.755022      40.470483    
     98840   197.68         335.18667      134947.55     -807626.12     -9659.8418      0.36254951     0.056937741    28.808985      40.124596    
     98850   197.7          332.00782      135087.14     -807625.2      -9678.003       0.36256678     0.05704207     28.824162      39.778706    
     98860   197.72         341.97002      134845.57     -807627.43     -9654.0505      0.36258391     0.056898206    28.841081      39.432814    
     98870   197.74         345.75008      133899.2      -807628.46     -9644.5358      0.3626009      0.056839467    28.820223      39.086924    
     98880   197.76         324.75809      136293.35     -807624        -9697.5966      0.36261774     0.057149522    28.795167      38.741038    
     98890   197.78         333.98712      134750.21     -807625.87     -9690.4285      0.36263445     0.057104649    28.854263      38.395143    
     98900   197.8          336.23145      136038.59     -807626.62     -9684.1376      0.362651       0.057064972    28.764756      38.04926     
     98910   197.82         340.69934      134050.42     -807629.43     -9627.8781      0.36266742     0.056730888    28.766333      37.703377    
     98920   197.84         333.60035      135915.89     -807626.63     -9697.4449      0.36268369     0.057138237    28.702642      37.357502    
     98930   197.86         328.98407      132862.27     -807627.94     -9653.4533      0.36269982     0.056876505    28.712605      37.011625    
     98940   197.88         340.06819      135017.24     -807629.78     -9654.2685      0.36271581     0.056878801    28.679553      36.665751    
     98950   197.9          328.42282      132806.53     -807629.4      -9631.2706      0.36273165     0.056740829    28.721803      36.319872    
     98960   197.92         328.05569      136853.03     -807626.33     -9739.257       0.36274735     0.057374527    28.730384      35.973991    
     98970   197.94         322.19652      134995.13     -807627.53     -9687.5632      0.36276291     0.057067548    28.7032        35.628113    
     98980   197.96         324.12668      136600.82     -807627.05     -9715.6404      0.36277832     0.057230514    28.654637      35.282241    
     98990   197.98         324.8548       133599.47     -807628.65     -9675.421       0.36279359     0.0569912      28.666737      34.936367    
     99000   198            316.5964       135772.05     -807626.1      -9724.003       0.36280872     0.057274975    28.673476      34.590491    
     99010   198.02         332.74902      133017.72     -807631.09     -301.2864       0.3628237      0.056784708    28.779366      34.244602    
     99020   198.04         307.69999      135419.09     -807626.93     -301.89268      0.36283855     0.056896648    28.712081      33.89872     
     99030   198.06         327.8752       132858.15     -807630.83     -300.91804      0.36285324     0.056710665    28.771333      33.552831    
     99040   198.08         316.73191      135130.47     -807626.57     -303.5734       0.3628678      0.057208794    28.845968      33.206933    
     99050   198.1          326.8584       133659.48     -807628.88     -302.69677      0.36288221     0.057041327    28.843248      32.861035    
     99060   198.12         326.55915      134753.35     -807628.59     -302.91065      0.36289648     0.057079387    28.808486      32.515141    
     99070   198.14         319.75019      134635.91     -807627.57     -303.02831      0.36291061     0.057099337    28.80385       32.169247    
     99080   198.16         316.19293      136337.36     -807625.72     -304.3561       0.36292459     0.057347322    28.874111      31.823345    
     99090   198.18         320.08255      134066.01     -807628.44     -302.06835      0.36293843     0.056914088    28.873336      31.477443    
     99100   198.2          334.57407      133915.73     -807631.28     -301.12291      0.36295213     0.056733813    28.893782      31.131539    
     99110   198.22         314.91923      134415.62     -807627.91     -301.69274      0.36296568     0.056839051    28.834402      30.785641    
     99120   198.24         335.48416      133918.8      -807629.51     -302.90375      0.36297909     0.057065097    28.867614      30.439739    
     99130   198.26         317.61567      134379.27     -807627.11     -302.65223      0.36299236     0.057015629    28.868365      30.093838    
     99140   198.28         330.17173      134339.39     -807628.72     -302.68052      0.36300548     0.057018897    28.775022      29.747946    
     99150   198.3          315.28002      136206.07     -807624.96     -304.25093      0.36301846     0.057312681    28.821128      29.402048    
     99160   198.32         330.12611      135834.02     -807626.04     -305.10326      0.3630313      0.057471204    28.844178      29.056148    
     99170   198.34         322.40921      136235.12     -807626.12     -303.71739      0.36304399     0.057208152    28.574121      28.710276    
     99180   198.36         328.9656       133614.18     -807629.35     -301.24572      0.36305655     0.056740626    28.841064      28.364376    
     99190   198.38         331.66688      134457.44     -807628.44     -302.24759      0.36306895     0.056927386    28.857467      28.018474    
     99200   198.4          339.82667      132170.7      -807630.19     -301.54783      0.36308122     0.056793671    28.824052      27.672575    
     99210   198.42         339.06558      134610.36     -807629.19     -302.12604      0.36309334     0.056900671    28.809419      27.326677    
     99220   198.44         326.18072      133539.84     -807629.18     -300.29523      0.36310532     0.056554001    28.783468      26.980782    
     99230   198.46         330.16795      137578.35     -807625.25     -304.6007       0.36311715     0.057362973    28.754496      26.634889    
     99240   198.48         334.80097      133766.92     -807626.31     -304.11207      0.36312885     0.057269109    28.705242      26.289       
     99250   198.5          338.9232       137869.99     -807625.61     -305.05994      0.3631404      0.057445781    28.690897      25.943112    
     99260   198.52         332.97562      133014.75     -807628.14     -301.76915      0.3631518      0.056824309    28.729589      25.59722     
     99270   198.54         335.32444      137388.8      -807625.82     -304.13057      0.36316306     0.057267196    28.720933      25.251329    
     99280   198.56         331.51075      132768.06     -807628.75     -300.7548       0.36317418     0.056629811    28.754681      24.905433    
     99290   198.58         333.0316       136901        -807627.33     -302.11085      0.36318516     0.056883425    28.780153      24.559536    
     99300   198.6          331.19718      131914.16     -807630.33     -298.94296      0.36319599     0.056285277    28.83439       24.213633    
     99310   198.62         338.01892      136625.57     -807625.71     -304.32789      0.36320668     0.05729747     28.913456      23.867724    
     99320   198.64         338.57446      133915.25     -807627.35     -302.89097      0.36321723     0.057025276    28.853571      23.521819    
     99330   198.66         340.03116      138295.27     -807624.99     -305.22174      0.36322763     0.057462446    28.804371      23.175919    
     99340   198.68         337.74678      134037.48     -807626.97     -303.06465      0.36323789     0.057054731    28.838287      22.830015    
     99350   198.7          334.54005      137417.31     -807624.45     -305.08087      0.36324801     0.057432703    28.871147      22.484109    
     99360   198.72         331.38378      134005.72     -807626.7      -302.46392      0.36325798     0.056938489    28.861434      22.138203    
     99370   198.74         327.66449      134501.75     -807627.24     -301.36613      0.36326781     0.056730295    28.830558      21.7923      
     99380   198.76         337.25443      132129.97     -807630.25     -299.81851      0.3632775      0.05643746     28.807912      21.446398    
     99390   198.78         338.10719      134361.07     -807627.18     -303.02005      0.36328704     0.057038617    28.862243      21.100492    
     99400   198.8          343.92338      134549.15     -807628.24     -302.87476      0.36329644     0.057009792    28.840401      20.754587    
     99410   198.82         333.76456      135497.2      -807626.72     -303.07228      0.3633057      0.057045518    28.83324       20.408682    
     99420   198.84         343.24919      135991.63     -807626.89     -304.39943      0.36331481     0.057293881    28.850164      20.062777    
     99430   198.86         324.17868      136475.16     -807624.17     -304.70859      0.36332378     0.057350656    28.817572      19.716873    
     99440   198.88         336.22351      135052.45     -807626.91     -303.85769      0.36333261     0.057189115    28.842934      19.370968    
     99450   198.9          328.54143      133640.02     -807628.23     -301.90475      0.36334129     0.056820193    28.81886       19.025063    
     99460   198.92         328.29442      134814.44     -807627.53     -302.90903      0.36334983     0.057007864    28.816087      18.679159    
     99470   198.94         335.62532      133264.87     -807629.5      -302.43857      0.36335823     0.056918007    28.849426      18.333253    
     99480   198.96         317.55933      136103.67     -807626.96     -302.89591      0.36336648     0.057002782    28.862214      17.987345    
     99490   198.98         325.08776      133985.74     -807629.57     -301.78238      0.3633746      0.056791958    28.799754      17.641441    
     99500   199            329.76711      136440.33     -807627.84     -304.49109      0.36338256     0.057300449    28.816853      17.295536    
     99510   199.02         322.96852      133938.48     -807627.87     -9725.1361      0.36339039     0.05718996     28.74829       16.949635    
     99520   199.04         314.56581      136783.66     -807626.09     -9749.5757      0.36339807     0.057332468    28.824481      16.603729    
     99530   199.06         316.51192      132275.12     -807629.91     -9646.4197      0.3634056      0.056724682    28.733538      16.257828    
     99540   199.08         318.16243      135890.94     -807627.39     -9735.1448      0.363413       0.057245256    28.757678      15.911925    
     99550   199.1          324.34147      132204.63     -807630.17     -9680.8629      0.36342025     0.056924928    28.740609      15.566023    
     99560   199.12         319.98243      135959.49     -807628.71     -9705.1339      0.36342736     0.057066529    28.700611      15.220123    
     99570   199.14         319.1489       131954.35     -807631.34     -9622.4773      0.36343432     0.056579421    28.679225      14.874223    
     99580   199.16         319.82781      136246.22     -807627.39     -9749.3721      0.36344114     0.057324476    28.687178      14.528322    
     99590   199.18         319.93194      133075.36     -807628.6      -9715.3154      0.36344782     0.05712318     28.707504      14.182419    
     99600   199.2          322.70371      136746.09     -807627.78     -9747.715       0.36345435     0.05731265     28.692645      13.836517    
     99610   199.22         318.67658      132600.26     -807630.3      -9649.8048      0.36346074     0.056735979    28.698557      13.490614    
     99620   199.24         319.27429      136276.99     -807626.68     -9762.6482      0.36346699     0.057398455    28.777556      13.144707    
     99630   199.26         321.53678      132584.22     -807629.41     -9686.8097      0.3634731      0.056951614    28.754531      12.798801    
     99640   199.28         323.97662      135596.67     -807628.6      -9712.4846      0.36347906     0.057101628    28.769836      12.452893    
     99650   199.3          307.80071      132677.06     -807629.56     -9609.3576      0.36348487     0.05649442     28.736375      12.106987    
     99660   199.32         321.66573      136359.5      -807627.08     -9742.5649      0.36349055     0.057276665    28.754248      11.761079    
     99670   199.34         316.77857      133849.05     -807627.57     -9702.8703      0.36349608     0.057042432    28.816244      11.415169    
     99680   199.36         325.22455      136678.41     -807627.05     -9746.336       0.36350147     0.057297115    28.838089      11.069257    
     99690   199.38         327.10701      133903.78     -807629.02     -9686.8122      0.36350671     0.056946363    28.820727      10.723346    
     99700   199.4          332.47406      135697.4      -807627.63     -9747.1137      0.36351181     0.057300056    28.859445      10.377434    
     99710   199.42         324.75923      134548.02     -807626.64     -9739.6362      0.36351677     0.057255318    28.887597      10.03152     
     99720   199.44         331.63752      134335.2      -807629.36     -9675.1604      0.36352158     0.056875538    28.863209      9.685607     
     99730   199.46         330.86941      133364.54     -807630.84     -9616.7099      0.36352625     0.056531209    28.83061       9.339695     
     99740   199.48         318.35595      134039.92     -807627.58     -9659.1135      0.36353078     0.056779769    28.809935      8.9937834    
     99750   199.5          327.78324      134842.75     -807626.95     -9714.6953      0.36353516     0.05710581     28.792243      8.6478722    
     99760   199.52         325.06082      134959.2      -807626.58     -9708.0428      0.3635394      0.05706604     28.753347      8.3019618    
     99770   199.54         335.81236      136438.38     -807627.87     -9708.0362      0.3635435      0.057065358    28.721768      7.9560519    
     99780   199.56         342.69907      135204.15     -807627.26     -9755.7105      0.36354745     0.057344971    28.775572      7.6101402    
     99790   199.58         334.17007      137088.75     -807624.01     -9817.3318      0.36355126     0.057706582    28.772322      7.2642282    
     99800   199.6          338.20435      133373.86     -807628.89     -9677.4073      0.36355493     0.056883527    28.737817      6.9183167    
     99810   199.62         343.1274       135080.15     -807629.68     -9669.5031      0.36355845     0.056836516    28.722978      6.5724051    
     99820   199.64         326.38941      133124.78     -807628.23     -9643.4221      0.36356183     0.056682687    28.735937      6.2264928    
     99830   199.66         322.53994      134991.32     -807624.99     -9726.8666      0.36356507     0.057172653    28.724384      5.8805803    
     99840   199.68         328.29885      132593.32     -807628.73     -9632.5399      0.36356816     0.056617738    28.725474      5.5346673    
     99850   199.7          334.78781      136535.41     -807626.95     -9714.2709      0.36357111     0.057097669    28.663351      5.1887551    
     99860   199.72         325.45435      135260.07     -807625.25     -9730.5471      0.36357392     0.057192895    28.703988      4.8428415    
     99870   199.74         335.18048      138070.46     -807623.88     -9812.8802      0.36357658     0.057676398    28.768703      4.4969265    
     99880   199.76         334.70967      134939.42     -807627.69     -9691.7525      0.3635791      0.056964061    28.727277      4.1510117    
     99890   199.78         342.63099      136370.96     -807627.79     -9721.1876      0.36358148     0.057136695    28.7172        3.8050966    
     99900   199.8          329.6605       133442.15     -807627.28     -9684.2709      0.36358371     0.056919365    28.804632      3.45918      
     99910   199.82         334.05332      135191.49     -807626.19     -9737.3079      0.3635858      0.057230762    28.808463      3.113263     
     99920   199.84         324.51691      133043.07     -807628.62     -9618.9701      0.36358775     0.056534932    28.780835      2.7673462    
     99930   199.86         327.64145      135854.37     -807626.51     -9698.7712      0.36358955     0.057003676    28.753024      2.4214292    
     99940   199.88         342.87508      134069.19     -807628.25     -9715.9292      0.36359121     0.05710426     28.772068      2.0755117    
     99950   199.9          340.46748      136110        -807625.92     -9779.5698      0.36359273     0.05747806     28.811054      1.7295937    
     99960   199.92         331.13685      134962.63     -807626.96     -9707.1772      0.3635941      0.057052367    28.783618      1.3836756    
     99970   199.94         336.16409      136438.87     -807627.01     -9728.0447      0.36359533     0.05717482     28.785921      1.0377571    
     99980   199.96         334.32191      135059.63     -807626.93     -9728.8658      0.36359641     0.057179475    28.799557      0.69183833   
     99990   199.98         327.82981      135599.99     -807626.3      -9720.4083      0.36359736     0.057129619    28.792017      0.34591931   
    100000   200            329.47902      132945.09     -807629.52     -9628.2658      0.36359816     0.056587947    28.748071      0            
Loop time of 3459.2 on 32 procs for 100000 steps with 1080 atoms

Performance: 4.995 ns/day, 4.804 hours/ns, 28.908 timesteps/s, 31.221 katom-step/s
62.0% CPU use with 32 MPI tasks x 1 OpenMP threads

MPI task timing breakdown:
Section |  min time  |  avg time  |  max time  |%varavg| %total
---------------------------------------------------------------
Pair    | 2557       | 2794.2     | 3064.5     | 246.0 | 80.78
Neigh   | 0.0016453  | 0.0021655  | 0.0049397  |   2.2 |  0.00
Comm    | 320.42     | 590.48     | 827.39     | 534.8 | 17.07
Output  | 2.4581     | 2.4674     | 2.4766     |   0.3 |  0.07
Modify  | 65.4       | 65.873     | 66.352     |   3.3 |  1.90
Other   |            | 6.148      |            |       |  0.18

Nlocal:          33.75 ave          41 max          27 min
Histogram: 3 2 2 5 1 11 1 5 0 2
Nghost:        1029.75 ave        1040 max        1017 min
Histogram: 1 1 3 3 6 3 6 3 2 4
Neighs:              0 ave           0 max           0 min
Histogram: 32 0 0 0 0 0 0 0 0 0
FullNghs:      5354.44 ave        6451 max        4279 min
Histogram: 3 2 1 6 1 8 4 2 3 2

Total # of neighbors = 171342
Ave neighs/atom = 158.65
Neighbor list builds = 4
Dangerous builds = 0

Total wall time: 1:01:10
