
units		metal
atom_style	atomic

read_data ${STRUCTURE}.data
read_data BaTiO3-sc333.data
Reading data file ...
  orthogonal box = (0 0 0) to (11.898253 11.898253 12.912076)
  2 by 4 by 4 MPI processor grid
  reading atoms ...
  135 atoms
  read_data CPU = 0.494 seconds
replicate $L $L $L
replicate 2 $L $L
replicate 2 2 $L
replicate 2 2 2
Replication is creating a 2x2x2 = 8 times larger system...
  orthogonal box = (0 0 0) to (23.796507 23.796507 25.824152)
  2 by 4 by 4 MPI processor grid
  1080 atoms
  replicate CPU = 0.102 seconds

pair_style allegro
pair_coeff	* * ${MODEL}.pth Ba Ti O
pair_coeff	* * BaTiO3-E0.pth Ba Ti O
mass 1 137.3
mass 2 47.9
mass 3 15.9994

timestep 0.002
compute polarization all allegro polarization 3
compute allegro will evaluate the quantity polarization of length 3 (src/compute_allegro.cpp:53)
compute polarizability all allegro polarizability 9
compute allegro will evaluate the quantity polarizability of length 9 (src/compute_allegro.cpp:53)

thermo_style custom pe fmax fnorm spcpu cpuremain

variable efield equal 1e-2*36.36
fix born all addbornforce 0.0 0.0 ${efield}
fix born all addbornforce 0.0 0.0 0.3636

thermo 10
min_style fire
#minimize 0.0 1e-6 100 100
velocity all create ${TEMP} ${SEED} dist gaussian rot yes mom yes
velocity all create 320 ${SEED} dist gaussian rot yes mom yes
velocity all create 320 23212 dist gaussian rot yes mom yes
fix nvt all nvt temp ${TEMP} ${TEMP} $(100*dt)
fix nvt all nvt temp 320 ${TEMP} $(100*dt)
fix nvt all nvt temp 320 320 $(100*dt)
fix nvt all nvt temp 320 320 0.2000000000000000111
run 5000
Neighbor list info ...
  update: every = 1 steps, delay = 0 steps, check = yes
  max neighbors/atom: 2000, page size: 100000
  master list distance cutoff = 8
  ghost atom cutoff = 8
  binsize = 8, bins = 3 3 4
  1 neighbor lists, perpetual/occasional/extra = 1 0 0
  (1) pair allegro/kk, perpetual
      attributes: full, newton on, kokkos_device
      pair build: full/bin/kk/device
      stencil: full/bin/3d
      bin: kk/device
Per MPI rank memory allocation (min/avg/max) = 3.516 | 3.516 | 3.516 Mbytes
    PotEng          Fmax          Fnorm          S/CPU         CPULeft    
-807708.29      1.5953254      37.042034      0              0            
-807644.09      3.8947336      46.724136      2.3369139      2135.2957    
-807634.84      2.8793921      36.130851      25.901837      1161.6405    
-807605.24      3.8584169      38.923522      25.935068      836.74937    
-807602.26      4.2688038      50.505307      25.878168      674.21617    
-807564.97      4.2105095      42.22354       25.887338      576.52817    
-807603.21      2.8950403      39.399869      25.976304      511.16507    
-807645.61      3.7935937      35.988509      25.945473      464.39941    
-807683.88      3.1345664      35.255177      25.910986      429.26034    
-807665.56      3.9604688      35.768336      25.864527      401.88202    
-807652.73      4.2925096      35.220623      25.924305      379.85835    
-807659.12      3.0242262      28.381784      25.866031      361.80747    
-807626.5       4.6521941      32.402321      25.884235      346.68961    
-807583.73      4.3728         40.076995      25.86684       333.84785    
-807569.74      4.5205159      38.822654      25.947302      322.74379    
-807633         3.3533572      33.478106      25.941952      313.07145    
-807653.37      4.2303611      32.57923       25.91965       304.57       
-807663.17      2.950289       34.623248      25.947509      297.01157    
-807647.15      4.6433798      44.907142      25.948224      290.24984    
-807679.03      3.0096733      36.423617      25.861518      284.19204    
-807640.85      4.2588538      39.418126      25.865125      278.70005    
-807614.41      3.4487502      38.908026      25.941346      273.66837    
-807562.54      4.3543365      45.476581      25.963859      269.05181    
-807604.9       4.0676606      48.573848      25.911652      264.81929    
-807614.52      4.1368338      38.107595      25.859804      260.92267    
-807641.17      2.8706987      34.882618      25.936219      257.2852     
-807644.35      4.7248422      43.652037      25.919551      253.90239    
-807680.55      2.7462168      37.598276      25.846654      250.76065    
-807662.44      3.6091086      34.99732       25.797069      247.82821    
-807635.65      3.0406926      32.816402      25.903238      245.04548    
-807607.44      3.5647981      34.326381      25.950777      242.41144    
-807601.37      3.6580841      43.368437      25.904114      239.93298    
-807595.86      3.62323        37.694109      25.869812      237.59279    
-807606.5       4.0915274      35.508602      25.969671      235.34996    
-807642.73      2.9775119      32.329059      25.967014      233.21695    
-807672.1       3.0330376      34.155089      25.931339      231.19086    
-807674.86      2.5730272      34.139652      25.878532      229.26606    
-807642.77      4.4690305      39.632353      25.952541      227.41061    
-807647.9       3.2168345      31.692527      25.942845      225.6343     
-807620.51      4.3885788      35.243869      25.961986      223.92594    
-807595.87      3.8222963      43.621887      25.893255      222.29551    
-807569.8       4.1765168      41.771864      25.973322      220.71245    
-807624.47      3.6366512      35.444198      25.934692      219.19269    
-807649.83      3.9177963      36.128219      25.897143      217.73161    
-807670.93      2.8614415      35.269345      25.869331      216.32371    
-807643.29      5.2799229      45.637985      25.898932      214.95673    
-807666.33      3.0821676      35.542816      25.91464       213.63008    
-807645.99      4.0378453      35.370054      25.924005      212.34213    
-807619.75      3.1173629      37.455872      25.940081      211.08951    
-807564.89      3.6997576      42.533063      25.958018      209.86984    
-807599.94      3.7037579      42.790862      25.949686      208.68465    
-807625.65      2.8705467      34.431945      25.922864      207.53435    
-807651.41      3.1857216      33.034725      25.965498      206.40799    
-807643.95      4.3172908      40.447697      25.938573      205.31297    
-807671.23      3.3462951      35.755536      25.905867      204.24825    
-807665.03      3.4319832      34.494935      25.824846      203.21801    
-807639.29      3.8853325      32.444281      25.901026      202.20171    
-807599.99      3.5085644      36.076813      25.929014      201.20428    
-807596.29      3.6534306      39.76534       25.911544      200.22993    
-807602.58      3.9375562      40.920814      25.804796      199.28745    
-807617.22      3.5794051      33.596151      25.88819       198.35432    
-807636.17      4.8202728      34.220025      25.929634      197.43468    
-807664.34      3.8528566      33.816435      25.900117      196.53536    
-807673.9       3.2545171      35.692747      25.849389      195.6576     
-807646.28      4.224108       37.561787      25.91585       194.78841    
-807633.61      3.2019018      33.150957      25.936299      193.93207    
-807615.72      3.9850924      35.20077       25.913917      193.09218    
-807601.1       4.1614683      43.76716       25.858403      192.27119    
-807578.43      3.8710936      40.62006       25.911423      191.45795    
-807614.11      3.2020052      35.996921      25.93932       190.6545     
-807646.25      3.8299142      36.254758      25.927319      189.86409    
-807670.87      3.5199479      36.381914      25.861327      189.09103    
-807647.44      4.7012134      42.286559      25.87914       188.32712    
-807652.34      3.6155476      36.075536      25.935998      187.56859    
-807643.53      3.8115805      35.116956      25.926211      186.82099    
-807622.5       3.5556355      37.952249      25.905881      186.08475    
-807574.78      4.4640416      40.677913      25.92776       185.35591    
-807588.2       3.2039131      40.261552      25.96312       184.63309    
-807625.68      3.4135167      33.817881      25.938484      183.92092    
-807654.86      3.615098       33.454238      25.927408      183.21789    
-807646.29      4.2128072      38.471636      25.925244      182.52296    
-807656.98      4.6431225      37.06978       25.808242      181.84471    
-807662.2       3.0723431      34.989382      25.863406      181.16934    
-807643.16      3.7611715      33.746473      25.851587      180.50182    
-807600.15      4.4077925      37.949939      25.90186       179.83727    
-807583.67      3.8488976      40.655985      25.928141      179.17735    
-807603.53      3.8361137      41.167828      25.864975      178.52834    
-807624.77      4.0966302      34.504866      25.903524      177.88264    
-807635.24      3.2445504      34.366879      25.947791      177.23976    
-807651.31      3.567805       36.998999      25.921705      176.60445    
-807669.98      2.5815582      35.859333      25.849888      175.97957    
-807652.16      4.4267346      35.239546      25.863864      175.35898    
-807628.56      3.5219157      33.850133      25.88497       174.74208    
-807606.98      3.6849465      35.806756      25.944288      174.12627    
-807603.19      4.0232488      42.709241      25.880534      173.51947    
-807595.22      3.6617221      38.346323      25.862242      172.91847    
-807613.96      3.9290311      35.837322      25.924014      172.31806    
-807643.04      4.0115019      34.385642      25.953943      171.72022    
-807667.31      2.9833516      35.25445       25.894215      171.13037    
-807657.02      4.0034018      36.600491      25.849216      170.54736    
-807645.35      3.9327179      34.836368      25.887113      169.966      
-807637.95      3.7726772      32.68255       25.932034      169.38587    
-807622.58      4.1754869      36.220438      25.905825      168.81107    
-807591.28      3.1276898      37.791074      25.866321      168.2422     
-807589.53      3.7566184      38.829202      25.91018       167.67436    
-807624.72      2.7782732      33.903276      25.92485       167.10915    
-807655.58      3.6251062      33.691387      25.905623      166.54839    
-807655.23      3.6135834      35.168144      25.862406      165.99328    
-807649.54      4.0106383      37.758821      25.826737      165.44322    
-807656.92      3.6780569      33.734143      25.88359       164.89309    
-807642.54      3.3086485      33.974221      25.898407      164.34516    
-807609.7       3.0004136      35.431241      25.902676      163.79992    
-807583.63      4.1697187      38.37858       25.876147      163.2589     
-807605.31      4.1310492      38.013932      25.896328      162.71958    
-807632.82      4.2095845      32.563196      25.870247      162.18426    
-807644.08      2.8360142      33.746908      25.85916       161.65209    
-807647.84      4.0817099      37.08241       25.851111      161.12282    
-807665.17      2.9210564      35.191087      25.871789      160.59498    
-807653.94      3.2256589      34.066611      25.852398      160.07047    
-807631.14      3.3708665      33.131291      25.87336       159.54727    
-807598.4       4.1268973      37.377843      25.909607      159.02464    
-807601.9       3.5800725      40.898486      25.910137      158.50425    
-807603.31      4.2233814      37.625008      25.858477      157.98844    
-807622.91      3.701691       34.017095      25.861396      157.4746     
-807637.13      4.365642       35.731219      25.890137      156.96151    
-807665.36      3.1784403      34.896979      25.818978      156.45364    
-807656.37      3.0982772      36.332534      25.801247      155.94848    
-807646.93      4.010592       34.127378      25.869447      155.44216    
-807623.92      3.9856642      35.214079      25.871191      154.93765    
-807617.94      3.2945831      36.622968      25.889594      154.43417    
-807595.31      3.7174383      39.147989      25.860135      153.93375    
-807597.29      3.1441813      37.507678      25.88474       153.43402    
-807621.68      4.2527149      33.974405      25.907301      152.93508    
-807652.31      3.4013047      33.813349      25.845618      152.44038    
-807656.63      4.1785851      35.519961      25.79112       151.94952    
-807649.67      3.2677828      35.975961      25.870433      151.45698    
-807646.61      3.5761657      33.820114      25.930206      150.96361    
-807636.16      4.0502131      33.612858      25.878368      150.47385    
-807611.92      3.9368615      36.766125      25.935194      149.98338    
-807584.9       3.6736924      38.707077      25.916014      149.49515    
-807604.76      3.7193527      36.606798      25.926009      149.00801    
-807633.51      3.6116512      32.92138       25.874889      148.52424    
-807650.74      2.5795449      33.305753      25.8753        148.04183    
-807644.68      4.1161031      37.165929      25.855199      147.56151    
-807656.8       2.777422       34.801753      25.884487      147.08141    
-807647.91      4.850737       34.946289      25.864601      146.60333    
-807633.65      3.3294557      33.176021      25.91957       146.12451    
-807593         4.5297578      38.078283      25.91274       145.64721    
-807598.34      4.246088       39.612885      25.917322      145.17097    
-807608.66      3.8589504      37.76356       25.863335      144.69785    
-807633.14      2.7774858      33.651948      25.884024      144.22516    
-807637.07      4.1147075      36.540852      25.916215      143.7525     
-807657.93      2.9674441      35.323022      25.855097      143.28307    
-807657.8       3.165069       34.841183      25.824711      142.81576    
-807645.16      3.0011585      33.784484      25.860317      142.34829    
-807619.11      3.4245227      33.839117      25.874309      141.88139    
-807609.41      2.6508675      35.653849      25.914048      141.41422    
-807602.25      3.6513031      38.050084      25.859748      140.94986    
-807611.99      3.0012236      34.009573      25.873294      140.48604    
-807625.75      3.2062044      33.195279      25.863017      140.02352    
-807651.57      3.2349414      32.439048      25.904371      139.56064    
-807661.7       3.3669581      34.0427        25.869312      139.09981    
-807650.96      3.1500943      34.440308      25.861219      138.64015    
-807640.28      3.2652279      32.843519      25.867036      138.18121    
-807628.39      3.3500387      32.90689       25.899283      137.72217    
-807612.85      3.0890357      37.141512      25.818727      137.26645    
-807594.78      3.5161069      36.802233      25.849584      136.81063    
-807608.72      3.6362546      35.560573      25.906673      136.35394    
-807633.09      2.7009371      33.489914      25.879327      135.89889    
-807655.45      2.865244       33.861484      25.833237      135.44601    
-807649.62      3.6637369      35.968371      25.859841      134.99312    
-807649.03      2.9685424      35.212365      25.814737      134.54231    
-807643.78      3.6601669      34.110103      25.848413      134.09128    
-807631.63      3.0908486      33.85796       25.836351      133.64133    
-807600.42      3.0006162      36.383559      25.842866      133.19192    
-807596         2.874272       37.815164      25.901719      132.74159    
-807616.22      2.7919645      34.654084      25.836454      132.29378    
-807640.42      3.2818711      32.693735      25.823779      131.84701    
-807643.72      3.3189544      34.332232      25.892183      131.39906    
-807651.66      3.5619751      35.552325      25.827725      130.95352    
-807654.57      3.0567311      34.343451      25.785974      130.50975    
-807645.32      2.8968377      32.882888      25.781433      130.06672    
-807616.17      3.0260167      34.813404      25.856119      129.62233    
-807599.88      2.9528536      37.309706      25.92254       129.17686    
-807603.48      3.059756       38.350409      25.909898      128.73236    
-807619.74      2.89757        34.981838      25.888601      128.28903    
-807629.56      3.2399376      34.685908      25.888536      127.84632    
-807646.53      3.9175363      34.60368       25.905815      127.40379    
-807657.18      2.4552369      35.702931      25.862616      126.96292    
-807651.58      3.6551279      35.432467      25.874295      126.52234    
-807635.18      3.3813478      34.163491      25.926347      126.08106    
-807615.72      3.9395653      35.466782      25.935786      125.64014    
-807609.24      3.9025672      37.779202      25.906232      125.2005     
-807602.14      3.6942728      37.519862      25.877045      124.76211    
-807612.98      3.2676567      35.642713      25.859654      124.32466    
-807631.68      3.6144157      34.658056      25.866442      123.88758    
-807655.39      2.7052762      34.223521      25.85901       123.45118    
-807650.78      2.8123343      35.715889      25.853103      123.01542    
-807644.59      3.6965682      35.056507      25.899611      122.5791     
-807635.33      3.1082227      33.664761      25.90859       122.14308    
-807626.2       3.3407173      35.202842      25.907704      121.70758    
-807603.27      3.4855107      36.95069       25.860462      121.27362    
-807600.06      3.1548913      36.795454      25.903978      120.83918    
-807617.45      3.2040021      34.590831      25.8887        120.40554    
-807643         3.5592069      33.247756      25.855185      119.97309    
-807645.59      3.6252863      34.744428      25.835237      119.54152    
-807646.22      3.346434       35.514229      25.845189      119.11017    
-807647.93      3.823414       34.255422      25.890113      118.6783     
-807640.76      3.3614609      33.067352      25.899943      118.24666    
-807618.78      2.8285298      34.66827       25.863569      117.81621    
-807598.08      3.1352856      36.971685      25.871513      117.38601    
-807607.39      3.2070589      36.792813      25.866676      116.95633    
-807625.41      3.0784094      34.723584      25.891064      116.52656    
-807638.2       3.1249887      33.431504      25.876928      116.09748    
-807641.54      3.5704064      36.236569      25.909448      115.66816    
-807653.93      3.1308832      34.764859      25.835111      115.24071    
-807648.84      3.7541702      34.157637      25.876427      114.81282    
-807633.37      3.6273254      33.4276        25.885657      114.38513    
-807610.18      3.6540609      35.569874      25.904976      113.95745    
-807606.87      2.8805799      37.094667      25.893358      113.53037    
-807609.72      3.2883336      35.717881      25.833694      113.1048     
-807624.12      2.7685789      33.092944      25.86319       112.67902    
-807633.91      3.2875871      32.993353      25.905515      112.2528     
-807654.28      3.5029971      32.62905       25.922517      111.82662    
-807653.52      2.7456544      34.00223       25.844722      111.40224    
-807643.4       3.2690375      33.045276      25.850966      110.97808    
-807627.48      3.4296566      33.145723      25.885891      110.55361    
-807620.28      2.9566171      34.834079      25.86683       110.12983    
-807607.34      3.0567664      36.120869      25.840464      109.70684    
-807607.62      3.058082       35.41958       25.813965      109.28463    
-807620.57      3.1198937      34.716688      25.872659      108.8617     
-807645.06      2.8354481      33.542177      25.921738      108.43823    
-807650.85      3.3623304      34.9265        25.797263      108.01723    
-807646.99      3.657863       34.949095      25.822885      107.59608    
-807640.06      3.5253788      34.822139      25.825162      107.17518    
-807634.48      3.2393726      33.425465      25.846672      106.7542     
-807617.79      3.0887255      35.451009      25.817782      106.334      
-807601         2.8107583      36.539549      25.849248      105.91355    
-807609.3       2.9819871      35.836952      25.845949      105.49344    
-807628.77      2.6937599      34.692731      25.841672      105.07368    
-807644.71      2.7445955      33.359136      25.814635      104.65462    
-807643.6       3.3473657      35.05512       25.865447      104.23502    
-807648.73      3.0811262      33.907452      25.854859      103.81585    
-807643.11      3.7038284      33.827555      25.844494      103.39712    
-807632.18      3.5481829      33.79415       25.872392      102.9782     
-807607.96      3.0706628      35.660438      25.914949      102.5589     
-807606.67      3.5890208      37.88019       25.933264      102.13958    
-807614.36      3.9059789      35.612477      25.920405      101.72073    
-807633.09      3.4448698      33.949725      25.870457      101.3029     
-807634.95      3.4621415      35.10255       25.881119      100.88517    
-807652.67      3.3317682      33.740648      25.905398      100.46732    
-807649.44      2.7048576      34.691637      25.890404      100.04995    
-807645.45      3.1773627      32.620456      25.834538      99.633651    
-807621.81      3.8904505      34.126243      25.879935      99.216917    
-807613.11      3.554823       35.170604      25.909739      98.799992    
-807609.52      3.1068947      36.252756      25.868321      98.383904    
-807615.58      2.7396009      35.011949      25.82867       97.968612    
-807625.86      2.8043908      33.31167       25.83768       97.55341     
-807642.04      3.2358584      33.552124      25.801591      97.138936    
-807653.62      2.9398902      33.324814      25.849906      96.723995    
-807648.27      3.8255114      34.294783      25.858842      96.309146    
-807636.8       4.4233522      34.43303       25.91062       95.893806    
-807625.06      3.4735055      34.455169      25.936157      95.478344    
-807615.15      3.5541468      37.06301       25.906209      95.063512    
-807603.93      3.857396       37.343205      25.867994      94.649407    
-807613.33      3.1554292      35.903572      25.859883      94.235619    
-807629.83      3.6433304      35.157824      25.837517      93.822328    
-807647.3       2.9585703      34.594331      25.834449      93.409274    
-807644.32      3.4525488      36.527553      25.841574      92.996322    
-807645.45      2.9575229      34.677349      25.913983      92.582634    
-807636.31      3.8513905      34.781411      25.91706       92.169113    
-807627.09      2.8650984      34.916809      25.886912      91.756176    
-807606.67      3.7407055      35.920102      25.905154      91.343206    
-807605.5       3.5868323      37.253183      25.929389      90.930135    
-807616.71      3.5969897      35.672857      25.838538      90.518381    
-807636.82      3.3170063      34.203616      25.883786      90.106254    
-807639.18      3.7906206      36.095336      25.904831      89.69406     
-807646.44      3.5478742      35.547921      25.898608      89.282128    
-807644.95      4.1343319      35.707064      25.909331      88.870255    
-807637.51      3.7766387      35.332196      25.910133      88.458559    
-807617.5       4.4555962      36.365757      25.909612      88.047052    
-807606.88      3.5955091      37.068356      25.89001       87.635954    
-807608.57      5.122562       37.185667      25.897185      87.224951    
-807621.75      3.9047413      35.309831      25.792889      86.81532     
-807630.6       4.3243315      35.502867      25.789392      86.405884    
-807643.47      2.938365       34.384597      25.800601      85.996472    
-807650.73      2.6891038      34.813722      25.838762      85.586785    
-807645.27      3.6654822      34.65084       25.866162      85.176952    
-807633.08      2.9195163      34.156774      25.891247      84.767004    
-807616.44      3.3384321      36.067082      25.923128      84.356874    
-807611.12      2.9486866      37.633414      25.890259      83.947266    
-807609.42      3.2086687      36.934721      25.834925      83.538413    
-807619.86      3.3701203      36.21563       25.865644      83.129382    
-807633.22      3.3503911      34.724109      25.85204       82.720648    
-807648.64      2.7605252      35.112951      25.912647      82.311428    
-807646.61      3.4445753      35.983565      25.890798      81.902593    
-807644.06      3.2941667      34.005234      25.927973      81.493529    
-807631.44      3.6081188      33.598269      25.936525      81.084536    
-807622.88      3.5805055      34.934432      25.910846      80.675959    
-807609.7       3.5386459      36.388917      25.854108      80.268103    
-807611.3       3.4669287      36.132493      25.870958      79.860219    
-807621.72      3.5066437      35.125284      25.838785      79.452795    
-807640.12      2.9196064      34.239182      25.862144      79.045277    
-807646.78      4.3043319      34.050984      25.875591      78.637767    
-807645.22      3.4647383      34.404196      25.910832      78.230055    
-807642.1       3.0036727      33.547031      25.8871        77.822713    
-807633.26      2.5536807      33.627956      25.875072      77.415622    
-807620.97      2.6856867      33.650766      25.882584      77.008595    
-807607.67      2.9754842      35.645896      25.872524      76.601796    
-807615.77      3.0200746      34.662468      25.833018      76.195494    
-807626.25      2.853041       34.13734       25.808051      75.789545    
-807641.24      2.950474       33.36383       25.826672      75.383545    
-807644.33      4.0057656      35.057621      25.883384      74.977154    
-807647.44      4.001859       34.939866      25.889829      74.570834    
-807641.29      3.2449594      34.964332      25.918529      74.164388    
-807630.28      3.7444393      35.481491      25.898783      73.758246    
-807613.93      4.1305924      36.345165      25.922945      73.352022    
-807610.36      3.7021088      36.832627      25.905891      72.946073    
-807614.31      3.8112032      36.429005      25.901491      72.540287    
-807628.19      2.9344281      33.515806      25.867228      72.134914    
-807637.25      4.893649       34.045255      25.914523      71.729262    
-807648.44      3.1671809      34.035138      25.900155      71.323853    
-807646.71      3.4172802      34.653075      25.882921      70.918706    
-807641.49      2.6821133      34.12369       25.905007      70.513494    
-807627.03      3.6688533      34.198461      25.926533      70.108227    
-807615.32      3.4468089      35.667892      25.918039      69.703148    
-807608.62      3.6088831      37.08695       25.854965      69.29869     
-807614.05      3.3352878      36.090268      25.888305      68.894077    
-807627.46      3.2014064      34.705368      25.897909      68.4895      
-807640.45      3.3493087      34.557045      25.92459       68.084829    
-807646.77      3.2463767      35.536712      25.881319      67.680604    
-807645.57      3.4516706      34.499117      25.930515      67.276114    
-807638.73      3.8271502      35.334596      25.903147      66.871943    
-807625.42      3.0614142      34.752102      25.901081      66.467896    
-807613.73      3.5148438      36.038112      25.919714      66.063819    
-807606.55      4.1362408      37.428383      25.884159      65.660112    
-807613.81      3.1319944      36.164416      25.863077      65.256662    
-807630.38      4.0287503      34.827288      25.87789       64.853205    
-807642.62      2.9288185      34.077563      25.903588      64.449664    
-807645.3       3.2597994      35.248308      25.854059      64.046579    
-807645.06      2.7979745      34.439185      25.854274      63.643587    
-807637.77      3.294748       34.486111      25.837819      63.240806    
-807624.4       3.8431355      34.342014      25.882264      62.837809    
-807610.58      3.7575517      35.564459      25.87956       62.434928    
-807608.45      3.1334562      36.645255      25.858593      62.032285    
-807617.67      4.1450174      34.699465      25.859919      61.629725    
-807630.89      3.3228189      34.50057       25.837422      61.227407    
-807639.78      3.380365       34.816497      25.854577      60.825063    
-807647.27      3.9168797      34.548514      25.857178      60.422793    
-807644.43      3.3804112      35.035957      25.885394      60.020428    
-807636.49      3.2829181      34.346337      25.851039      59.618376    
-807621.86      3.8513713      34.767874      25.867918      59.216303    
-807612.64      3.2421505      35.548044      25.897305      58.814134    
-807609.66      3.6935043      36.4087        25.858397      58.412297    
-807620.68      3.1724129      34.2822        25.811321      58.010837    
-807630.98      2.9919223      33.845459      25.867922      57.609109    
-807642.87      3.6224442      34.111436      25.846284      57.207598    
-807647.4       3.1117417      35.176285      25.836989      56.806224    
-807645.35      2.9210399      33.586891      25.860204      56.404792    
-807634.84      3.3130909      33.427984      25.890501      56.003265    
-807621.71      3.1637783      34.33583       25.92062       55.601648    
-807614.17      2.9077606      34.983635      25.900683      55.200233    
-807611.57      3.4113572      35.097012      25.922478      54.798779    
-807622.16      3.1619653      34.080906      25.871559      54.397698    
-807634.3       2.8653601      33.313401      25.836886      53.996891    
-807646.42      3.1323016      33.374276      25.825711      53.596221    
-807645.69      3.6184926      34.517612      25.888287      53.195282    
-807643.59      2.6427655      33.591825      25.866927      52.794539    
-807632.61      3.4183782      34.482373      25.90437       52.393672    
-807623.67      2.8659452      34.206383      25.869946      51.993067    
-807610.23      3.5646587      35.579358      25.871732      51.59253     
-807614.32      3.2249056      35.446092      25.925768      51.191787    
-807623.13      3.5542089      34.605796      25.860611      50.79146     
-807637.65      3.4039495      33.956327      25.844273      50.39129     
-807643.21      3.9207369      34.519255      25.866324      49.991079    
-807646.27      3.4838435      34.441684      25.88253       49.59086     
-807640.67      3.4463874      34.400381      25.909672      49.190581    
-807632.99      2.9105202      33.93255       25.913034      48.790361    
-807618.51      2.7703598      34.489252      25.926768      48.390152    
-807610.27      3.5997924      36.22063       25.898326      47.990154    
-807614.49      3.530926       35.239956      25.856903      47.590425    
-807624.58      4.2277926      34.546163      25.826205      47.190907    
-807636.14      3.0063893      34.155889      25.81975       46.791484    
-807642.95      3.8472718      35.668115      25.847945      46.391995    
-807646.63      2.8508347      34.646126      25.846914      45.992576    
-807638.9       3.7074393      35.141468      25.864376      45.593145    
-807629.05      2.970028       34.315816      25.899197      45.193626    
-807618.52      3.4556622      35.243836      25.927534      44.794053    
-807612.92      3.2073068      36.03911       25.896115      44.394687    
-807614.94      3.5412448      36.172567      25.854241      43.995567    
-807624.43      3.5579593      35.300302      25.847805      43.596538    
-807635.61      3.6951733      34.720869      25.798745      43.197776    
-807644.72      4.0254308      34.730372      25.807571      42.799034    
-807642.51      3.7874799      35.605206      25.806268      42.400355    
-807638.51      3.6171869      34.315219      25.856328      42.001531    
-807626.46      3.1956792      34.562089      25.860457      41.602752    
-807618.51      2.9683627      35.053984      25.869913      41.203996    
-807613.04      2.73103        35.870864      25.870652      40.805299    
-807616.92      3.04933        35.519419      25.849004      40.406746    
-807627.34      2.6459674      34.826654      25.840365      40.008285    
-807637.95      3.1027403      34.543606      25.834066      39.609904    
-807643.32      3.3108525      35.098838      25.8226        39.211622    
-807641.21      3.471874       35.060571      25.843499      38.813319    
-807636.28      3.4975625      34.517008      25.867918      38.414984    
-807625.35      3.5649389      35.586155      25.891606      38.016623    
-807617.15      2.8034215      36.026835      25.842309      37.618495    
-807611.19      3.1755048      36.316599      25.843252      37.220419    
-807619.51      3.1317436      34.707066      25.824989      36.82246     
-807629.67      2.953691       34.28321       25.847838      36.424477    
-807639.73      3.7052846      34.276079      25.858574      36.026512    
-807641.77      3.0342384      34.730186      25.831321      35.628691    
-807643.11      3.0734242      34.219514      25.830021      35.230927    
-807635.01      4.3248817      35.197633      25.868292      34.833092    
-807624.63      3.8301807      35.65749       25.861241      34.435333    
-807615.45      3.3366118      35.384513      25.847492      34.037671    
-807613.3       3.4229833      36.06857       25.854984      33.640038    
-807621.15      3.5602751      34.910168      25.852183      33.242465    
-807629.8       3.3475606      34.915256      25.87197       32.844886    
-807639.99      2.98294        34.538269      25.88531       32.44732     
-807643.37      3.4449639      34.232473      25.860938      32.049878    
-807643.58      3.2934463      33.410011      25.890145      31.652404    
-807637.13      3.150538       32.955701      25.935287      31.254858    
-807623.88      3.4078596      34.290042      25.940921      30.857352    
-807617.34      2.9664802      34.858438      25.935654      30.459918    
-807617.13      3.829372       34.718466      25.917317      30.062589    
-807623.04      2.6798478      33.127681      25.918569      29.66531     
-807631.46      3.6401219      34.18447       25.968261      29.267957    
-807639.61      3.5890734      34.392431      25.960553      28.870681    
-807646.13      2.9664022      34.064284      25.955132      28.473475    
-807640.45      3.1401357      34.78076       25.954097      28.076327    
-807635.25      3.0522742      33.674589      25.93703       27.679275    
-807623.24      3.3390356      34.922813      25.955245      27.282234    
-807616.02      3.8616796      35.511307      25.963368      26.885228    
-807617.35      2.9410836      34.529221      25.913119      26.488392    
-807622.96      3.9775149      34.058096      25.932455      26.091563    
-807635.21      3.4190098      33.408484      25.85355       25.694961    
-807641.29      3.6760744      34.486126      25.870825      25.298367    
-807644.59      3.4167002      33.704931      25.921384      24.901709    
-807639.78      3.5623974      33.90579       25.929806      24.505084    
-807632.16      2.9704067      33.238731      25.907276      24.108555    
-807622.84      3.2118028      34.249409      25.934254      23.71202     
-807616.38      2.7615503      34.776521      25.915731      23.31557     
-807613.85      3.5714214      35.730737      25.93167       22.919138    
-807624.88      3.15973        34.564993      25.960228      22.5227      
-807635.76      3.5988681      33.799043      25.93122       22.126367    
-807639.58      3.5320851      35.176086      25.932492      21.730079    
-807643.03      4.6699987      35.014113      25.929726      21.333845    
-807638.34      3.1289974      35.056716      25.937162      20.937644    
-807631.99      4.6639585      34.595881      25.959099      20.541453    
-807619.38      3.3861461      35.294036      25.941715      20.145341    
-807614.75      3.9727135      35.620275      25.917336      19.749316    
-807616.54      4.8761702      36.213486      25.921681      19.353329    
-807623.79      4.2523681      35.804217      25.866703      18.957474    
-807633.79      4.4235271      35.030165      25.871512      18.561653    
-807639.24      2.9432053      35.248207      25.902243      18.165827    
-807642.44      3.621686       35.710707      25.95199       17.76997     
-807636.35      2.8018365      35.043256      25.925684      17.374197    
-807630.3       3.8462085      34.658221      25.917861      16.978478    
-807619.31      2.9704747      35.263256      25.901072      16.582826    
-807614.95      3.3890319      35.992234      25.919344      16.187192    
-807617.51      3.166702       35.227038      25.926525      15.791591    
-807626.57      2.7980875      34.495036      25.930502      15.396027    
-807635.69      2.4300263      33.54384       25.882765      15.000565    
-807640.25      3.1360489      34.726025      25.944833      14.605069    
-807641.09      2.8148819      35.0477        25.917078      14.209648    
-807634.95      3.4211675      34.858547      25.91099       13.814275    
-807628.18      2.9067506      34.70455       25.926337      13.418926    
-807619.64      3.7742524      35.733423      25.943968      13.023599    
-807613.79      3.50627        36.433378      25.899971      12.62836     
-807617.79      3.2500055      35.912652      25.91993       12.23314     
-807627.72      4.1502478      34.776024      25.944649      11.837937    
-807635.88      3.367805       34.883602      25.930732      11.442787    
-807640.03      3.7797922      34.611452      25.923182      11.047685    
-807639.1       2.6935209      34.971223      25.928379      10.652618    
-807635.87      3.1301792      34.896924      25.948237      10.257574    
-807626.23      3.5751849      35.073791      25.945091      9.8625733    
-807618.67      3.1486681      36.818387      25.936617      9.4676193    
-807614.72      3.5983658      36.793342      25.910324      9.0727235    
-807619.61      3.296771       36.258899      25.907713      8.6778669    
-807627.19      4.4247021      36.486335      25.88904       8.2830596    
-807636.88      3.6403601      34.759342      25.924285      7.8882659    
-807639.8       5.0665959      35.416099      25.935772      7.4935033    
-807638.8       3.9945821      35.051978      25.884585      7.0988072    
-807634.34      4.4060903      34.641465      25.856585      6.7041605    
-807625.82      3.5487646      34.633972      25.887805      6.309531     
-807619.99      3.907858       34.792929      25.923732      5.9149194    
-807616.62      3.2988487      35.475809      25.944029      5.5203355    
-807621.84      3.2008305      34.839744      25.924497      5.125797     
-807630.93      3.8084864      34.687461      26.000214      4.7312669    
-807636.34      2.9042587      34.366194      26.009419      4.3367743    
-807639.17      3.8030681      35.245545      25.979824      3.9423315    
-807639.31      2.9653652      35.067667      26.029363      3.5479141    
-807633.32      3.7572788      35.174045      26.035696      3.1535368    
-807626         3.6563421      34.98808       25.936707      2.759222     
-807619.71      3.4212961      34.106271      25.987435      2.3649336    
-807618.01      4.7070934      35.705443      25.989312      1.9706832    
-807625.93      3.4013729      33.51864       25.95128       1.5764756    
-807630.96      3.5843708      34.121523      25.975512      1.1823015    
-807635.88      3.2599321      33.743343      25.927015      0.78816729   
-807640.64      4.112977       34.990714      25.938021      0.39406651   
-807638.42      3.1972746      34.65586       25.944309      0            
Loop time of 197.025 on 32 procs for 5000 steps with 1080 atoms

Performance: 4.385 ns/day, 5.473 hours/ns, 25.378 timesteps/s, 27.408 katom-step/s
67.5% CPU use with 32 MPI tasks x 1 OpenMP threads

MPI task timing breakdown:
Section |  min time  |  avg time  |  max time  |%varavg| %total
---------------------------------------------------------------
Pair    | 100.33     | 144.3      | 192.9      | 313.0 | 73.24
Neigh   | 0          | 0          | 0          |   0.0 |  0.00
Comm    | 1.8273     | 50.432     | 94.403     | 529.4 | 25.60
Output  | 0.026784   | 0.027326   | 0.028895   |   0.2 |  0.01
Modify  | 1.9403     | 1.9457     | 1.9521     |   0.2 |  0.99
Other   |            | 0.3176     |            |       |  0.16

Nlocal:          33.75 ave          48 max          21 min
Histogram: 8 8 0 0 0 0 0 8 0 8
Nghost:        1106.25 ave        1119 max        1092 min
Histogram: 8 0 8 0 0 0 0 0 8 8
Neighs:              0 ave           0 max           0 min
Histogram: 32 0 0 0 0 0 0 0 0 0
FullNghs:       5494.5 ave        7896 max        3378 min
Histogram: 8 8 0 0 0 0 0 8 0 8

Total # of neighbors = 175824
Ave neighs/atom = 162.8
Neighbor list builds = 0
Dangerous builds = 0

reset_timestep 0


variable interval equal 1000
thermo 10

variable nintervals equal $(v_PERIOD/v_interval)
variable nintervals equal 100
variable efield equal 1e-2*36.36*cos((step/${PERIOD})*2*3.14)
variable efield equal 1e-2*36.36*cos((step/100000)*2*3.14)
fix born all addbornforce 0.0 0.0 v_efield

variable Px equal f_born[1]+c_polarization[1]
variable Py equal f_born[2]+c_polarization[2]
variable Pz equal (f_born[3]+c_polarization[3])/vol
variable pe equal pe

fix aveP all ave/time 1 $(v_interval/2) ${interval} v_efield v_Pz v_pe f_born file Pz.${MODEL}.${STRUCTURE}.${TEMP}.$L.${ITER}
fix aveP all ave/time 1 500 ${interval} v_efield v_Pz v_pe f_born file Pz.${MODEL}.${STRUCTURE}.${TEMP}.$L.${ITER}
fix aveP all ave/time 1 500 1000 v_efield v_Pz v_pe f_born file Pz.${MODEL}.${STRUCTURE}.${TEMP}.$L.${ITER}
fix aveP all ave/time 1 500 1000 v_efield v_Pz v_pe f_born file Pz.BaTiO3-E0.${STRUCTURE}.${TEMP}.$L.${ITER}
fix aveP all ave/time 1 500 1000 v_efield v_Pz v_pe f_born file Pz.BaTiO3-E0.BaTiO3-sc333.${TEMP}.$L.${ITER}
fix aveP all ave/time 1 500 1000 v_efield v_Pz v_pe f_born file Pz.BaTiO3-E0.BaTiO3-sc333.320.$L.${ITER}
fix aveP all ave/time 1 500 1000 v_efield v_Pz v_pe f_born file Pz.BaTiO3-E0.BaTiO3-sc333.320.2.${ITER}
fix aveP all ave/time 1 500 1000 v_efield v_Pz v_pe f_born file Pz.BaTiO3-E0.BaTiO3-sc333.320.2.5

thermo_style custom step time temp press pe f_born v_efield v_Pz spcpu cpuremain

# dump 4a all custom 1000 dump.hyst.${MODEL}.${STRUCTURE}.${TEMP}.$L.${ITER}.bin id type xu yu zu fx fy fz
# dump_modify 4a sort id

fix nvt all nvt temp ${TEMP} ${TEMP} $(100*dt)
fix nvt all nvt temp 320 ${TEMP} $(100*dt)
fix nvt all nvt temp 320 320 $(100*dt)
fix nvt all nvt temp 320 320 0.2000000000000000111

run $(v_PERIOD)
run 100000
WARNING: non-constant efield is experimental, strongly distrust scalar/vector output (src/fix_addbornforce.cpp:193)
Per MPI rank memory allocation (min/avg/max) = 3.516 | 3.516 | 3.516 Mbytes
   Step          Time           Temp          Press          PotEng         f_born        v_efield         v_Pz          S/CPU         CPULeft    
         0   0              302.49388      128454.33     -807638.42     -293.65558      0.3636         0.055228328    0              0            
        10   0.02           314.80233      129158.23     -807634.58     -299.44212      0.36359993     0.056316625    28.354003      3526.5008    
        20   0.04           313.45215      139750.23     -807624.04     -309.65243      0.36359971     0.058236931    28.530084      3515.2621    
        30   0.06           311.11573      140552.38     -807621.13     -312.29253      0.36359935     0.058733518    28.511234      3512.0523    
        40   0.08           314.27601      144179.55     -807619.25     -314.40893      0.36359885     0.059131634    28.517276      3510.087     
        50   0.1            320.77263      137559.5      -807624.79     -309.8145       0.36359821     0.058267653    28.55201       3507.9153    
        60   0.12           317.89602      135595.62     -807628.79     -305.19415      0.36359742     0.057398816    28.484456      3507.733     
        70   0.14           315.1155       125925.06     -807639.63     -293.87978      0.36359649     0.055271029    28.549044      3506.369     
        80   0.16           297.55811      127040.64     -807638.33     -292.3851       0.36359541     0.054990081    28.587222      3504.6744    
        90   0.18           313.68628      125462.21     -807639.56     -293.36619      0.36359419     0.055174784    28.614153      3502.9131    
       100   0.2            326.74598      133920.53     -807631.38     -303.09601      0.36359283     0.057004931    28.666699      3500.7943    
       110   0.22           318.71128      137052.25     -807625.34     -307.85146      0.36359132     0.057899554    28.60743       3499.6539    
       120   0.24           324.56394      142782.33     -807619.98     -313.62679      0.36358968     0.058986024    28.585042      3498.8729    
       130   0.26           316.30797      142303.24     -807618.03     -314.23502      0.36358788     0.059100709    28.589991      3498.1113    
       140   0.28           319.59488      139847.24     -807622.14     -310.26377      0.36358595     0.058354116    28.618523      3497.1605    
       150   0.3            318.62263      132152.8      -807631.63     -300.32109      0.36358387     0.05648443     28.593839      3496.49      
       160   0.32           319.88631      127091.6      -807638.57     -293.21481      0.36358165     0.055148217    28.605973      3495.7673    
       170   0.34           312.51329      126254.22     -807638.45     -292.12147      0.36357928     0.054942937    28.504366      3495.8206    
       180   0.36           321.78956      127793.16     -807636.57     -295.13798      0.36357677     0.055510672    28.510342      3495.7877    
       190   0.38           330.24024      133851.24     -807630.52     -302.12351      0.36357412     0.056824953    28.505234      3495.7548    
       200   0.4            328.94387      139098.2      -807623.44     -308.94187      0.36357132     0.058107831    28.521701      3495.5888    
       210   0.42           328.51778      144679.27     -807616.59     -315.6378       0.36356838     0.059367727    28.61576       3494.8574    
       220   0.44           324.27579      141720.27     -807617.94     -313.70275      0.3635653      0.059004268    28.568166      3494.425     
       230   0.46           322.98144      139614.68     -807623.14     -308.1227       0.36356207     0.057955231    28.676425      3493.4266    
       240   0.48           326.47197      130193.53     -807633.64     -298.19584      0.3635587      0.056088594    28.762822      3492.0466    
       250   0.5            322.87181      128789.83     -807635.28     -295.89232      0.36355519     0.055655856    28.672537      3491.1865    
       260   0.52           314.42942      124995.89     -807638.22     -291.82148      0.36355153     0.054890703    28.673427      3490.3613    
       270   0.54           325.69245      129258.01     -807636.18     -295.358        0.36354773     0.055556493    28.476587      3490.4619    
       280   0.56           328.979        132692.53     -807630.62     -301.4782       0.36354379     0.05670831     28.535974      3490.2699    
       290   0.58           340.61037      140807.64     -807621.44     -312.35134      0.3635397      0.058754217    28.50377       3490.2031    
       300   0.6            321.45087      142799.44     -807616        -315.2263       0.36353547     0.059295695    28.518219      3490.0583    
       310   0.62           319.03063      143119.11     -807618.75     -312.039        0.3635311      0.058696855    28.535986      3489.8301    
       320   0.64           339.39926      135880.92     -807627.68     -306.03406      0.36352658     0.057567995    28.609888      3489.3119    
       330   0.66           331.18396      131515.41     -807631.68     -300.97898      0.36352192     0.056617812    28.705026      3488.4546    
       340   0.68           317.71637      126597.68     -807636.93     -293.89428      0.36351712     0.055285823    28.774869      3487.3791    
       350   0.7            315.69065      125637.83     -807639.49     -291.04787      0.36351217     0.054751116    28.717617      3486.5426    
       360   0.72           316.86424      129243.76     -807635.4      -295.3889       0.36350708     0.055568518    28.696086      3485.8054    
       370   0.74           323.87912      136499.1      -807626.3      -305.64249      0.36350185     0.057498249    28.692389      3485.1013    
       380   0.76           334.76311      140600.7      -807621.67     -311.92675      0.36349647     0.058681329    28.667032      3484.4968    
       390   0.78           311.57939      143802.68     -807616.8      -313.54939      0.36349095     0.058987484    28.744143      3483.6664    
       400   0.8            326.04919      140586.28     -807621.99     -310.56646      0.36348529     0.058427221    28.803018      3482.683     
       410   0.82           328.89799      136845.07     -807625.57     -307.50319      0.36347948     0.057851848    28.644699      3482.1967    
       420   0.84           319.0728       130186.6      -807632.48     -299.33576      0.36347353     0.056316199    28.590225      3481.8748    
       430   0.86           314.06529      126551.98     -807639.68     -291.45612      0.36346744     0.054834665    28.601687      3481.519     
       440   0.88           308.15956      125353.47     -807639.02     -291.40211      0.3634612      0.054825444    28.516821      3481.399     
       450   0.9            315.31775      130420.94     -807632.38     -299.21897      0.36345482     0.056297124    28.517117      3481.2679    
       460   0.92           325.84673      135574.79     -807626.6      -306.59061      0.3634483      0.05768511     28.538238      3481.0711    
       470   0.94           336.80853      140308.04     -807624        -310.75379      0.36344163     0.058469486    28.491366      3480.9898    
       480   0.96           320.85047      143874.25     -807619.93     -312.75953      0.36343482     0.058847976    28.523405      3480.8157    
       490   0.98           316.80764      141835.92     -807619.24     -313.01728      0.36342786     0.058897601    28.513232      3480.6597    
       500   1              326.78026      134979.64     -807628.53     -305.20975      0.36342077     0.057429651    28.523445      3480.4708    
       510   1.02           314.48487      129018.97     -807636.21     -9467.6668      0.36341353     0.055672332    28.502221      3480.3266    
       520   1.04           309.36908      126235.47     -807639.21     -9351.8589      0.36340614     0.054992469    28.516395      3480.141     
       530   1.06           303.46814      126413.38     -807637.37     -9390.8479      0.36339862     0.055222883    28.526559      3479.9258    
       540   1.08           321.71435      131630.86     -807633.82     -9586.7558      0.36339095     0.05637611     28.509054      3479.7453    
       550   1.1            329.82903      135478.51     -807629.36     -9772.4468      0.36338313     0.057469324    28.523962      3479.5253    
       560   1.12           317.10198      142323.66     -807620.62     -9997.3721      0.36337518     0.058793341    28.523877      3479.3009    
       570   1.14           311.22423      142055.47     -807618.81     -10035.54       0.36336707     0.05901912     28.514754      3479.0916    
       580   1.16           316.05862      140742.51     -807621.18     -9984.7728      0.36335883     0.058721888    28.5244        3478.8572    
       590   1.18           316.71361      133429.95     -807630.94     -9681.422       0.36335044     0.056939152    28.519781      3478.6283    
       600   1.2            316.14752      129438.04     -807637.12     -9481.7656      0.36334191     0.055766226    28.512982      3478.4093    
       610   1.22           299.5552       125184.2      -807638.96     -9356.1021      0.36333324     0.05502846     28.506534      3478.1989    
       620   1.24           304.80015      128513.85     -807637.15     -9441.5786      0.36332442     0.055532543    28.534871      3477.9281    
       630   1.26           318.53911      129534.2      -807636.02     -9547.7485      0.36331546     0.056158387    28.494013      3477.734     
       640   1.28           305.94903      138796.1      -807624.95     -9852.7419      0.36330636     0.057953763    28.533785      3477.4591    
       650   1.3            308.39615      141004.46     -807621.54     -9982.2647      0.36329711     0.05871711     28.504439      3477.237     
       660   1.32           301.83358      144375.6      -807618.59     -10051.139      0.36328772     0.059123767    28.507408      3477.0055    
       670   1.34           318.58965      136837.84     -807627.26     -9857.17        0.36327819     0.057984306    28.518758      3476.7497    
       680   1.36           301.16241      134380.55     -807630.01     -9694.6821      0.36326851     0.057029998    28.519366      3476.4901    
       690   1.38           306.46704      127367.4      -807638.4      -9455.1631      0.36325869     0.055622505    28.517957      3476.2303    
       700   1.4            303.25671      126457.15     -807639.93     -9393.029       0.36324873     0.055258501    28.629842      3475.7735    
       710   1.42           298.62185      126911.69     -807638.4      -9424.4244      0.36323863     0.05544474     28.533643      3475.4845    
       720   1.44           311.353        132679.18     -807633.21     -9651.5708      0.36322838     0.056782665    28.570418      3475.1315    
       730   1.46           303.91521      138198.65     -807625.22     -9875.4391      0.36321798     0.058101402    28.530118      3474.8458    
       740   1.48           314.3113       141665.84     -807622.92     -9995.1172      0.36320745     0.058807225    28.591218      3474.458     
       750   1.5            305.85043      141061.9      -807621.48     -9999.752       0.36319677     0.058836224    28.493906      3474.2292    
       760   1.52           315.0905       136228.14     -807627.67     -9840.7686      0.36318595     0.057902528    28.522559      3473.9512    
       770   1.54           311.8472       132469.16     -807633.2      -9643.4969      0.36317498     0.056743506    28.523945      3473.669     
       780   1.56           305.17887      126670.42     -807638.75     -9429.5101      0.36316387     0.055486078    28.528986      3473.3773    
       790   1.58           297.55858      126761.53     -807638.96     -9379.2019      0.36315262     0.05519176     28.509235      3473.1145    
       800   1.6            304.54384      127842.31     -807638.35     -9421.1669      0.36314122     0.055440442    28.514192      3472.842     
       810   1.62           309.10995      134817.71     -807630.3      -9688.7265      0.36312968     0.057016754    28.532676      3472.5397    
       820   1.64           308.90783      138077.08     -807624.37     -9867.9819      0.363118       0.058073514    28.499702      3472.2853    
       830   1.66           313.71331      142896.75     -807620.29     -10005.695      0.36310618     0.058885881    28.502113      3472.025     
       840   1.68           308.5354       140638.07     -807620.64     -9961.299       0.36309421     0.05862653     28.519843      3471.7369    
       850   1.7            319.52262      138776.51     -807625.29     -9849.8083      0.3630821      0.057972294    28.532255      3471.4294    
       860   1.72           317.196        132183.7      -807631.81     -9622.799       0.36306984     0.056638113    28.530817      3471.1231    
       870   1.74           315.62915      127541.66     -807637.12     -9434.1418      0.36305745     0.055529606    28.517446      3470.8344    
       880   1.76           318.18201      125763.97     -807640.06     -9345.5587      0.3630449      0.055010104    28.527406      3470.5304    
       890   1.78           306.20979      129543.55     -807634.04     -9479.6101      0.36303222     0.05580111     28.505665      3470.2553    
       900   1.8            330.6701       133318.51     -807630.58     -9695.0791      0.36301939     0.057071472    28.514039      3469.9671    
       910   1.82           331.12813      137890.13     -807624.85     -9875.7917      0.36300642     0.058137339    28.518287      3469.6718    
       920   1.84           324.04925      142347.03     -807620.03     -9993.4106      0.36299331     0.05883187     28.503832      3469.3946    
       930   1.86           311.38805      142292.2      -807618.94     -9968.5755      0.36298005     0.058687807    28.529731      3469.0818    
       940   1.88           332.73056      136984.21     -807627.09     -9797.8047      0.36296665     0.057684561    28.510655      3468.7928    
       950   1.9            315.13886      131170.84     -807631.81     -9564.5373      0.36295311     0.056313301    28.533228      3468.4737    
       960   1.92           315.00994      127871.74     -807636.38     -9413.4068      0.36293942     0.055425577    28.52011       3468.1706    
       970   1.94           303.94061      127326.87     -807636.52     -9357.647       0.36292559     0.055099366    28.5102        3467.8789    
       980   1.96           328.55758      130969.38     -807635.77     -9487.6985      0.36291162     0.055867282    28.519536      3467.5743    
       990   1.98           325.22616      134879.28     -807628.78     -9695.7571      0.3628975      0.057094633    28.510149      3467.2805    
      1000   2              324.09912      140315.41     -807621.12     -9932.689       0.36288325     0.058492133    28.475002      3467.0284    
      1010   2.02           321.07285      141855.6      -807619.88     -311.16734      0.36286884     0.058639715    28.500672      3466.7432    
      1020   2.04           324.35797      141513.16     -807620.93     -310.4678       0.3628543      0.05851023     28.512199      3466.443     
      1030   2.06           332.56499      135609.7      -807627.53     -304.99501      0.36283961     0.057481164    28.535241      3466.1146    
      1040   2.08           323.14856      131151.44     -807632.33     -298.80974      0.36282478     0.056317755    28.609431      3465.6994    
      1050   2.1            321.4191       127478.75     -807637.71     -293.12399      0.3628098      0.055248421    28.589831      3465.3079    
      1060   2.12           318.97627      126954.96     -807637.22     -293.18547      0.36279469     0.055262312    28.507056      3465.0121    
      1070   2.14           334.25363      130418.36     -807634.99     -297.57288      0.36277943     0.05609165     28.680066      3464.5196    
      1080   2.16           325.06631      135898.35     -807627.41     -303.88936      0.36276402     0.057284722    28.791133      3463.9065    
      1090   2.18           324.99604      140654.54     -807621.31     -309.95993      0.36274848     0.058431558    28.628193      3463.4777    
      1100   2.2            319.23485      143183.18     -807618.64     -311.83086      0.36273279     0.058786797    28.67202       3463.0023    
      1110   2.22           328.28767      140325.02     -807622.26     -309.46123      0.36271695     0.058342618    28.683462      3462.5169    
      1120   2.24           317.63194      136410.83     -807626.39     -303.87346      0.36270098     0.05729168     28.679101      3462.0385    
      1130   2.26           321.6768       129769.89     -807633.98     -296.82519      0.36268486     0.055965301    28.758495      3461.4782    
      1140   2.28           327.16495      126613.1      -807638.8      -292.73573      0.3626686      0.055196723    28.688416      3460.9953    
      1150   2.3            318.4504       126718.83     -807637.92     -292.49467      0.36265219     0.055153765    28.614291      3460.5924    
      1160   2.32           324.92915      131369.72     -807633.09     -298.37885      0.36263564     0.056265874    28.632063      3460.1719    
      1170   2.34           329.01679      136523.97     -807626.99     -305.16745      0.36261895     0.057548661    28.724467      3459.6577    
      1180   2.36           317.34262      142239.15     -807620.29     -310.29248      0.36260212     0.058517859    28.77292       3459.0972    
      1190   2.38           316.77968      141862.9      -807619.34     -311.33602      0.36258514     0.058717408    28.665809      3458.6482    
      1200   2.4            313.58216      140304.22     -807621.24     -309.08875      0.36256802     0.058296331    28.665672      3458.2009    
      1210   2.42           332.21983      133857.84     -807630.66     -302.42958      0.36255076     0.057043079    28.764544      3457.6574    
      1220   2.44           321.9322       129695.19     -807635.62     -296.08306      0.36253335     0.055848705    28.6891        3457.1911    
      1230   2.46           316.04664      126521.16     -807639.15     -291.9614       0.3625158      0.055073923    28.734354      3456.6825    
      1240   2.48           315.40169      127485.08     -807637.58     -293.679        0.36249811     0.055400625    28.484688      3456.4197    
      1250   2.5            317.13029      131954.84     -807632.6      -299.11002      0.36248028     0.056427927    28.518054      3456.1229    
      1260   2.52           314.46403      136654.44     -807626.25     -305.40745      0.3624623      0.057618812    28.519729      3455.8236    
      1270   2.54           314.26231      141260.2      -807621.32     -310.52573      0.36244418     0.058587366    28.531402      3455.5124    
      1280   2.56           307.63561      140608.62     -807620.47     -310.65935      0.36242592     0.058615531    28.532545      3455.1995    
      1290   2.58           322.18543      138857.57     -807624.89     -308.39934      0.36240751     0.058192064    28.599231      3454.8235    
      1300   2.6            310.90142      132935.61     -807630.8      -301.14755      0.36238896     0.05682663     28.595496      3454.4513    
      1310   2.62           315.91303      129404.67     -807636.83     -295.87339      0.36237027     0.055834273    28.501557      3454.1663    
      1320   2.64           295.50027      126460.81     -807637.97     -292.01358      0.36235143     0.055108752    28.599682      3453.7904    
      1330   2.66           310.00168      128900.05     -807636.73     -295.40358      0.36233245     0.055751433    28.512403      3453.4942    
      1340   2.68           306.78902      131993.9      -807631.17     -300.70123      0.36231333     0.056754253    28.52536       3453.1855    
      1350   2.7            312.88012      137989.73     -807625.86     -306.84688      0.36229407     0.05791726     28.689796      3452.7293    
      1360   2.72           307.12654      140067.92     -807622.37     -309.60495      0.36227466     0.058440976    28.511472      3452.4329    
      1370   2.74           315.19998      141137.2      -807622.66     -310.46679      0.36225511     0.058606819    28.532289      3452.1172    
      1380   2.76           322.55638      136369.16     -807627        -307.07808      0.36223542     0.057970283    28.580312      3451.7589    
      1390   2.78           322.38573      132431.93     -807632.92     -301.02772      0.36221558     0.056831207    28.615961      3451.3699    
      1400   2.8            306.90687      128694.93     -807637.44     -294.30898      0.3621956      0.055565836    28.506198      3451.0761    
      1410   2.82           298.13474      127312.64     -807637.33     -293.07009      0.36217548     0.055335007    28.506335      3450.7814    
      1420   2.84           309.98475      128701.45     -807636.82     -295.12832      0.36215522     0.055726742    28.520354      3450.474     
      1430   2.86           310.62026      133026.2      -807630.7      -301.23597      0.36213481     0.056883207    28.531601      3450.1564    
      1440   2.88           316.19993      137902.61     -807625.62     -306.82026      0.36211426     0.057940992    28.596443      3449.784     
      1450   2.9            306.9462       140830.95     -807620.95     -309.92888      0.36209357     0.058531379    28.535297      3449.4629    
      1460   2.92           320.23022      140247.85     -807622.36     -310.03729      0.36207273     0.058555222    28.616807      3449.074     
      1470   2.94           319.6079       137105.97     -807626.12     -305.78969      0.36205176     0.057756344    28.570417      3448.7236    
      1480   2.96           317.62459      132154.24     -807631.54     -299.68669      0.36203064     0.056606937    28.502862      3448.4284    
      1490   2.98           303.88292      128413.78     -807634.96     -293.85855      0.36200937     0.055509336    28.509598      3448.1271    
      1500   3              319.23722      127606.45     -807638.01     -292.59936      0.36198796     0.055274746    28.527571      3447.8105    
      1510   3.02           315.97329      129460.74     -807634.71     -9442.9206      0.36196642     0.05574881     28.517377      3447.5017    
      1520   3.04           330.46724      134553.53     -807629.77     -9655.9569      0.36194472     0.057009943    28.586509      3447.1374    
      1530   3.06           324.34558      137610.24     -807624.21     -9802.0438      0.36192289     0.05787595     28.594844      3446.7667    
      1540   3.08           326.48076      141764.37     -807620.28     -9928.6203      0.36190091     0.058626877    28.530254      3446.4469    
      1550   3.1            326.75399      139597.94     -807621.04     -9901.9842      0.36187879     0.05847317     28.525667      3446.1303    
      1560   3.12           325.73526      137692.23     -807624.59     -9779.7581      0.36185653     0.057754954    28.503679      3445.8303    
      1570   3.14           317.37801      132646.39     -807630.57     -9548.3039      0.36183412     0.056391579    28.517253      3445.5192    
      1580   3.16           315.11097      128652.82     -807635.14     -9386.3287      0.36181157     0.05543842     28.518883      3445.2064    
      1590   3.18           320.27255      127173.45     -807636.8      -9354.4585      0.36178888     0.05525365     28.512965      3444.8975    
      1600   3.2            324.37114      130332.19     -807634.02     -9462.3326      0.36176605     0.055894354    28.524121      3444.5798    
      1610   3.22           322.9839       134093.9      -807628.74     -9624.7708      0.36174307     0.056857494    28.520933      3444.264     
      1620   3.24           324.54446      139214.51     -807622.72     -9823.8089      0.36171995     0.058037003    28.596352      3443.8916    
      1630   3.26           326.85821      141625.21     -807620.68     -9901.1218      0.36169669     0.058497513    28.510734      3443.5829    
      1640   3.28           333.43963      140674.11     -807621.86     -9892.7744      0.36167329     0.058451978    28.519206      3443.2674    
      1650   3.3            326.91002      135688.82     -807626.61     -9713.5477      0.36164974     0.057396745    28.51066       3442.9578    
      1660   3.32           319.20715      131268.68     -807631.71     -9516.5592      0.36162605     0.056236435    28.513527      3442.6455    
      1670   3.34           321.19755      128101.78     -807636.11     -9385.7345      0.36160222     0.055467005    28.512709      3442.3334    
      1680   3.36           318.81663      127458.07     -807636.63     -9359.0176      0.36157824     0.055312783    28.522246      3442.014     
      1690   3.38           322.42939      129787.76     -807634.24     -9455.8074      0.36155413     0.055888549    28.542692      3441.6796    
      1700   3.4            325.37938      135254.55     -807628.94     -9643.4311      0.36152987     0.057001323    28.510321      3441.368     
      1710   3.42           324.32895      140353.45     -807622.34     -9850.6318      0.36150546     0.058229996    28.492193      3441.0688    
      1720   3.44           329.58105      140563.09     -807621.52     -9904.0194      0.36148092     0.058549561    28.528122      3440.7437    
      1730   3.46           325.77199      140314.17     -807622.7      -9851.7163      0.36145623     0.058244339    28.524167      3440.4211    
      1740   3.48           318.66062      135255.83     -807627.4      -9674.4495      0.3614314      0.057200249    28.523434      3440.0987    
      1750   3.5            323.32552      131930.43     -807632.41     -9536.4783      0.36140643     0.05638839     28.514742      3439.7819    
      1760   3.52           306.02432      128482.52     -807635.55     -9363.7986      0.36138131     0.055371197    28.514623      3439.4649    
      1770   3.54           311.53431      129598.62     -807636.25     -9368.9766      0.36135605     0.055405689    28.517077      3439.1458    
      1780   3.56           334.17354      129384.27     -807636.63     -9463.5057      0.36133065     0.055968644    28.53329       3438.8153    
      1790   3.58           314.39949      136029.17     -807626.21     -9712.9531      0.36130511     0.057447976    28.511097      3438.4996    
      1800   3.6            326.84955      137820.57     -807625.51     -9798.3168      0.36127942     0.057956986    28.507197      3438.1861    
      1810   3.62           310.44181      142101.3      -807620.42     -9890.3448      0.3612536      0.058505513    28.532573      3437.8553    
      1820   3.64           322.03836      137432.92     -807625.27     -9795.7984      0.36122763     0.057950398    28.517122      3437.5345    
      1830   3.66           313.3553       136187.05     -807626.89     -9705.4449      0.36120151     0.057420031    28.509008      3437.2188    
      1840   3.68           313.55941      128989.97     -807634.75     -9459.1874      0.36117526     0.055967174    28.517338      3436.8972    
      1850   3.7            316.27302      128211.5      -807637.49     -9382.3889      0.36114886     0.055516838    28.5214        3436.5726    
      1860   3.72           315.27165      126620.78     -807638.45     -9353.6493      0.36112232     0.055350849    28.512392      3436.2536    
      1870   3.74           321.10565      132307.41     -807633.49     -9539.3217      0.36109564     0.056453749    28.524246      3435.9266    
      1880   3.76           316.83835      134083.08     -807629.03     -9669.9646      0.36106881     0.057231147    28.511892      3435.6073    
      1890   3.78           316.49003      140500.55     -807623.59     -9842.3456      0.36104184     0.058255725    28.515305      3435.2855    
      1900   3.8            313.77684      138765.99     -807623.16     -9848.7333      0.36101474     0.05829791     28.517412      3434.962     
      1910   3.82           317.11999      139141.56     -807624.61     -9817.5485      0.36098748     0.058117704    28.511523      3434.642     
      1920   3.84           312.61237      132976.56     -807629.95     -9629.8914      0.36096009     0.057011142    28.520178      3434.3161    
      1930   3.86           315.56199      130288.98     -807635.53     -9461.9289      0.36093255     0.05602104     28.533415      3433.9818    
      1940   3.88           304.70772      127510.84     -807637.64     -9347.5142      0.36090487     0.055347872    28.531118      3433.6488    
      1950   3.9            308.11943      129464.86     -807635.74     -9423.3389      0.36087705     0.055801142    28.501982      3433.3336    
      1960   3.92           301.11655      131645.56     -807631.21     -9539.2828      0.36084909     0.056492091    28.494251      3433.0227    
      1970   3.94           318.95466      135837.29     -807628.96     -9687.5958      0.36082098     0.057374877    28.535462      3432.6863    
      1980   3.96           307.4851       138607.22     -807622.65     -9838.0427      0.36079273     0.058270462    28.501721      3432.3702    
      1990   3.98           317.4834       140030.87     -807623.13     -9864.6657      0.36076434     0.058432747    28.528645      3432.0375    
      2000   4              322.39822      136612.02     -807627.21     -9750.6179      0.36073581     0.057761761    28.50852       3431.7167    
      2010   4.02           323.99011      133126.11     -807631.95     -299.96642      0.36070713     0.056867669    28.549624      3431.3711    
      2020   4.04           304.5409       129610.49     -807634.13     -294.83029      0.36067831     0.055898426    28.503917      3431.0526    
      2030   4.06           315.83739      127603.22     -807637.86     -292.39116      0.36064935     0.05544043     28.573753      3430.6924    
      2040   4.08           311.77384      128106        -807635.88     -293.48668      0.36062025     0.055652644    28.715538      3430.2494    
      2050   4.1            314.608        131986.66     -807630.7      -298.67234      0.36059101     0.056640572    28.71054       3429.8101    
      2060   4.12           328.11661      135980.32     -807626.53     -304.44493      0.36056162     0.057739998    28.648253      3429.4077    
      2070   4.14           322.63862      139633.35     -807622.29     -307.53027      0.36053209     0.05832993     28.690761      3428.9814    
      2080   4.16           336.54791      140169.48     -807623.64     -307.75153      0.36050242     0.058376702    28.764394      3428.5139    
      2090   4.18           315.63259      137177.18     -807624.27     -303.95829      0.36047261     0.057661938    28.684175      3428.093     
      2100   4.2            332.69687      133591.68     -807630.78     -299.41425      0.36044265     0.056804639    28.50743       3427.7736    
      2110   4.22           309.51841      128794.96     -807633.81     -292.96687      0.36041256     0.05558609     28.511194      3427.4517    
      2120   4.24           316.21893      128795.38     -807635.93     -291.48862      0.36038232     0.055310254    28.529015      3427.1195    
      2130   4.26           316.90328      128772.79     -807634.52     -292.81426      0.36035193     0.05556648     28.510166      3426.7977    
      2140   4.28           335.14762      134499.38     -807630.64     -299.02121      0.36032141     0.056749161    28.512835      3426.4742    
      2150   4.3            334.43095      136107.37     -807626.01     -303.46175      0.36029075     0.057596802    28.535331      3426.1378    
      2160   4.32           323.7407       141544.67     -807619.74     -308.07368      0.36025994     0.058477143    28.531112      3425.8036    
      2170   4.34           326.35966      138848.33     -807622.57     -305.63327      0.36022899     0.058018899    28.581396      3425.4415    
      2180   4.36           330.55555      137995.02     -807624.69     -303.87634      0.36019789     0.057690359    28.587782      3425.076     
      2190   4.38           314.25547      132159.06     -807628.77     -297.56757      0.36016666     0.056497549    28.518269      3424.7487    
      2200   4.4            324.49799      130219.71     -807634.4      -293.1755       0.36013528     0.055668501    28.519434      3424.4206    
      2210   4.42           325.46647      126339.69     -807637.69     -290.04881      0.36010377     0.055079621    28.50793       3424.0985    
      2220   4.44           326.98135      131236.87     -807632.94     -294.91556      0.36007211     0.056008729    28.523428      3423.7678    
      2230   4.46           334.43799      132302.73     -807630.5      -298.52238      0.3600403      0.056698726    28.50764       3423.4454    
      2240   4.48           332.47371      137752.08     -807624.35     -304.31862      0.36000836     0.057804742    28.529532      3423.111     
      2250   4.5            333.98702      138894.56     -807622.79     -306.21093      0.35997627     0.058169367    28.545333      3422.768     
      2260   4.52           328.37665      139701.07     -807621.31     -306.94302      0.35994404     0.058313658    28.590944      3422.4008    
      2270   4.54           329.88522      135440.97     -807626.55     -302.05462      0.35991167     0.057390111    28.497802      3422.083     
      2280   4.56           328.16253      131987.91     -807631.82     -296.62945      0.35987916     0.056364425    28.514828      3421.7559    
      2290   4.58           319.98917      128814.57     -807635.57     -291.88265      0.35984651     0.055467489    28.512199      3421.4299    
      2300   4.6            317.99902      128573.47     -807635.25     -292.0274       0.35981371     0.055500055    28.507266      3421.1064    
      2310   4.62           316.31621      129593.64     -807632.72     -294.51125      0.35978077     0.055977236    28.526804      3420.7724    
      2320   4.64           324.64449      133404.41     -807629.92     -298.65405      0.35974769     0.05676987     28.535502      3420.4338    
      2330   4.66           321.45646      138642.48     -807624.25     -304.11918      0.35971447     0.057814053    28.548264      3420.0885    
      2340   4.68           321.10326      139728.1      -807622.24     -306.34396      0.35968111     0.058242393    28.661024      3419.6857    
      2350   4.7            318.50291      139747.34     -807622.11     -306.22798      0.3596476      0.058225767    28.608287      3419.31      
      2360   4.72           328.81696      133930.79     -807629.27     -300.77871      0.35961396     0.057195002    28.646728      3418.9152    
      2370   4.74           310.66749      132580.18     -807631.42     -296.211        0.35958017     0.056331715    28.525303      3418.582     
      2380   4.76           317.28062      127502.02     -807636.95     -291.82665      0.35954624     0.055503161    28.510501      3418.2561    
      2390   4.78           317.05426      128905.71     -807636.57     -292.2263       0.35951216     0.055584439    28.520678      3417.9248    
      2400   4.8            304.03578      129101.93     -807634.24     -293.0081       0.35947795     0.05573845     28.515481      3417.596     
      2410   4.82           323.34987      135151.86     -807630.18     -299.80296      0.35944359     0.057036476    28.631926      3417.2093    
      2420   4.84           313.12957      136545.22     -807625.38     -303.44407      0.35940909     0.057734726    28.560872      3416.8579    
      2430   4.86           315.45881      140976.64     -807621.3      -307.80723      0.35937446     0.058570527    28.599482      3416.4876    
      2440   4.88           311.5813       136980.63     -807625.36     -303.36721      0.35933967     0.057731253    28.559083      3416.1372    
      2450   4.9            313.57712      137010.49     -807627.91     -301.00092      0.35930475     0.057286512    28.499951      3415.8157    
      2460   4.92           306.22374      129670.38     -807632.56     -295.43491      0.35926969     0.056232676    28.511716      3415.4882    
      2470   4.94           318.84066      129536.29     -807636.01     -293.57431      0.35923448     0.055884008    28.499509      3415.1665    
      2480   4.96           310.04623      126722.9      -807638.45     -289.969        0.35919913     0.055203144    28.510734      3414.8391    
      2490   4.98           315.56172      131577.77     -807633.41     -295.64846      0.35916364     0.056289938    28.533466      3414.5006    
      2500   5              321.0383       133266.46     -807630.44     -299.44974      0.35912801     0.05701934     28.535849      3414.1608    
[...]
     98740   197.48         307.91196      131630.7      -807630.68     -9569.8849      0.36236891     0.056435623    27.898079      43.888643    
     98750   197.5          321.91708      136796.06     -807627.1      -9733.161       0.36238762     0.057395534    27.915163      43.540446    
     98760   197.52         314.56126      132687.81     -807628.02     -9670.2927      0.36240618     0.057021885    27.879072      43.192253    
     98770   197.54         330.39157      137806.39     -807627.78     -9733.0545      0.36242459     0.05738905     27.886945      42.844056    
     98780   197.56         311.10915      132342.5      -807628.77     -9614.2325      0.36244287     0.056685581    27.903249      42.495855    
     98790   197.58         323.81162      137696.13     -807625.51     -9762.9966      0.362461       0.057559816    27.898079      42.147652    
     98800   197.6          326.00931      131447.9      -807630.67     -9609.6285      0.36247899     0.05665279     27.896035      41.799447    
     98810   197.62         331.96099      136581.4      -807628.17     -9703.1723      0.36249683     0.057201454    27.911447      41.451239    
     98820   197.64         322.12157      130985.96     -807630.87     -9575.9415      0.36251453     0.056448655    27.912051      41.103027    
     98830   197.66         333.4122       136947.4      -807627.65     -9720.4314      0.36253209     0.057297625    27.947693      40.754809    
     98840   197.68         333.38706      131707.9      -807630.48     -9634.1226      0.36254951     0.056786145    28.004722      40.40658     
     98850   197.7          332.2558       136195.89     -807627.96     -9702.9748      0.36256678     0.057189254    27.95418       40.058357    
     98860   197.72         320.23592      132874.04     -807627.87     -9657.2154      0.36258391     0.056916859    27.936939      39.710134    
     98870   197.74         319.16037      136404.33     -807624.53     -9756.4305      0.3626009      0.057498911    27.952614      39.361907    
     98880   197.76         330.19577      132706.66     -807628.89     -9668.5989      0.36261774     0.056978634    27.871556      39.01369     
     98890   197.78         319.48488      135201.21     -807626.65     -9689.8804      0.36263445     0.057101419    27.861257      38.665472    
     98900   197.8          318.26         134065.4      -807627.86     -9648.9537      0.362651       0.056857646    27.863127      38.317252    
     98910   197.82         333.64112      133920.34     -807629.02     -9680.8468      0.36266742     0.057042999    27.893796      37.969026    
     98920   197.84         334.77915      133206.01     -807630.11     -9652.8924      0.36268369     0.056875729    27.909907      37.620795    
     98930   197.86         330.27435      132701.87     -807630.39     -9627.2826      0.36269982     0.056722311    27.884344      37.272565    
     98940   197.88         324.95954      135874.38     -807627.03     -9712.0646      0.36271581     0.05721931     27.861512      36.924337    
     98950   197.9          328.98472      133356.66     -807628.8      -9682.2495      0.36273165     0.057041161    27.803719      36.576114    
     98960   197.92         324.16061      137480.53     -807625.9      -9751.4314      0.36274735     0.057446247    27.807299      36.227889    
     98970   197.94         318.1133       133149.22     -807629.17     -9629.33        0.36276291     0.056724508    27.829461      35.879658    
     98980   197.96         323.97704      137946.02     -807625.16     -9781.8309      0.36277832     0.057620413    27.837263      35.531424    
     98990   197.98         326.57827      131187.09     -807630.73     -9626.9205      0.36279359     0.056705517    27.888735      35.183181    
     99000   198            324.9916       136938.04     -807627.61     -9716.125       0.36280872     0.057228573    27.916472      34.834932    
     99010   198.02         325.08769      130653.99     -807632.12     -299.55119      0.3628237      0.056457664    27.977954      34.486673    
     99020   198.04         318.68161      137437.5      -807626.49     -304.28576      0.36283855     0.057347664    27.971772      34.138414    
     99030   198.06         328.10396      131253.51     -807631.73     -300.69789      0.36285324     0.056669175    27.946053      33.790156    
     99040   198.08         319.68621      137358.26     -807626.66     -304.62047      0.3628678      0.057406117    27.913114      33.441899    
     99050   198.1          313.67049      133058.84     -807629.03     -301.76138      0.36288221     0.05686506     27.911585      33.093641    
     99060   198.12         321.17979      137191.45     -807626.04     -305.81333      0.36289648     0.057626357    27.921763      32.74538     
     99070   198.14         316.24526      133233.02     -807629.17     -302.30904      0.36291061     0.056963806    27.957026      32.397113    
     99080   198.16         309.40936      136643.08     -807626.6      -303.89021      0.36292459     0.057259537    28.004226      32.048838    
     99090   198.18         319.85915      131727.56     -807631.48     -300.73398      0.36293843     0.056662673    27.990156      31.700563    
     99100   198.2          326.13063      134885.64     -807630.04     -302.9893       0.36295213     0.057085454    27.968259      31.352288    
     99110   198.22         317.20238      132891.2      -807630.38     -301.65712      0.36296568     0.056832339    27.966271      31.004012    
     99120   198.24         320.54979      134490.57     -807629.67     -302.83481      0.36297909     0.057052109    27.97925       30.655733    
     99130   198.26         321.61261      133457.16     -807630.16     -302.59137      0.36299236     0.057004163    27.976112      30.307452    
     99140   198.28         318.11283      135202.59     -807628.15     -304.13233      0.36300548     0.057292388    27.971827      29.95917     
     99150   198.3          309.74061      135497.56     -807626.26     -304.93621      0.36301846     0.057441768    28.024972      29.61088     
     99160   198.32         316.41931      134513.34     -807628.66     -303.48146      0.3630313      0.057165712    28.059616      29.262585    
     99170   198.34         321.4215       135093.66     -807629.44     -303.39207      0.36304399     0.057146876    28.03255       28.914291    
     99180   198.36         322.51391      132742.89     -807630.33     -302.68651      0.36305655     0.057012005    28.000748      28.565998    
     99190   198.38         317.72878      134643.11     -807628.97     -303.35703      0.36306895     0.057136347    27.980573      28.217706    
     99200   198.4          310.90913      132836.28     -807630.49     -300.94467      0.36308122     0.056680072    27.92716       27.869418    
     99210   198.42         315.92044      135482.53     -807629.19     -302.86632      0.36309334     0.057040092    27.904872      27.521129    
     99220   198.44         326.55028      132607.55     -807631.77     -301.84385      0.36310532     0.05684565     27.906928      27.172839    
     99230   198.46         312.1284       136279.71     -807626.23     -305.26539      0.36311715     0.057488148    27.946784      26.824543    
     99240   198.48         316.32467      133173.02     -807629.44     -302.75169      0.36312885     0.057012928    27.888756      26.47625     
     99250   198.5          321.8281       136439.34     -807628.4      -304.38631      0.3631404      0.05731893     27.901729      26.127954    
     99260   198.52         319.78329      132392.73     -807630.27     -302.31018      0.3631518      0.056926186    27.942502      25.779652    
     99270   198.54         316.01238      136716.05     -807627.26     -304.63031      0.36316306     0.057361297    27.925041      25.43135     
     99280   198.56         309.76665      132653.16     -807629.89     -301.20543      0.36317418     0.056714662    27.848812      25.083053    
     99290   198.58         314.52569      135495.16     -807628.71     -302.89584      0.36318516     0.05703123     27.844149      24.734754    
     99300   198.6          319.51316      132405.46     -807630.13     -302.20382      0.36319599     0.056899234    27.855156      24.386452    
     99310   198.62         333.52094      135571.38     -807628.76     -305.34099      0.36320668     0.057488212    27.925891      24.038142    
     99320   198.64         322.53229      133545.25     -807630.39     -302.196        0.36321723     0.056894435    27.96514       23.689826    
     99330   198.66         321.56454      137100.05     -807628.04     -304.22848      0.36322763     0.05727545     27.943053      23.34151     
     99340   198.68         321.47151      133541.71     -807629.3      -303.04566      0.36323789     0.057051156    28.006888      22.993187    
     99350   198.7          332.84857      135634.55     -807628.92     -304.84798      0.36324801     0.05738886     28.04659       22.644859    
     99360   198.72         298.73706      133113.85     -807627.8      -301.22766      0.36325798     0.056705764    27.979244      22.296535    
     99370   198.74         320.16496      134790.03     -807629.71     -302.13205      0.36326781     0.056874474    27.970089      21.948209    
     99380   198.76         315.92559      133054.07     -807629.15     -302.14582      0.3632775      0.05687555     28.006214      21.599879    
     99390   198.78         331.17725      134284.45     -807630.1      -303.15703      0.36328704     0.0570644      28.072969      21.251542    
     99400   198.8          325.14576      134654.54     -807629.1      -303.23124      0.36329644     0.057076892    28.07369       20.903203    
     99410   198.82         323.89533      135070.35     -807629.2      -302.8845       0.3633057      0.057010172    28.078182      20.554863    
     99420   198.84         333.0928       135744.07     -807629.4      -303.85093      0.36331481     0.057190644    28.040702      20.206523    
     99430   198.86         323.90015      135104.92     -807627.87     -304.05358      0.36332378     0.057227373    28.029328      19.858183    
     99440   198.88         315.7788       135927.93     -807627.13     -303.5558       0.36333261     0.057132296    27.99003       19.509844    
     99450   198.9          317.21273      133565.12     -807629.57     -301.23672      0.36334129     0.056694466    27.930794      19.161507    
     99460   198.92         338.59181      133878.28     -807631.55     -302.10525      0.36334983     0.056856593    27.86416       18.813173    
     99470   198.94         316.09321      133652.47     -807627.83     -302.67782      0.36335823     0.056963034    27.885916      18.464835    
     99480   198.96         334.82036      135093.52     -807629.44     -303.49697      0.36336648     0.057115898    27.915361      18.116494    
     99490   198.98         326.09041      133758.26     -807629.73     -301.96179      0.3633746      0.056825719    27.906395      17.76815     
     99500   199            321.62377      136584.29     -807626.34     -304.6369       0.36338256     0.057327888    27.909071      17.419805    
     99510   199.02         320.39628      134835.82     -807626.57     -9735.9644      0.36339039     0.057253637    27.824123      17.071463    
     99520   199.04         323.94385      135779.8      -807626.6      -9746.4866      0.36339807     0.057314303    27.787641      16.723121    
     99530   199.06         325.42636      133903.72     -807628.6      -9687.0889      0.3634056      0.056963833    27.793251      16.374777    
     99540   199.08         316.50513      135510.21     -807627.12     -9691.8267      0.363413       0.056990534    27.780595      16.026431    
     99550   199.1          323.68547      134336.63     -807627.88     -9697.8463      0.36342025     0.057024793    27.860598      15.678078    
     99560   199.12         336.82349      134650.34     -807629.82     -9690.1075      0.36342736     0.056978173    27.887035      15.329721    
     99570   199.14         338.67003      132734.15     -807630.89     -9663.7883      0.36343432     0.056822326    27.903534      14.981361    
     99580   199.16         330.03248      135368.19     -807628.48     -9700.4331      0.36344114     0.057036724    27.871249      14.633001    
     99590   199.18         321.92716      134563.26     -807627.14     -9709.0435      0.36344782     0.057086303    27.859915      14.28464     
     99600   199.2          337.39097      136485.79     -807627.52     -9762.3226      0.36345435     0.057398536    27.907825      13.936274    
     99610   199.22         316.2848       133906.98     -807626.87     -9691.6131      0.36346074     0.056981791    27.878823      13.587907    
     99620   199.24         322.71514      136588.74     -807626.49     -9730.6612      0.36346699     0.057210391    27.851796      13.23954     
     99630   199.26         333.86631      133732.43     -807629.47     -9690.3595      0.3634731      0.056972485    27.852045      12.891171    
     99640   199.28         319.90565      135787.9      -807626.31     -9728.6936      0.36347906     0.057196924    27.897689      12.542797    
     99650   199.3          326.41864      131959.17     -807630.58     -9626.4168      0.36348487     0.056594713    27.911688      12.19442     
     99660   199.32         334.79808      135914.3      -807628.93     -9714.6202      0.36349055     0.057112378    27.939274      11.846041    
     99670   199.34         321.63512      133446.06     -807627.94     -9698.1753      0.36349608     0.057014831    27.8866        11.497662    
     99680   199.36         327.02801      136750.02     -807627.01     -9753.5471      0.36350147     0.057339508    27.953614      11.149278    
     99690   199.38         328.28841      133567.23     -807629.85     -9676.4055      0.36350671     0.056885184    27.951922      10.800892    
     99700   199.4          317.79079      136335.6      -807626.16     -9752.7842      0.36351181     0.057333391    27.896564      10.452506    
     99710   199.42         327.16432      133291.08     -807629.01     -9715.1427      0.36351677     0.05711133     27.938015      10.104117    
     99720   199.44         316.40783      135227.9      -807627.24     -9729.4127      0.36352158     0.057194461    27.914343      9.7557267    
     99730   199.46         314.78952      133078.4      -807629.16     -9671.3473      0.36352625     0.056852392    27.8927        9.4073352    
     99740   199.48         327.79892      135097.76     -807630.14     -9704.8852      0.36353078     0.057048832    27.869713      9.0589425    
     99750   199.5          317.03347      133725.37     -807629.44     -9688.9053      0.36353516     0.056954209    27.849125      8.7105483    
     99760   199.52         310.48789      135390.7      -807626.81     -9750.5654      0.3635394      0.057315997    27.825912      8.3621527    
     99770   199.54         327.17158      133884.33     -807631.05     -9697.163       0.3635435      0.057001443    27.866307      8.0137538    
     99780   199.56         315.29966      134745.75     -807628.39     -9734.5738      0.36354745     0.057220728    27.858038      7.6653529    
     99790   199.58         310.09778      134990.26     -807627.55     -9746.1634      0.36355126     0.057288252    27.835168      7.3169506    
     99800   199.6          313.54145      134857.79     -807628.18     -9745.679       0.36355493     0.057284827    27.829763      6.9685462    
     99810   199.62         309.44296      134085.64     -807629.2      -9697.052       0.36355845     0.056998446    27.842394      6.6201393    
     99820   199.64         310.13336      133779.62     -807629.52     -9694.9511      0.36356183     0.056985568    27.86141       6.2717299    
     99830   199.66         312.78647      133738.31     -807629.14     -9720.4095      0.36356507     0.057134699    27.894999      5.9233176    
     99840   199.68         305.41113      133860.89     -807628.59     -9708.7498      0.36356816     0.057065681    27.892515      5.5749033    
     99850   199.7          315.18743      134180.38     -807630.04     -9704.801       0.36357111     0.057042008    27.935943      5.2264861    
     99860   199.72         319.60809      133482.35     -807630.11     -9723.5593      0.36357392     0.057151823    27.966958      4.8780665    
     99870   199.74         310.10013      135322.87     -807627.24     -9774.6561      0.36357658     0.057451731    27.960803      4.5296452    
     99880   199.76         316.97702      134681.39     -807629.54     -9730.8031      0.3635791      0.057193584    27.954155      4.1812221    
     99890   199.78         314.6501       134783.2      -807629.74     -9712.7333      0.36358148     0.057087004    27.917554      3.8327977    
     99900   199.8          315.20147      133600.43     -807630.19     -9701.541       0.36358371     0.05702087     27.912651      3.4843714    
     99910   199.82         314.25491      133795.21     -807629.34     -9723.1957      0.3635858      0.057147818    27.886703      3.1359434    
     99920   199.84         314.24158      132199.65     -807630.5      -9682.4011      0.36358775     0.056907744    27.953805      2.7875127    
     99930   199.86         315.51978      133649.07     -807630.3      -9691.5619      0.36358955     0.056961304    28.013414      2.4390796    
     99940   199.88         304.28257      134247.8      -807628.09     -9708.5031      0.36359121     0.057060614    27.955699      2.0906452    
     99950   199.9          318.09464      134804.68     -807628.15     -9761.5719      0.36359273     0.05737228     27.949369      1.742209     
     99960   199.92         314.52993      134517.37     -807628.63     -9725.8719      0.3635941      0.057162243    27.939159      1.393771     
     99970   199.94         318.69443      135506.73     -807628.38     -9743.0544      0.36359533     0.057263036    27.961202      1.045331     
     99980   199.96         315.27692      133524.69     -807628.79     -9709.625       0.36359641     0.057066391    27.974734      0.69688914   
     99990   199.98         321.54638      133897.09     -807628.2      -9746.4044      0.36359736     0.057282406    27.924426      0.34844554   
    100000   200            315.3823       133343.79     -807629.09     -9683.1614      0.36359816     0.056910583    27.890543      0            
Loop time of 3484.47 on 32 procs for 100000 steps with 1080 atoms

Performance: 4.959 ns/day, 4.840 hours/ns, 28.699 timesteps/s, 30.995 katom-step/s
61.9% CPU use with 32 MPI tasks x 1 OpenMP threads

MPI task timing breakdown:
Section |  min time  |  avg time  |  max time  |%varavg| %total
---------------------------------------------------------------
Pair    | 2478.5     | 2806.7     | 3026       | 259.9 | 80.55
Neigh   | 0.0016629  | 0.0040626  | 0.0059697  |   2.9 |  0.00
Comm    | 385.07     | 604.06     | 931.73     | 560.1 | 17.34
Output  | 2.3686     | 2.3738     | 2.3791     |   0.2 |  0.07
Modify  | 64.102     | 65.174     | 65.881     |   7.2 |  1.87
Other   |            | 6.117      |            |       |  0.18

Nlocal:          33.75 ave          43 max          25 min
Histogram: 3 0 5 5 1 6 7 1 3 1
Nghost:        1037.22 ave        1053 max        1024 min
Histogram: 3 3 3 2 5 6 7 1 1 1
Neighs:              0 ave           0 max           0 min
Histogram: 32 0 0 0 0 0 0 0 0 0
FullNghs:      5340.62 ave        6840 max        3911 min
Histogram: 3 0 4 5 5 4 6 1 3 1

Total # of neighbors = 170900
Ave neighs/atom = 158.24074
Neighbor list builds = 4
Dangerous builds = 0

Total wall time: 1:01:30
