
units		metal
atom_style	atomic

read_data ${STRUCTURE}.data
read_data BaTiO3-sc333.data
Reading data file ...
  orthogonal box = (0 0 0) to (11.898253 11.898253 12.912076)
  2 by 4 by 4 MPI processor grid
  reading atoms ...
  135 atoms
  read_data CPU = 0.022 seconds
replicate $L $L $L
replicate 2 $L $L
replicate 2 2 $L
replicate 2 2 2
Replication is creating a 2x2x2 = 8 times larger system...
  orthogonal box = (0 0 0) to (23.796507 23.796507 25.824152)
  2 by 4 by 4 MPI processor grid
  1080 atoms
  replicate CPU = 0.004 seconds

pair_style allegro
pair_coeff	* * ${MODEL}.pth Ba Ti O
pair_coeff	* * BaTiO3-E0.pth Ba Ti O
mass 1 137.3
mass 2 47.9
mass 3 15.9994

timestep 0.002
compute polarization all allegro polarization 3
compute allegro will evaluate the quantity polarization of length 3 (src/compute_allegro.cpp:53)
compute polarizability all allegro polarizability 9
compute allegro will evaluate the quantity polarizability of length 9 (src/compute_allegro.cpp:53)

thermo_style custom pe fmax fnorm spcpu cpuremain

variable efield equal 1e-2*36.36
fix born all addbornforce 0.0 0.0 ${efield}
fix born all addbornforce 0.0 0.0 0.3636

thermo 10
min_style fire
#minimize 0.0 1e-6 100 100
velocity all create ${TEMP} ${SEED} dist gaussian rot yes mom yes
velocity all create 310 ${SEED} dist gaussian rot yes mom yes
velocity all create 310 26617 dist gaussian rot yes mom yes
fix nvt all nvt temp ${TEMP} ${TEMP} $(100*dt)
fix nvt all nvt temp 310 ${TEMP} $(100*dt)
fix nvt all nvt temp 310 310 $(100*dt)
fix nvt all nvt temp 310 310 0.2000000000000000111
run 5000
Neighbor list info ...
  update: every = 1 steps, delay = 0 steps, check = yes
  max neighbors/atom: 2000, page size: 100000
  master list distance cutoff = 8
  ghost atom cutoff = 8
  binsize = 8, bins = 3 3 4
  1 neighbor lists, perpetual/occasional/extra = 1 0 0
  (1) pair allegro/kk, perpetual
      attributes: full, newton on, kokkos_device
      pair build: full/bin/kk/device
      stencil: full/bin/3d
      bin: kk/device
Per MPI rank memory allocation (min/avg/max) = 3.516 | 3.516 | 3.516 Mbytes
    PotEng          Fmax          Fnorm          S/CPU         CPULeft    
-807708.29      1.5963678      37.043899      0              0            
-807645.34      3.78601        45.686753      2.2812092      2187.4373    
-807636.77      2.5933599      35.186136      25.897283      1187.6759    
-807609.88      3.160471       37.124302      25.880544      854.20609    
-807604.13      4.1446911      50.050233      25.847956      687.33836    
-807566.37      3.7997921      40.985735      25.859085      587.0465     
-807601.79      2.7462735      39.298824      25.888166      520.02059    
-807647.33      3.7372676      34.074532      25.886411      472.03641    
-807683.67      2.7248766      33.952205      25.866185      435.97028    
-807666.67      3.1594953      35.067863      25.836934      407.85684    
-807654.98      3.1270726      34.897083      25.867022      385.26657    
-807662.07      2.4322733      27.473577      25.867246      366.71321    
-807629.41      2.8121198      30.229788      25.841928      351.20304    
-807585.05      3.205303       40.347625      25.845124      338.01772    
-807570.68      2.8566183      37.966757      25.902483      326.63102    
-807631.98      3.1298201      34.552514      25.857609      316.73272    
-807652.8       2.8590992      31.620714      25.858861      308.0228     
-807664.3       2.9311247      34.265492      25.882911      300.28187    
-807647.27      4.3592411      45.103037      25.89844       293.35193    
-807680.77      2.8919225      37.107941      25.820072      287.14046    
-807641.72      4.2439788      39.414399      25.839214      281.50453    
-807616.06      2.9359641      39.050717      25.892993      276.35016    
-807563.63      4.0645465      45.759663      25.943875      271.6128     
-807606.14      4.4251791      49.833598      25.872865      267.27581    
-807612.33      4.178014       39.513832      25.849356      263.275      
-807640.66      3.1211781      35.449883      25.899616      259.54905    
-807644.32      4.5394221      44.336652      25.926164      256.07279    
-807682.46      2.8315796      37.53906       25.889032      252.83515    
-807664.04      3.8074587      34.51906       25.856204      249.80945    
-807636.69      3.0266836      32.326758      25.920987      246.95005    
-807611.43      4.4832895      32.745483      25.929103      244.25367    
-807605.37      3.7390278      41.723121      25.912797      241.71003    
-807597.64      3.2197204      35.780437      25.816101      239.3224     
-807607.29      3.4489449      33.43288       25.90045       237.03813    
-807643.85      3.2845771      30.328436      25.906167      234.86437    
-807673.79      2.7130455      31.614468      25.912918      232.79142    
-807676.98      2.5356056      32.8198        25.815887      230.83089    
-807644.1       4.237271       38.948412      25.913322      228.93717    
-807650.72      2.6314857      30.955244      25.895236      227.12608    
-807622.25      3.6701302      34.158236      25.875834      225.3915     
-807600.23      3.9053154      43.662949      25.835419      223.73127    
-807569.01      3.8801297      41.698002      25.88271       222.12523    
-807624.98      2.8930362      35.388768      25.882541      220.57729    
-807649.44      3.4337269      34.990421      25.853267      219.08803    
-807673.08      2.7546421      34.209299      25.863447      217.64731    
-807642.1       4.5957605      46.108665      25.902052      216.24761    
-807669.92      2.8098455      34.565068      25.909941      214.89082    
-807645.14      3.5889251      35.524435      25.873921      213.58052    
-807622.62      3.3951848      37.657347      25.886481      212.30694    
-807566.16      3.5028299      42.808022      25.895779      211.06831    
-807602.35      3.821316       43.406148      25.885293      209.86518    
-807624.49      3.9089454      34.865211      25.823835      208.70217    
-807652.24      3.0840861      33.075885      25.858487      207.56454    
-807644.18      4.8744088      40.777528      25.889688      206.45131    
-807672.29      2.9657122      34.655598      25.843178      205.37074    
-807666.77      3.2033292      32.957889      25.830968      204.31688    
-807641.88      3.1301034      31.032336      25.878359      203.28121    
-807600.67      3.4872437      35.41582       25.921152      202.26336    
-807598.81      3.4653296      38.017309      25.87908       201.27209    
-807605.36      3.7099229      39.069573      25.798272      200.31036    
-807620.09      3.014432       31.716092      25.862742      199.36069    
-807638.68      2.8430547      31.869782      25.937398      198.42147    
-807664.35      3.4199336      33.542762      25.904405      197.50357    
-807675.99      2.758327       34.685197      25.839457      196.6093     
-807646.84      4.6255072      37.546887      25.877812      195.72696    
-807635.41      2.9211432      33.014787      25.898435      194.85783    
-807613.82      3.8729156      35.091492      25.920584      194.00116    
-807604.03      4.1492814      44.876345      25.828083      193.16748    
-807580.37      3.6258461      40.417902      25.888536      192.34119    
-807617.02      2.5021379      36.036465      25.890371      191.52748    
-807646.78      3.9849513      35.967856      25.893583      190.72569    
-807673.78      2.9453869      35.797869      25.822387      189.94204    
-807648.81      4.0572842      41.781203      25.861121      189.16595    
-807653         3.2178705      35.42042       25.884586      188.39848    
-807642.22      3.4426153      34.577288      25.868457      187.6427     
-807624.49      3.1003946      37.316694      25.88643       186.89524    
-807577.25      3.5326816      39.928697      25.899007      186.15625    
-807591.78      3.3940924      40.118931      25.914982      185.42511    
-807626.82      3.084706       33.408576      25.860785      184.70719    
-807659.2       2.39982        32.321723      25.853743      183.99822    
-807650.72      3.5706132      36.523437      25.897573      183.29388    
-807658.12      3.58008        35.318905      25.785389      182.60608    
-807664.82      2.9700068      32.501301      25.813583      181.92343    
-807643.89      4.6154387      31.429207      25.86776       181.24383    
-807604.62      3.394391       34.42401       25.890741      180.5695     
-807585.7       4.5932954      38.272902      25.887169      179.90221    
-807608.91      4.0759168      39.018984      25.78401       179.2489     
-807628.01      5.4123808      33.070511      25.788983      178.60133    
-807640.59      3.5128794      33.627866      25.817698      177.95765    
-807651.76      3.7679573      36.977509      25.910166      177.31335    
-807672.76      3.3779573      35.805978      25.837964      176.6797     
-807651.84      5.1830715      35.596582      25.860416      176.04996    
-807630.85      3.6709676      33.401326      25.919772      175.42158    
-807604.41      5.6067082      36.416352      25.926329      174.79798    
-807606.47      4.1885647      43.136826      25.855522      174.18401    
-807596.11      4.1622309      37.535727      25.868041      173.57403    
-807617.03      3.0565928      35.241592      25.892726      172.96715    
-807641.58      4.9924507      36.202754      25.854812      172.36717    
-807669.86      2.9782421      35.163725      25.845072      171.77214    
-807657.98      5.1646712      36.9543        25.947142      171.17515    
-807646.24      3.2890789      34.57763       25.991743      170.57975    
-807635.46      3.7542077      32.914071      25.951276      169.99089    
-807623.85      3.1915671      35.718932      25.9257        169.4075     
-807593.37      3.2163862      37.292474      25.907015      168.82902    
-807591.39      3.133366       37.968074      25.942422      168.25224    
-807626.99      2.5961016      32.144536      25.896197      167.68169    
-807656.7       2.8262184      33.002395      25.856669      167.11682    
-807659.81      2.868634       33.632029      25.922515      166.55166    
-807649.3       3.9439298      37.285024      25.96706       165.98743    
-807657.52      2.9723483      32.91125       25.955621      165.42709    
-807640.72      3.4279732      33.183072      25.93843       164.87084    
-807612.53      3.1020105      35.540464      25.959955      164.31654    
-807581.97      3.1891113      38.12197       25.998679      163.76328    
-807609.39      3.9648072      36.857596      25.947456      163.2156     
-807633.23      3.0673015      32.296287      25.905481      162.67289    
-807649.74      4.2134043      32.735043      25.94533       162.13091    
-807645.63      3.9988155      38.232944      25.944442      161.59168    
-807666.16      2.9681799      34.439218      25.922698      161.05613    
-807652.11      3.2432582      35.030123      25.911496      160.52367    
-807633.07      3.1663502      33.287093      25.96205       159.99125    
-807596.4       3.220749       37.325872      25.983209      159.4603     
-807606.73      3.4173723      39.298711      25.949186      158.93335    
-807608.75      3.3530974      36.504206      25.789595      158.41611    
-807628.31      3.9347071      31.906232      25.801934      157.9004     
-807637.34      3.9292243      35.108731      25.917096      157.38154    
-807665.06      2.8438083      33.299565      25.9058        156.86531    
-807660.33      2.8592368      33.466386      25.88166       156.35221    
-807644.84      2.907141       33.05116       25.934742      155.83879    
-807624.99      2.7926101      33.168841      25.967639      155.32595    
-807618.16      3.2712007      34.990506      25.936185      154.81643    
-807603.51      3.6524124      38.148097      25.880135      154.31119    
-807601.01      2.7857623      36.814571      25.893975      153.80719    
-807624.61      3.1439247      33.845938      25.853097      153.30667    
-807654.17      2.8768968      33.36138       25.819572      152.80925    
-807661.54      2.9682798      34.378787      25.826959      152.31317    
-807647.28      3.575937       36.250484      25.903081      151.81563    
-807646.65      2.9820502      32.524542      25.963067      151.31734    
-807636.4       3.3175175      32.34411       25.933206      150.82188    
-807615.82      3.196596       35.469385      25.972627      150.32647    
-807586.87      3.7156152      37.63467       25.877385      149.83633    
-807609.22      2.6422614      35.370098      25.914999      149.34623    
-807635.34      3.2375933      32.848125      25.934512      148.85687    
-807653.71      2.7303748      33.384957      25.941871      148.3687     
-807645.15      3.4787413      37.673079      25.943605      147.8819     
-807656.54      2.768601       34.659305      25.954069      147.39612    
-807649.04      3.4967573      34.503         25.931732      146.91254    
-807633.02      3.5255781      32.775088      25.895127      146.43162    
-807595.9       3.1918637      36.798211      25.968506      145.94937    
-807598.48      3.6103322      38.29772       25.902894      145.47076    
-807612.78      3.9463162      36.825351      25.795612      144.99717    
-807637.03      3.1637213      33.236523      25.885024      144.5216     
-807637.78      4.1911826      35.866434      25.915149      144.04617    
-807656.86      2.9390991      34.402779      25.915998      143.5719     
-807659.02      2.8826272      34.375935      25.857565      143.10076    
-807645.44      2.639265       32.990455      25.86924       142.63032    
-807619.18      3.2750034      34.096988      25.937472      142.1587     
-807608         3.2564097      35.161045      25.839184      141.69142    
-807605.26      3.3377593      38.23009       25.875528      141.22397    
-807611.07      2.7031838      33.711069      25.891652      140.75703    
-807624.9       2.6400196      31.793834      25.917889      140.29026    
-807649.14      3.1406233      32.831525      25.948104      139.82355    
-807661.4       2.5729511      33.552337      25.931375      139.35838    
-807651.38      3.9926712      34.402534      25.893965      138.89535    
-807639.04      3.1823914      33.292969      25.927918      138.43221    
-807625.5       3.6667651      33.660453      25.986467      137.96824    
-807615.05      3.19663        37.468072      25.862142      137.50899    
-807595.6       3.6781254      37.506677      25.950089      137.04797    
-807607.35      3.3520859      35.53978       25.925228      136.5886     
-807633.44      3.6337605      32.938653      25.974075      136.12867    
-807657.02      2.629513       33.242049      25.952156      135.67026    
-807651.38      3.4674062      35.057585      25.893728      135.21441    
-807651.53      2.5469335      32.851085      25.939828      134.75804    
-807644.97      3.3855098      31.678689      25.950914      134.30219    
-807633.2       3.0551161      32.487728      25.949672      133.84718    
-807602.31      2.6752649      34.835015      25.910171      133.39408    
-807598.24      3.1478038      36.865282      25.884628      132.94245    
-807617.7       2.9585272      33.200697      25.809247      132.49364    
-807642.01      2.8374621      31.894444      25.842106      132.04463    
-807647.27      2.7467938      33.346898      25.940368      131.59366    
-807651.85      3.0656496      34.046122      25.923423      131.14387    
-807657.04      2.7403409      32.266214      25.956978      130.69391    
-807645.86      3.3896963      31.6555        25.923845      130.24553    
-807620.19      2.5186541      33.252075      25.870724      129.79922    
-807600.15      3.4064182      35.316162      25.903158      129.35273    
-807607.69      3.2854015      36.467902      25.860491      128.90799    
-807621.03      2.845532       33.37845       25.812569      128.4651     
-807635.11      3.3367126      31.56914       25.837797      128.02217    
-807644.31      4.0650098      34.367239      25.948106      127.57708    
-807661.73      2.5021636      33.477111      25.957919      127.13238    
-807651.7       3.3736191      33.514925      25.954047      126.68841    
-807635.86      2.6985612      32.555714      25.856675      126.24743    
-807616.19      3.0764017      33.700518      25.900445      125.80595    
-807612.86      2.9473678      36.290589      25.94175       125.36407    
-807604.63      2.9210755      35.593071      25.928573      124.92308    
-807616.65      3.4631244      33.708772      25.922043      124.48281    
-807633.18      3.6717217      32.626636      25.930343      124.04291    
-807655.55      2.6000147      32.900582      25.892352      123.60444    
-807653.61      2.9972355      33.988091      25.919106      123.16589    
-807645.78      2.4624773      33.15931       25.927103      122.72769    
-807633.57      3.6068214      32.832432      25.955322      122.28938    
-807626.87      2.889276       32.734238      25.969558      121.85129    
-807607.48      2.9345855      35.572677      25.837377      121.41666    
-807601.59      3.1686226      35.858705      25.89319       120.98126    
-807619.47      2.8587551      33.210135      25.88767       120.54647    
-807642.56      2.4923212      32.887942      25.90179       120.11185    
-807650.15      2.9425489      33.841308      25.878963      119.6782     
-807645.3       3.4800836      35.035136      25.913955      119.24426    
-807648.57      2.90011        32.34096       25.8974        118.81113    
-807638.35      3.3825706      33.160641      25.874768      118.37892    
-807621.66      2.6966135      33.128789      25.80453       117.94862    
-807597.98      3.177585       36.526229      25.823519      117.51834    
-807609.34      2.9294667      35.70278       25.834864      117.08823    
-807626.64      2.6637723      33.033238      25.851218      116.65819    
-807640.71      3.4196131      33.46827       25.874272      116.22809    
-807641.61      3.8300603      35.5368        25.917478      115.79754    
-807654.02      2.7743089      33.883882      25.932358      115.36711    
-807647.15      3.4192008      34.632485      25.944129      114.93687    
-807634.52      3.4105188      33.242112      25.982862      114.50629    
-807609.89      3.2588159      34.427233      25.963634      114.0765     
-807607.17      3.3070448      36.421957      25.892511      113.64847    
-807613.31      3.4422832      35.743472      25.886781      113.22094    
-807626.57      3.7459536      33.774623      25.930212      112.79296    
-807634.61      3.636311       34.48087       25.91995       112.36555    
-807651.86      3.703086       34.628885      25.916657      111.93857    
-807653.42      3.1119482      33.591711      25.924414      111.51182    
-807644.69      3.1755587      33.613972      25.9373        111.08521    
-807626.32      3.7229503      34.271449      25.945976      110.65879    
-807617.73      3.1189033      34.825025      25.895606      110.23365    
-807611.81      3.1433162      35.429018      25.78838       109.81075    
-807612.3       2.9440459      34.711079      25.840347      109.38725    
-807625.18      2.5345938      32.438701      25.901738      108.96298    
-807644.54      3.0537621      32.151301      25.932344      108.53851    
-807654.45      2.9028656      33.152745      25.895906      108.11501    
-807647.96      3.4494429      33.647444      25.916774      107.69147    
-807640.88      3.0458209      33.397984      25.946117      107.26775    
-807632.73      3.239163       32.086158      25.932945      106.84458    
-807619.92      3.8078711      34.7733        25.937206      106.42166    
-807604.29      3.484136       35.814651      25.906819      105.99956    
-807614.35      2.7604968      33.889672      25.968281      105.57675    
-807630.65      3.6527302      33.606252      25.925784      105.15495    
-807648.46      3.0347912      33.048682      25.88841       104.73406    
-807647.19      4.0757739      35.068724      25.923348      104.31289    
-807648.33      3.0931219      34.526612      25.920706      103.89205    
-807642.35      3.1155531      34.105011      25.858067      103.4725     
-807632.53      2.956807       33.511348      25.9074        103.05243    
-807609.24      3.8050539      34.590516      25.883641      102.63302    
-807606.11      2.9121351      35.830038      25.934096      102.2131     
-807619.17      3.0752377      34.118619      25.927404      101.79356    
-807634.89      3.0595548      33.275899      25.912914      101.37451    
-807642.06      3.6131811      33.054875      25.928061      100.9555     
-807649.85      3.275382       33.513517      25.910227      100.53702    
-807651.22      3.1805065      33.603061      25.946733      100.11826    
-807642.95      2.5835959      32.634131      25.904297      99.70039     
-807622.12      4.0482659      34.017385      25.901036      99.282817    
-807609         2.993711       35.527928      25.868999      98.865956    
-807609.86      3.1504693      36.510781      25.952363      98.448139    
-807619.2       3.1129664      33.836132      25.910555      98.031168    
-807628.96      3.2163044      33.143059      25.934876      97.614097    
-807644.33      3.9074871      33.41233       25.967104      97.196821    
-807653.73      2.7819193      33.009853      25.929531      96.780313    
-807648.01      4.0143338      33.569143      25.928089      96.364061    
-807636.25      3.2980405      33.314544      25.917365      95.948191    
-807623.56      3.1090668      33.020034      25.928521      95.532398    
-807613.94      3.5816185      35.744557      25.906992      95.117124    
-807607.24      3.1380742      36.491877      25.891336      94.70228     
-807615.3       2.9311486      34.414731      25.941948      94.286983    
-807632.49      2.6493045      33.506745      25.948398      93.871827    
-807649.05      3.0948715      33.770776      25.894169      93.457597    
-807649.32      3.5099283      34.597414      25.802968      93.044759    
-807644.28      3.1517652      34.613945      25.864055      92.631323    
-807636.17      3.746172       33.571633      25.860883      92.218125    
-807625.44      3.0892871      34.556488      25.884015      91.804832    
-807611.73      3.3211882      35.966367      25.898384      91.391557    
-807605.27      2.9723433      36.306977      25.899335      90.978469    
-807620.32      2.6879993      33.231551      25.912112      90.56542     
-807638.59      2.9858572      32.359549      25.920448      90.152468    
-807646.12      2.8249592      33.642711      25.931827      89.739575    
-807645.59      3.6311108      34.301275      25.944289      89.32673     
-807645.63      3.7108943      33.743719      25.926864      88.914288    
-807639.87      2.9542941      33.347137      25.907522      88.502267    
-807620.67      4.3591777      34.850272      25.926512      88.090209    
-807606.93      3.7111417      36.617353      25.924226      87.678366    
-807609.49      3.5921266      36.326533      25.919767      87.266758    
-807627.2       3.2227092      34.237567      25.906997      86.855479    
-807634.72      3.3392829      34.086805      25.939532      86.44401     
-807643.53      3.469646       34.217982      25.905473      86.033105    
-807649.55      3.1498123      34.24213       25.932292      85.622076    
-807648.15      3.164004       33.152534      25.923245      85.211324    
-807632.46      4.0755969      33.611463      25.928944      84.800683    
-807619.03      2.8762285      33.899239      25.929343      84.39021     
-807610.74      3.4901291      35.537553      25.907578      83.980143    
-807616.65      3.0661064      35.66219       25.896028      83.570365    
-807622.48      2.7056426      33.620539      25.918397      83.160511    
-807635.31      2.6722499      33.154298      25.911343      82.750896    
-807647.21      3.0957402      33.896112      25.913111      82.341423    
-807651.48      3.2458725      33.289088      25.883809      81.932414    
-807640.03      3.3923998      34.009202      25.927024      81.523114    
-807629.43      4.1008121      33.600038      25.944975      81.113791    
-807622.68      3.7278655      33.260026      25.960795      80.704469    
-807613.79      3.0955547      35.827862      25.928216      80.295633    
-807612.33      3.1255957      34.625092      25.951704      79.886719    
-807623.56      3.1271787      33.82362       25.992602      79.477561    
-807640.38      2.7793769      33.383518      25.970999      79.068775    
-807648.61      3.4312888      33.309177      25.932959      78.660513    
-807643.53      4.0896936      34.844623      25.979368      78.251955    
-807639.29      3.7860506      34.115326      26.010498      77.843258    
-807634.43      2.8034601      33.148419      25.99474       77.434867    
-807619.94      3.2017409      34.561984      25.917323      77.027353    
-807609.27      2.9880466      34.872797      25.930277      76.619859    
-807612.95      3.0053593      34.113607      25.923287      76.212572    
-807631.07      3.6203917      32.453662      25.912698      75.805519    
-807641.61      3.4004456      32.589422      25.911413      75.398614    
-807644.12      3.9250449      33.333074      25.885283      74.992079    
-807644.97      2.5640988      33.411592      25.958559      74.585021    
-807644.29      2.7968743      32.820421      25.933509      74.178323    
-807630.06      2.6683071      33.602541      25.945553      73.771653    
-807615.37      3.804749       35.061655      25.96361       73.364962    
-807607.69      3.5228311      35.95871       25.924305      72.958744    
-807618.98      3.1587649      34.914013      25.898543      72.552874    
-807630.22      2.8133385      33.687416      25.957063      72.146634    
-807637.58      3.20896        33.646313      25.949169      71.740591    
-807646.75      3.7960453      33.901101      25.917642      71.334938    
-807648.31      2.9371965      33.958672      25.924587      70.929352    
-807641.03      3.5866765      33.319021      25.926441      70.523872    
-807623.85      3.0216293      34.261275      25.877891      70.118909    
-807615.49      2.6523229      33.716731      25.881578      69.71403     
-807613.21      3.1786126      35.645622      25.921893      69.308943    
-807616.88      3.3941813      34.91464       25.902502      68.904127    
-807627.54      2.8438468      33.632449      25.963351      68.498952    
-807640.16      2.7442633      33.58147       25.916549      68.094259    
-807648.8       2.7569713      33.447104      25.941402      67.68949     
-807645.89      3.3272598      33.585983      26.052174      67.284001    
-807636.36      2.8825787      33.328394      26.028272      66.878821    
-807627.28      2.964382       33.01919       26.092642      66.473291    
-807617.67      2.6105146      34.066972      26.015938      66.068456    
-807610.2       3.0070276      35.524696      26.066555      65.663376    
-807615.62      2.8065759      34.749977      26.034284      65.258656    
-807630.28      3.2033787      33.924116      25.957475      64.854607    
-807644.62      3.0102568      33.628454      25.955141      64.450687    
-807645.28      2.6736314      34.291412      25.947361      64.046931    
-807642.94      3.6354059      34.514916      25.966179      63.643152    
-807637.35      3.0623213      34.162885      25.987938      63.239332    
-807629.05      2.8261049      33.528132      26.083371      62.834973    
-807611.18      3.098635       35.863666      26.039639      62.431031    
-807607.58      3.1178153      36.027902      25.933863      62.027914    
-807618.53      3.2102586      35.054755      26.013907      61.624367    
-807634.75      3.2762809      33.168858      26.038678      61.220767    
-807641.92      2.9398387      34.056933      26.058615      60.817151    
-807643.57      2.7977254      34.515655      26.016167      60.413922    
-807646.9       3.1827588      32.995956      26.049948      60.010585    
-807637.07      2.8341682      33.463249      26.084692      59.607141    
-807623.02      3.0569296      34.265995      26.095308      59.203745    
-807610.67      3.1664914      34.774727      26.091052      58.800489    
-807611.07      3.4973277      35.859557      26.098043      58.397305    
-807621.89      2.9822619      35.048954      26.096335      57.994243    
-807633.09      2.9105209      32.820666      26.11658       57.591172    
-807641.24      3.1347042      33.376272      26.069494      57.188495    
-807648.62      2.5321532      33.474206      26.080012      56.785862    
-807643.72      3.4639712      34.617228      26.073249      56.383376    
-807636.29      2.9613091      32.925666      26.064549      55.981045    
-807621.12      3.0025788      34.002559      26.044869      55.578932    
-807615.01      2.9276642      35.073221      26.019226      55.177064    
-807614.03      2.7446353      35.70891       25.997484      54.775416    
-807622.23      2.9274207      34.685435      25.965995      54.374038    
-807633.83      2.9588487      33.112214      25.961198      53.972775    
-807644.17      2.858283       33.286403      25.988901      53.571449    
-807647.12      3.1418759      34.194295      26.032391      53.169978    
-807642.06      2.761474       33.466812      26.060925      52.768449    
-807634.43      3.3368463      32.744855      26.090082      52.366863    
-807623.25      2.4711387      32.775997      26.064564      51.965509    
-807615.25      2.9531118      34.816857      26.085196      51.564145    
-807613.83      2.9918141      33.915812      26.061489      51.162998    
-807624.78      2.6956266      33.380176      26.067534      50.761915    
-807636.05      3.3851036      33.448681      26.025355      50.361137    
-807645.91      2.501602       33.113685      26.09205       49.960117    
-807644.15      3.6903102      34.393978      26.055414      49.559371    
-807643.29      3.0871266      33.106854      26.041221      49.158784    
-807634.42      2.8152027      32.523589      26.092673      48.758038    
-807623.43      2.5418101      33.180969      26.050527      48.357585    
-807613.52      2.8780199      34.332786      26.051716      47.957213    
-807615.36      3.7512601      34.573601      26.030181      47.557029    
-807627.32      3.5014045      32.231354      25.959875      47.157254    
-807638.23      2.8301757      32.741564      25.973711      46.757492    
-807642.91      4.1554184      33.391289      26.00835       46.35765     
-807645.96      3.4575685      33.389187      25.964149      45.958086    
-807642.72      3.3059659      33.251419      25.990009      45.558482    
-807631.58      2.7550134      33.289028      25.968712      45.159048    
-807618.01      3.2261428      34.299936      25.99193       44.759589    
-807611.69      3.1442001      36.052465      26.008242      44.360135    
-807616.15      3.1155441      36.210506      25.975685      43.960896    
-807625.2       3.0971465      34.518969      25.982888      43.5617      
-807637.6       2.9223271      33.511933      26.003041      43.162494    
-807643.75      3.1725387      33.882432      25.999915      42.763375    
-807647.65      3.1244187      33.434444      26.071331      42.364043    
-807638.16      3.5360478      33.972739      26.10489       41.964659    
-807628.88      3.3175057      32.939585      26.029343      41.565653    
-807617         3.0501693      34.672315      26.058639      41.166608    
-807615.2       3.7884649      34.885172      26.025729      40.767767    
-807616.15      3.1654198      34.403817      26.006725      40.36907     
-807626.17      3.6040593      34.796312      26.05237       39.970274    
-807637.89      2.800676       33.847163      26.006451      39.571723    
-807643.27      4.2185544      35.042057      25.975402      39.173355    
-807643.91      3.1185972      34.207305      25.955108      38.775126    
-807637.34      3.328694       34.970213      26.017467      38.37674     
-807628.04      3.2751639      34.40577       26.036282      37.978358    
-807617.16      3.3501814      35.342252      26.023619      37.580089    
-807612.87      3.2935366      35.601516      26.025714      37.181883    
-807617.39      3.3344014      35.121233      26.070154      36.783595    
-807629.1       2.8792596      33.17344       25.976689      36.385691    
-807639         3.1355658      33.160259      25.975567      35.987854    
-807643.03      3.3952202      34.233316      25.998433      35.590005    
-807644.52      2.8245605      33.448033      25.932046      35.192434    
-807638.25      3.9050571      33.552961      26.034133      34.794598    
-807626.82      3.2422651      34.108677      26.034763      34.396826    
-807617.26      2.9211449      34.70797       26.09848       33.998926    
-807613.4       2.930522       35.496525      26.088732      33.601125    
-807619.32      3.33374        35.45047       26.093111      33.203382    
-807631         3.2536188      33.893316      26.021973      32.805917    
-807638.85      3.0485698      34.499608      25.988113      32.408613    
-807644.96      4.3958873      34.784716      26.043253      32.011211    
-807642.28      2.8525505      34.920813      26.049418      31.613855    
-807636.75      3.2621935      34.113003      26.024782      31.216632    
-807626.49      2.5605525      33.763115      26.071887      30.819342    
-807617.05      3.0472421      35.007933      26.050043      30.422176    
-807615.87      3.6221395      35.017283      26.025795      30.025136    
-807622.52      3.2667418      33.923856      25.923613      29.628424    
-807631.21      2.8303581      33.416859      25.937514      29.231728    
-807640.03      3.3922655      33.321194      25.913207      28.835145    
-807644.84      2.7378724      33.68228       25.943069      28.438538    
-807639.97      2.8456276      34.2845        26.032164      28.041764    
-807636.79      2.8675437      33.641571      26.069376      27.64496     
-807623.26      3.0631742      34.888195      26.064919      27.248228    
-807619.22      3.008389       35.2894        26.027436      26.851643    
-807616.64      3.7049346      35.456484      26.061798      26.455037    
-807623.27      3.9611952      35.005155      26.098599      26.058408    
-807631.41      4.2012307      34.532779      25.986052      25.662089    
-807641.86      3.1066315      34.07784       25.98318       25.265829    
-807642.88      3.9676179      34.135979      26.073268      24.86943     
-807641.63      2.7988568      33.11945       26.056581      24.473123    
-807633.34      4.0877941      33.628457      26.081922      24.076823    
-807626.98      2.8444297      32.972663      26.117437      23.680509    
-807617.91      3.0032556      34.213896      26.061228      23.284367    
-807616.59      3.2764534      34.027433      26.045797      22.888312    
-807624.99      2.9918778      33.132239      25.999056      22.492399    
-807633.9       2.8184787      33.172681      25.91241       22.0967      
-807641.2       2.9329696      33.228305      26.020583      21.700846    
-807642.13      3.4178284      33.851263      26.059042      21.304976    
-807642.2       2.4147567      32.891009      26.100807      20.909087    
-807631.84      2.9484399      34.105532      26.029457      20.513377    
-807625.11      3.0955592      34.870411      26.048702      20.117686    
-807616.3       3.7940333      35.678055      26.047432      19.722049    
-807617.46      3.3705996      35.468685      25.997428      19.326545    
-807625.37      3.4912401      34.782639      25.98883       18.931102    
-807634.99      3.4778073      34.287314      25.984599      18.535712    
-807638.45      3.6443557      34.954617      25.993591      18.140356    
-807642.74      3.3060242      34.711551      26.000883      17.745036    
-807638.2       3.0297372      34.365728      25.99017       17.349778    
-807632.65      3.0777089      33.824998      25.986406      16.954571    
-807620.91      3.5011019      35.24779       25.99908       16.559393    
-807618.09      3.3455532      34.603026      26.050877      16.164192    
-807617.52      3.476963       35.426228      26.023699      15.769075    
-807627.97      3.066969       33.688053      26.029093      15.373999    
-807633.68      3.7849115      34.210244      25.961602      14.979052    
-807642.55      2.794939       33.435821      25.987462      14.584116    
-807641.53      4.2853259      35.663418      26.050664      14.189152    
-807639.75      2.7437796      34.176009      26.081005      13.794202    
-807630.19      3.1820138      34.988432      26.051427      13.399333    
-807622.31      3.6118525      35.405468      26.031714      13.004532    
-807616.24      3.0190783      36.046741      26.069281      12.609738    
-807618.87      3.0729072      35.758339      26.130426      12.214933    
-807624.86      3.0096779      35.270212      26.113617      11.820195    
-807634.75      3.079676       34.47127       26.099446      11.42552     
-807641.09      3.6321713      35.045868      26.039076      11.030947    
-807640.91      2.9983791      34.704621      26.058155      10.636402    
-807638.73      4.1047186      35.144449      26.006924      10.241944    
-807628.85      3.3046264      35.404198      26.028969      9.8475108    
-807623.81      3.5163957      34.870546      26.017973      9.4531288    
-807614.39      3.1255004      36.420541      26.000166      9.0588016    
-807621.53      3.1667944      35.361248      26.040975      8.6644873    
-807626.16      3.5715334      35.488956      26.052205      8.2702087    
-807634.99      3.1259006      34.206694      26.049735      7.8759751    
-807640.23      4.2913212      34.477555      25.995601      7.4818162    
-807641.72      3.0140301      34.38756       25.923515      7.0877365    
-807636.6       3.3594014      34.701233      25.963212      6.6936706    
-807626.89      3.0481605      35.186791      26.017623      6.2996148    
-807620.87      3.5041439      35.225823      26.009522      5.9056028    
-807618.69      3.0936422      36.255116      25.982746      5.5116414    
-807619.78      3.0532478      35.503449      25.95285       5.1177292    
-807627.11      3.4618388      35.452456      26.237728      4.7237493    
-807634.86      3.993485       35.141134      26.283392      4.3298071    
-807642.78      4.6023636      34.69589       26.278428      3.9359214    
-807638.31      3.1752151      34.701332      26.278838      3.5420899    
-807633.48      4.2399218      34.848397      26.261718      3.1483165    
-807627.87      3.3908954      34.433842      26.275636      2.7545929    
-807622.72      3.8670258      34.991684      26.231753      2.3609303    
-807616.31      2.9437633      35.741859      26.196559      1.9673232    
-807621.05      2.8688872      35.326789      26.236247      1.5737592    
-807630.42      2.8885082      35.116788      26.203817      1.1802481    
-807637.31      3.1475239      34.314903      26.210471      0.78678432   
-807640.01      3.0898564      35.090779      26.219748      0.39336811   
-807639         3.2642254      34.702332      26.250307      0            
Loop time of 196.672 on 32 procs for 5000 steps with 1080 atoms

Performance: 4.393 ns/day, 5.463 hours/ns, 25.423 timesteps/s, 27.457 katom-step/s
66.7% CPU use with 32 MPI tasks x 1 OpenMP threads

MPI task timing breakdown:
Section |  min time  |  avg time  |  max time  |%varavg| %total
---------------------------------------------------------------
Pair    | 102.25     | 145.28     | 192.24     | 307.4 | 73.87
Neigh   | 0          | 0          | 0          |   0.0 |  0.00
Comm    | 2.146      | 49.118     | 92.142     | 528.7 | 24.97
Output  | 0.025951   | 0.026796   | 0.028722   |   0.3 |  0.01
Modify  | 1.922      | 1.9325     | 1.9435     |   0.4 |  0.98
Other   |            | 0.3172     |            |       |  0.16

Nlocal:          33.75 ave          48 max          21 min
Histogram: 8 8 0 0 0 0 0 8 0 8
Nghost:        1106.25 ave        1119 max        1092 min
Histogram: 8 0 8 0 0 0 0 0 8 8
Neighs:              0 ave           0 max           0 min
Histogram: 32 0 0 0 0 0 0 0 0 0
FullNghs:       5494.5 ave        7896 max        3378 min
Histogram: 8 8 0 0 0 0 0 8 0 8

Total # of neighbors = 175824
Ave neighs/atom = 162.8
Neighbor list builds = 0
Dangerous builds = 0

reset_timestep 0


variable interval equal 1000
thermo 10

variable nintervals equal $(v_PERIOD/v_interval)
variable nintervals equal 100
variable efield equal 1e-2*36.36*cos((step/${PERIOD})*2*3.14)
variable efield equal 1e-2*36.36*cos((step/100000)*2*3.14)
fix born all addbornforce 0.0 0.0 v_efield

variable Px equal f_born[1]+c_polarization[1]
variable Py equal f_born[2]+c_polarization[2]
variable Pz equal (f_born[3]+c_polarization[3])/vol
variable pe equal pe

fix aveP all ave/time 1 $(v_interval/2) ${interval} v_efield v_Pz v_pe f_born file Pz.${MODEL}.${STRUCTURE}.${TEMP}.$L.${ITER}
fix aveP all ave/time 1 500 ${interval} v_efield v_Pz v_pe f_born file Pz.${MODEL}.${STRUCTURE}.${TEMP}.$L.${ITER}
fix aveP all ave/time 1 500 1000 v_efield v_Pz v_pe f_born file Pz.${MODEL}.${STRUCTURE}.${TEMP}.$L.${ITER}
fix aveP all ave/time 1 500 1000 v_efield v_Pz v_pe f_born file Pz.BaTiO3-E0.${STRUCTURE}.${TEMP}.$L.${ITER}
fix aveP all ave/time 1 500 1000 v_efield v_Pz v_pe f_born file Pz.BaTiO3-E0.BaTiO3-sc333.${TEMP}.$L.${ITER}
fix aveP all ave/time 1 500 1000 v_efield v_Pz v_pe f_born file Pz.BaTiO3-E0.BaTiO3-sc333.310.$L.${ITER}
fix aveP all ave/time 1 500 1000 v_efield v_Pz v_pe f_born file Pz.BaTiO3-E0.BaTiO3-sc333.310.2.${ITER}
fix aveP all ave/time 1 500 1000 v_efield v_Pz v_pe f_born file Pz.BaTiO3-E0.BaTiO3-sc333.310.2.2

thermo_style custom step time temp press pe f_born v_efield v_Pz spcpu cpuremain

# dump 4a all custom 1000 dump.hyst.${MODEL}.${STRUCTURE}.${TEMP}.$L.${ITER}.bin id type xu yu zu fx fy fz
# dump_modify 4a sort id

fix nvt all nvt temp ${TEMP} ${TEMP} $(100*dt)
fix nvt all nvt temp 310 ${TEMP} $(100*dt)
fix nvt all nvt temp 310 310 $(100*dt)
fix nvt all nvt temp 310 310 0.2000000000000000111

run $(v_PERIOD)
run 100000
WARNING: non-constant efield is experimental, strongly distrust scalar/vector output (src/fix_addbornforce.cpp:193)
Per MPI rank memory allocation (min/avg/max) = 3.516 | 3.516 | 3.516 Mbytes
   Step          Time           Temp          Press          PotEng         f_born        v_efield         v_Pz          S/CPU         CPULeft    
         0   0              300.69697      126354.12     -807639        -293.24381      0.3636         0.055150885    0              0            
        10   0.02           302.11429      130631.16     -807633.84     -298.67058      0.36359993     0.056171521    28.200245      3545.7328    
        20   0.04           328.78343      138030.63     -807628.57     -307.72436      0.36359971     0.057874315    28.223611      3543.9015    
        30   0.06           313.97876      141703.41     -807620.03     -314.27754      0.36359935     0.059106843    28.234989      3542.5788    
        40   0.08           309.37197      144040.93     -807617.94     -315.64598      0.36359885     0.059364289    28.206505      3542.634     
        50   0.1            311.28131      139104.4      -807624.72     -309.23052      0.36359821     0.058157822    28.168582      3543.4796    
        60   0.12           315.86821      134381.29     -807630.64     -303.86451      0.36359742     0.057148746    28.134951      3544.6319    
        70   0.14           307.07615      127348.53     -807637.47     -295.82226      0.36359649     0.055636357    28.131104      3545.4234    
        80   0.16           300.12525      126321.39     -807639.44     -292.81395      0.36359541     0.055070736    28.120915      3546.0883    
        90   0.18           305.33048      125722.14     -807640.61     -292.37704      0.36359419     0.05498875     28.123826      3546.4853    
       100   0.2            310.37655      132655.29     -807632.77     -300.91305      0.36359283     0.056594371    28.188541      3545.9165    
       110   0.22           315.27692      137096.2      -807626.04     -308.5144       0.36359132     0.058024239    28.189934      3545.3708    
       120   0.24           309.73455      143335.41     -807619.46     -314.24815      0.36358968     0.059102888    28.208483      3544.6629    
       130   0.26           301.90097      141846.44     -807620.15     -312.50143      0.36358788     0.05877466     28.194746      3544.1419    
       140   0.28           310.92102      139786.97     -807623.42     -310.40007      0.36358595     0.058379752    28.202721      3543.5731    
       150   0.3            320.91633      132369.18     -807632.36     -302.92987      0.36358387     0.056975089    28.194569      3543.1012    
       160   0.32           310.80857      128064.49     -807638.01     -295.84019      0.36358165     0.055642002    28.219931      3542.4454    
       170   0.34           301.09144      125039.35     -807641.05     -291.4087       0.36357928     0.054808878    28.232801      3541.7295    
       180   0.36           310.89457      127071.85     -807638.84     -294.9913       0.36357677     0.055483085    28.226623      3541.0972    
       190   0.38           316.75786      132306.32     -807631.98     -302.79152      0.36357412     0.056950596    28.242692      3540.3881    
       200   0.4            314.6386       137980.87     -807625.74     -308.77424      0.36357132     0.058076303    28.244803      3539.7014    
       210   0.42           299.09208      142991.83     -807618.79     -313.54405      0.36356838     0.058973916    28.307373      3538.6747    
       220   0.44           305.20468      141087.97     -807620.6      -312.64233      0.3635653      0.058804813    28.247444      3538.0488    
       230   0.46           314.2009       138628.53     -807624.56     -309.87975      0.36356207     0.058285717    28.298237      3537.171     
       240   0.48           316.28306      130486.81     -807634.01     -300.77546      0.3635587      0.056573803    28.26593       3536.5048    
       250   0.5            306.71891      128323.12     -807637.81     -295.51522      0.36355519     0.055584926    28.30303       3535.6787    
       260   0.52           298.51007      124685.96     -807640.84     -291.41623      0.36355153     0.054814477    28.239316      3535.1946    
       270   0.54           296.97901      129511.86     -807635.37     -296.63633      0.36354773     0.055796945    28.257233      3534.6373    
       280   0.56           317.88839      131611.51     -807632.75     -302.33085      0.36354379     0.056868693    28.158555      3534.5362    
       290   0.58           316.27568      140323.67     -807625.07     -309.72602      0.3635397      0.058260386    28.221182      3534.1467    
       300   0.6            304.1757       140395.89     -807620.96     -312.19203      0.36353547     0.058724934    28.208027      3533.8142    
       310   0.62           313.79637      142495.73     -807620.81     -313.63629      0.3635311      0.058997315    28.184867      3533.5741    
       320   0.64           303.55237      136614.62     -807625.68     -307.40554      0.36352658     0.057825984    28.173049      3533.3731    
       330   0.66           312.50682      132734.87     -807632.98     -301.19975      0.36352192     0.056659341    28.208994      3533.0263    
       340   0.68           304.13987      125793.3      -807639.5      -293.55694      0.36351712     0.055222365    28.17403       3532.808     
       350   0.7            300.69614      127695.25     -807637.89     -294.51039      0.36351217     0.055402477    28.174341      3532.5808    
       360   0.72           299.5035       127876.99     -807636.51     -295.88567      0.36350708     0.055661969    28.174973      3532.3441    
       370   0.74           322.88202      134323.18     -807631        -304.53579      0.36350185     0.057290054    28.214776      3531.9664    
       380   0.76           312.39593      138275.69     -807624.81     -309.29021      0.36349647     0.058185328    28.22106       3531.5691    
       390   0.78           314.40861      142556.63     -807620.53     -313.73724      0.36349095     0.059022824    28.226223      3531.1575    
       400   0.8            313.34242      139234.04     -807622.62     -311.51132      0.36348529     0.058604978    28.247556      3530.6822    
       410   0.82           311.2064       137525.02     -807626.8      -306.94495      0.36347948     0.057746825    28.256943      3530.1842    
       420   0.84           302.69217      129883.63     -807633.12     -299.44729      0.36347353     0.056337181    28.233185      3529.7636    
       430   0.86           307.71673      127149.42     -807638.35     -294.68017      0.36346744     0.055441239    28.273996      3529.2278    
       440   0.88           302.80129      126282.33     -807639.44     -292.94735      0.3634612      0.055116171    28.263481      3528.73      
       450   0.9            309.29392      129979.54     -807634.83     -298.40172      0.36345482     0.05614336     28.238358      3528.3083    
       460   0.92           315.42947      135051.8      -807629.69     -304.37688      0.3634483      0.057268596    28.213925      3527.9558    
       470   0.94           319.71991      139772.56     -807623.9      -310.65343      0.36344163     0.058450604    28.241082      3527.5312    
       480   0.96           312.04782      141558.04     -807620.37     -313.0247       0.36343482     0.058897871    28.212568      3527.1836    
       490   0.98           316.61669      140715.81     -807622.33     -311.61507      0.36342786     0.058633761    28.206105      3526.8523    
       500   1              317.31966      135816.44     -807628.14     -305.83223      0.36342077     0.057546779    28.246408      3526.4194    
       510   1.02           314.98954      129815.09     -807635.26     -9544.0811      0.36341353     0.056121668    28.143666      3526.2416    
       520   1.04           301.57009      127111.04     -807638.6      -9372.231       0.36340614     0.055112265    28.142261      3526.0604    
       530   1.06           307.2078       126716.19     -807638.94     -9384.0936      0.36339862     0.055183164    28.090594      3525.9953    
       540   1.08           312.02709      130569.61     -807634.16     -9556.491       0.36339095     0.056198134    28.097077      3525.9043    
       550   1.1            317.90812      135229.18     -807628.45     -9761.8889      0.36338313     0.057407236    28.123031      3525.7444    
       560   1.12           321.96581      140390.04     -807623.34     -9941.7804      0.36337518     0.058466413    28.112026      3525.6021    
       570   1.14           309.5245       142340.97     -807618.56     -10037.246      0.36336707     0.059029149    28.142842      3525.3844    
       580   1.16           308.413        140740.78     -807620.2      -9975.5518      0.36335883     0.058667658    28.093515      3525.2689    
       590   1.18           320.35803      134017.53     -807629.71     -9721.4866      0.36335044     0.057174783    28.11943       3525.0899    
       600   1.2            328.21187      130543.69     -807635.86     -9554.5752      0.36334191     0.05619445     28.158522      3524.8233    
       610   1.22           300.63694      126666.45     -807636.76     -9402.3161      0.36333324     0.055300271    28.182898      3524.5038    
       620   1.24           314.76437      127950.6      -807637.29     -9444.5147      0.36332442     0.055549812    28.126611      3524.297     
       630   1.26           321.39288      129793.98     -807635.67     -9527.41        0.36331546     0.056038759    28.099762      3524.1392    
       640   1.28           321.41328      136973.27     -807627.43     -9789.7848      0.36330636     0.05758345     28.0727        3524.0279    
       650   1.3            308.92263      139876.36     -807619.94     -9974.7643      0.36329711     0.058672992    28.101648      3523.8535    
       660   1.32           310.26218      142541.62     -807618.71     -10017.979      0.36328772     0.058928711    28.177812      3523.5285    
       670   1.34           313.88596      138698        -807623.83     -9873.0205      0.36327819     0.058077545    28.168055      3523.221     
       680   1.36           321.54585      135064.05     -807628.47     -9758.5668      0.36326851     0.057405806    28.101312      3523.0352    
       690   1.38           310.4375       129242.95     -807633.77     -9542.0076      0.36325869     0.056133391    28.114074      3522.8213    
       700   1.4            325.61959      127179.72     -807639.96     -9409.3087      0.36324873     0.055354273    28.073702      3522.676     
       710   1.42           311.98556      126997.75     -807638.87     -9388.0928      0.36323863     0.055230998    28.051372      3522.5642    
       720   1.44           311.87688      132716.68     -807631.63     -9623.2191      0.36322838     0.056615865    28.072585      3522.4085    
       730   1.46           324.40812      135641.71     -807627.5      -9818.3164      0.36321798     0.057765325    28.110834      3522.1816    
       740   1.48           306.25867      141307.99     -807620.48     -9964.7711      0.36320745     0.058628681    28.143174      3521.8961    
       750   1.5            306.28064      140411.73     -807621.54     -9939.2516      0.36319677     0.058480254    28.143235      3521.6088    
       760   1.52           319.19827      139395.65     -807624.49     -9907.107       0.36318595     0.058292859    28.11837       3521.3608    
       770   1.54           310.14805      133859.28     -807629.43     -9719.5755      0.36317498     0.057191162    28.115708      3521.1142    
       780   1.56           319.08772      129383.84     -807637.44     -9507.2852      0.36316387     0.055943731    28.149797      3520.81      
       790   1.58           302.08414      126250.86     -807639.67     -9369.2242      0.36315262     0.055133046    28.151147      3520.5025    
       800   1.6            306.80336      128665.94     -807637.31     -9474.3514      0.36314122     0.055753415    28.118955      3520.2441    
       810   1.62           308.58707      131974.34     -807632.23     -9653.8765      0.36312968     0.056811666    28.159225      3519.9212    
       820   1.64           295.15528      137284.83     -807625.11     -9829.0619      0.363118       0.057844468    28.170588      3519.58      
       830   1.66           303.36897      139999.05     -807623.87     -9911.6891      0.36310618     0.058332632    28.222534      3519.1605    
       840   1.68           305.08392      141171.17     -807621.73     -9992.1827      0.36309421     0.058808294    28.218679      3518.7482    
       850   1.7            311.13239      137489        -807625.97     -9887.0357      0.3630821      0.0581914      28.173654      3518.4034    
       860   1.72           311.5751       132697.91     -807632.94     -9668.8272      0.36306984     0.056909027    28.176609      3518.054     
       870   1.74           302.88858      128506.92     -807638.49     -9453.3757      0.36305745     0.055642817    28.146388      3517.748     
       880   1.76           291.91014      127160.78     -807638.31     -9413.043       0.3630449      0.055407332    28.153411      3517.4308    
       890   1.78           302.20617      128488.95     -807637.04     -9501.7785      0.36303222     0.055931603    28.160848      3517.1023    
       900   1.8            300.12848      131869.12     -807632.81     -9629.041       0.36301939     0.056682729    28.154198      3516.7825    
       910   1.82           304.11197      137985.03     -807627.3      -9823.1432      0.36300642     0.057827405    28.086081      3516.5557    
       920   1.84           309.47135      139756.57     -807623.81     -9959.4115      0.36299331     0.058631715    28.114361      3516.2876    
       930   1.86           292.15515      142295.07     -807619.94     -10003.636      0.36298005     0.058894221    28.149199      3515.9705    
       940   1.88           317.79535      135621.19     -807629.63     -9808.2615      0.36296665     0.057746126    28.118839      3515.6932    
       950   1.9            299.1978       133962.81     -807631.5      -9658.6746      0.36295311     0.056867555    28.159591      3515.3605    
       960   1.92           298.54148      127188.31     -807637.2      -9473.0415      0.36293942     0.055776702    28.142466      3515.0497    
       970   1.94           292.75778      128958.81     -807636.74     -9457.0996      0.36292559     0.05568496     28.136222      3514.746     
       980   1.96           301.7393       127996.85     -807637.43     -9473.0917      0.36291162     0.055781271    28.095356      3514.4935    
       990   1.98           313.04623      133488.03     -807633        -9658.4171      0.3628975      0.056874752    28.123882      3514.2027    
      1000   2              302.94979      137014.47     -807626.01     -9835.0192      0.36288325     0.05791697     28.033676      3514.024     
      1010   2.02           315.48716      141294.67     -807622.38     -312.40276      0.36286884     0.058872529    28.217595      3513.6139    
      1020   2.04           310.31193      138523.28     -807624.76     -309.11432      0.3628543      0.058255155    28.234722      3513.184     
      1030   2.06           309.45392      137473.55     -807627.07     -306.36625      0.36283961     0.057739597    28.272739      3512.7098    
      1040   2.08           310.43396      131249.96     -807633.66     -299.76987      0.36282478     0.056498713    28.254273      3512.2599    
      1050   2.1            303.9641       130372.77     -807634.73     -297.41615      0.3628098      0.056057413    28.251435      3511.8152    
      1060   2.12           305.70242      126604.07     -807638.54     -293.62983      0.36279469     0.055346069    28.25022       3511.3736    
      1070   2.14           308.94137      130545.82     -807635.8      -296.48976      0.36277943     0.055887486    28.235858      3510.9503    
      1080   2.16           313.7264       133294.56     -807629.84     -302.90574      0.36276402     0.057099303    28.245121      3510.5177    
      1090   2.18           320.85642      139410.05     -807624.25     -309.25192      0.36274848     0.05829809     28.234282      3510.0988    
      1100   2.2            308.44762      140740.75     -807621.1      -310.45692      0.36273279     0.05852778     28.226189      3509.6903    
      1110   2.22           317.44119      140373.58     -807623.29     -309.29865      0.36271695     0.058311966    28.228732      3509.2798    
      1120   2.24           313.57694      136877.68     -807625.72     -306.15193      0.36270098     0.057721258    28.231332      3508.8675    
      1130   2.26           312.92639      132319.13     -807631.16     -300.46932      0.36268486     0.05665239     28.234109      3508.4532    
      1140   2.28           323.77354      128704.24     -807638.64     -294.35554      0.3626686      0.055502146    28.238592      3508.035     
      1150   2.3            306.60063      127852.16     -807637.21     -293.35519      0.36265219     0.055316028    28.209534      3507.6493    
      1160   2.32           306.67015      132647.12     -807632.05     -298.45485      0.36263564     0.056280206    28.201172      3507.2732    
      1170   2.34           322.55798      133842.12     -807629.96     -302.84219      0.36261895     0.057110163    28.164709      3506.9361    
      1180   2.36           319.83626      139751.99     -807624.34     -307.95455      0.36260212     0.05807695     28.18601       3506.5763    
      1190   2.38           318.5321       138827.31     -807624.09     -308.18417      0.36258514     0.058122976    28.236537      3506.1639    
      1200   2.4            315.87764      141714.03     -807621.04     -310.75502      0.36256802     0.058610601    28.213469      3505.7762    
      1210   2.42           321.83931      134172.74     -807629.32     -303.45816      0.36255076     0.057237086    28.219931      3505.3825    
      1220   2.44           315.02958      133741.68     -807632.25     -299.4107       0.36253335     0.056476382    28.229183      3504.98      
      1230   2.46           302.24403      126983.73     -807637.24     -292.83216      0.3625158      0.055238179    28.183958      3504.624     
      1240   2.48           306.5901       130967.7      -807634.04     -296.57432      0.36249811     0.055946808    28.209272      3504.2426    
      1250   2.5            320.54059      128741.63     -807635.63     -297.15354      0.36248028     0.056058832    28.211018      3503.8599    
      1260   2.52           310.86105      136785.41     -807627.32     -304.0305       0.3624623      0.057359034    28.227413      3503.4615    
      1270   2.54           317.95325      136805.95     -807626.31     -306.2713       0.36244418     0.057784677    28.204171      3503.0866    
      1280   2.56           320.32482      142142.93     -807621.27     -311.62905      0.36242592     0.058798495    28.162         3502.7529    
      1290   2.58           312.62548      137554.8      -807624.3      -307.67965      0.36240751     0.058056266    28.211184      3502.3714    
      1300   2.6            324.94612      136108.99     -807629.7      -303.92231      0.36238896     0.057350226    28.2417        3501.9614    
      1310   2.62           305.00294      129361.7      -807633.81     -297.24272      0.36237027     0.05609268     28.169036      3501.621     
      1320   2.64           312.84464      130103.16     -807635.33     -296.82247      0.36235143     0.056016285    28.098587      3501.3468    
      1330   2.66           297.74748      127519.21     -807635.63     -294.65942      0.36233245     0.055610989    28.139833      3501.0328    
      1340   2.68           313.64333      131619.16     -807633.83     -298.70227      0.36231333     0.056376969    28.201344      3500.6612    
      1350   2.7            322.08756      134055.43     -807630.25     -303.60504      0.36229407     0.057305364    28.157974      3500.3296    
      1360   2.72           310.36316      140601.43     -807622.64     -309.70662      0.36227466     0.058460166    28.17993       3499.9776    
      1370   2.74           305.1978       140396.79     -807621.93     -309.82586      0.36225511     0.05848583     28.20186       3499.6057    
      1380   2.76           311.16151      138269.81     -807625.97     -306.71183      0.36223542     0.057901142    28.20396       3499.2322    
      1390   2.78           310.62457      134273.95     -807630.35     -302.37659      0.36221558     0.057085861    28.228938      3498.8367    
      1400   2.8            304.74897      130019.97     -807632.75     -299.27433      0.3621956      0.056503299    28.214025      3498.455     
      1410   2.82           305.32953      128622.06     -807636.66     -295.51066      0.36217548     0.055795814    28.230001      3498.0597    
      1420   2.84           305.20916      128150.09     -807638.16     -294.12912      0.36215522     0.055538072    28.236671      3497.6591    
      1430   2.86           313.15495      132896.23     -807633.26     -300.20535      0.36213481     0.056688592    28.25221       3497.2457    
      1440   2.88           312.43305      134228.21     -807628.81     -304.78871      0.36211426     0.057557346    28.245332      3496.8391    
      1450   2.9            302.29281      139227.31     -807623.09     -309.07596      0.36209357     0.0583703      28.260931      3496.4199    
      1460   2.92           304.33568      137436.82     -807625.7      -306.87545      0.36207273     0.057958061    28.230318      3496.0275    
      1470   2.94           315.21671      138120.43     -807626.45     -307.65433      0.36205176     0.058108531    28.213325      3495.6499    
      1480   2.96           298.41758      132684.25     -807629.24     -302.67639      0.36203064     0.057171652    28.214336      3495.2718    
      1490   2.98           314.33798      132191.65     -807635.23     -298.807        0.36200937     0.05644409     28.207494      3494.8997    
      1500   3              288.72432      127503.79     -807637.72     -292.86659      0.36198796     0.055325229    28.205021      3494.5298    
      1510   3.02           305.25693      131134.7      -807636.44     -9486.3406      0.36196642     0.056005151    28.093207      3494.2522    
      1520   3.04           307.7218       130844.54     -807633.49     -9596.0875      0.36194472     0.056656467    28.133055      3493.941     
      1530   3.06           302.26293      136551.82     -807627.06     -9775.4543      0.36192289     0.057718952    28.140447      3493.6231    
      1540   3.08           303.74112      136888.07     -807627.62     -9766.2071      0.36190091     0.057667854    28.12015       3493.3211    
      1550   3.1            308.38298      140603.63     -807624.14     -9895.148       0.36187879     0.058432801    28.122227      3493.0168    
      1560   3.12           298.04993      136696.51     -807625.17     -9820.1518      0.36185653     0.057993501    28.105594      3492.7251    
      1570   3.14           310.49465      134254.04     -807631.18     -9678.7443      0.36183412     0.05716195     28.085835      3492.4483    
      1580   3.16           297.39896      129039.48     -807636.71     -9441.2639      0.36181157     0.055762884    28.105776      3492.1547    
      1590   3.18           293.38426      129084.84     -807636.33     -9433.3212      0.36178888     0.055719466    28.110064      3491.857     
      1600   3.2            302.55017      129173.63     -807635.02     -9513.0191      0.36176605     0.056193761    28.17431       3491.5087    
      1610   3.22           306.39957      132452.5      -807632.26     -9612.8664      0.36174307     0.056787169    28.181907      3491.1545    
      1620   3.24           310.50316      135549.92     -807629.71     -9705.4748      0.36171995     0.05733791     28.200552      3490.7859    
      1630   3.26           312.97328      138466.97     -807625.5      -9844.2347      0.36169669     0.058161415    28.205035      3490.4142    
      1640   3.28           311.5766       139669.32     -807623.4      -9896.9022      0.36167329     0.058476367    28.185547      3490.0574    
      1650   3.3            317.20799      135429.79     -807628.98     -9734.4811      0.36164974     0.057520438    28.17782       3489.7064    
      1660   3.32           307.23217      133069.35     -807632.02     -9580.0096      0.36162605     0.056611385    28.174321      3489.3579    
      1670   3.34           297.81411      128611.47     -807634.62     -9449.8569      0.36160222     0.05584595     28.17843       3489.0064    
      1680   3.36           306.04867      129704.19     -807633.39     -9513.2981      0.36157824     0.056224597    28.178652      3488.6546    
      1690   3.38           311.60816      129537.9      -807635.14     -9473.9741      0.36155413     0.055995923    28.203185      3488.2849    
      1700   3.4            306.68674      135359.59     -807629.04     -9638.0295      0.36152987     0.056969395    28.217786      3487.9047    
      1710   3.42           318.95729      136374.77     -807627.21     -9745.3619      0.36150546     0.057607714    28.228746      3487.5169    
      1720   3.44           321.01597      140370.16     -807621.76     -9921.5743      0.36148092     0.058653341    28.180704      3487.164     
      1730   3.46           321.12629      137516.36     -807625.82     -9783.9095      0.36145623     0.057843459    28.182789      3486.8096    
      1740   3.48           319.95103      135412.47     -807629.3      -9658.9553      0.3614314      0.05710864     28.157621      3486.4731    
      1750   3.5            304.70168      130377.34     -807630.6      -9546.8138      0.36140643     0.056449502    28.173345      3486.1252    
      1760   3.52           318.29211      130929.46     -807634.24     -9485.507       0.36138131     0.056090899    28.164944      3485.7832    
      1770   3.54           312.71586      128239.45     -807635.81     -9408.2744      0.36135605     0.055638086    28.13581       3485.4614    
      1780   3.56           321.94886      131481.16     -807635.44     -9456.8711      0.36133065     0.055929405    28.128481      3485.1444    
      1790   3.58           318.76314      134007.5      -807629.17     -9643.9989      0.36130511     0.057040141    28.134428      3484.8229    
      1800   3.6            326.44905      137785.09     -807624.72     -9819.8222      0.36127942     0.05808419     28.133366      3484.5016    
      1810   3.62           322.67306      139077.14     -807623.9      -9829.7447      0.3612536      0.058147038    28.121426      3484.1882    
      1820   3.64           312.49588      138825.7      -807624.71     -9757.6553      0.36122763     0.057724749    28.09204       3483.8944    
      1830   3.66           314.3817       135527.62     -807627.08     -9691.7339      0.36120151     0.057338913    28.101077      3483.5938    
      1840   3.68           316.31661      131954.96     -807630.6      -9589.1787      0.36117526     0.056736293    28.12548       3483.2761    
      1850   3.7            318.91823      129860.47     -807635.58     -9443.1548      0.36114886     0.055876398    28.121304      3482.9607    
      1860   3.72           318.44574      128592.53     -807637.46     -9383.4321      0.36112232     0.055527091    28.145781      3482.6286    
      1870   3.74           314.81077      132000.69     -807632.37     -9533.5805      0.36109564     0.056419773    28.171909      3482.279     
      1880   3.76           317.55251      134207.43     -807628.08     -9690.8386      0.36106881     0.057354688    28.171055      3481.9299    
      1890   3.78           314.35421      138128.77     -807625.1      -9776.0657      0.36104184     0.057863422    28.228372      3481.5434    
      1900   3.8            312.58395      137782.99     -807625.23     -9771.0001      0.36101474     0.057837782    28.20404       3481.1729    
      1910   3.82           305.47414      138593.53     -807623.41     -9804.353       0.36098748     0.05803959     28.161193      3480.8303    
      1920   3.84           314.63743      133582.58     -807628.95     -9676.4073      0.36096009     0.057286527    28.173062      3480.48      
      1930   3.86           315.6073       131571.51     -807634.25     -9514.6414      0.36093255     0.056333134    28.186328      3480.121     
      1940   3.88           313.4694       128010.12     -807638.74     -9369.9426      0.36090487     0.055480674    28.189397      3479.7603    
      1950   3.9            308.51607      130071.87     -807635.13     -9471.2812      0.36087705     0.056085036    28.179688      3479.4057    
      1960   3.92           309.85522      131154.33     -807632.62     -9564.8821      0.36084909     0.056643692    28.165458      3479.06      
      1970   3.94           312.00473      134777.53     -807629.89     -9666.5584      0.36082098     0.057250283    28.146766      3478.726     
      1980   3.96           302.9074       137426.64     -807626        -9755.2588      0.36079273     0.057780135    28.168983      3478.3779    
      1990   3.98           307.42696      138948.58     -807623.49     -9860.1335      0.36076434     0.058405901    28.186656      3478.0188    
      2000   4              313.9643       136869.43     -807626.51     -9795.5944      0.36073581     0.058028198    28.173783      3477.6677    
      2010   4.02           303.42291      134159.64     -807630.63     -300.50317      0.36070713     0.056969426    28.235063      3477.279     
      2020   4.04           299.78718      129697.43     -807635.48     -295.25579      0.36067831     0.0559791      28.208546      3476.9068    
      2030   4.06           308.16856      129053.07     -807636.54     -295.37223      0.36064935     0.056005673    28.197269      3476.5415    
      2040   4.08           296.4727       129487.09     -807634.29     -296.02485      0.36062025     0.056133946    28.257882      3476.1399    
      2050   4.1            298.79591      132709.77     -807632.44     -298.16632      0.36059101     0.056544609    28.243423      3475.7474    
      2060   4.12           310.61344      135163.53     -807630.97     -301.31258      0.36056162     0.057145927    28.198196      3475.3822    
      2070   4.14           314.27489      138576.61     -807625.83     -306.90033      0.36053209     0.058210448    28.19144       3475.0212    
      2080   4.16           309.62874      137931.76     -807624.86     -307.22057      0.36050242     0.058275984    28.23782       3474.6328    
      2090   4.18           299.07491      136434.68     -807627.89     -302.64557      0.36047261     0.057412911    28.201329      3474.2663    
      2100   4.2            311.29207      132608.08     -807633.58     -298.57812      0.36044265     0.056646009    28.237341      3473.8787    
      2110   4.22           298.26503      130630.52     -807633.28     -297.03109      0.36041256     0.056357214    28.219493      3473.5018    
      2120   4.24           301.72024      129398.71     -807634.93     -295.71815      0.36038232     0.056112811    28.227037      3473.1208    
      2130   4.26           302.63124      129258.91     -807636.52     -294.12636      0.36035193     0.055815472    28.226408      3472.7404    
      2140   4.28           312.48417      132593.98     -807633.85     -298.0687       0.36032141     0.056568391    28.195303      3472.3781    
      2150   4.3            307.14292      136022.27     -807627.54     -303.61412      0.36029075     0.057625722    28.246014      3471.987     
      2160   4.32           324.36348      137735.4      -807626.85     -306.56038      0.36025994     0.058189896    28.238594      3471.6003    
      2170   4.34           306.28634      137173.72     -807626.41     -304.37002      0.36022899     0.057779096    28.251058      3471.2069    
      2180   4.36           301.7102       136155.47     -807627.79     -302.25147      0.36019789     0.057381879    28.244276      3470.8177    
      2190   4.38           305.78281      132499.34     -807630.77     -299.76043      0.36016666     0.056913895    28.277845      3470.4101    
      2200   4.4            313.91715      130705.45     -807634.3      -297.20124      0.36013528     0.056432912    28.220744      3470.0347    
      2210   4.42           298.50139      129162.93     -807635.29     -293.95195      0.36010377     0.055820819    28.223637      3469.6579    
      2220   4.44           301.26831      130871.49     -807634.09     -295.37473      0.36007211     0.056095933    28.22791       3469.279     
      2230   4.46           310.48655      132415.23     -807631.13     -299.60216      0.3600403      0.05690381     28.249687      3468.8883    
      2240   4.48           307.9823       136514.78     -807626.27     -303.99281      0.36000836     0.057742853    28.26365       3468.4903    
      2250   4.5            316.11759      136216.79     -807627.72     -303.6036       0.35997627     0.057674064    28.230587      3468.1107    
      2260   4.52           302.72269      137899.02     -807625.37     -303.85889      0.35994404     0.057727728    28.260972      3467.7149    
      2270   4.54           324.59318      134711.96     -807630.1      -302.17383      0.35991167     0.05741276     28.274757      3467.312     
      2280   4.56           311.08242      132831.86     -807630.31     -299.93323      0.35987916     0.056992197    28.27694       3466.9084    
      2290   4.58           314.53716      129554.36     -807635.86     -294.78931      0.35984651     0.056019852    28.23346       3466.5284    
      2300   4.6            299.72969      129540.16     -807635.58     -292.87451      0.35981371     0.055661048    28.179993      3466.1772    
      2310   4.62           306.8054       130582.41     -807632.57     -296.84228      0.35978077     0.056420292    28.178745      3465.8267    
      2320   4.64           303.34387      134820.4      -807627.63     -301.17534      0.35974769     0.057249132    28.147701      3465.4926    
      2330   4.66           313.10029      136247.49     -807628.41     -301.66647      0.35971447     0.057347784    28.15782       3465.1529    
      2340   4.68           315.47763      138070.04     -807626.44     -303.85912      0.35968111     0.057769974    28.153463      3464.8154    
      2350   4.7            315.5044       137252.66     -807625.51     -304.73962      0.3596476      0.057942773    28.200768      3464.453     
      2360   4.72           317.40273      136831.6      -807628.07     -302.31637      0.35961396     0.057487397    28.22342       3464.0789    
      2370   4.74           307.99399      131379.03     -807633.22     -295.81883      0.35958017     0.056257135    28.176854      3463.7291    
      2380   4.76           303.4092       131018.2      -807634.28     -293.94319      0.35954624     0.055905712    28.242961      3463.3452    
      2390   4.78           319.282        128568.59     -807636.85     -293.63316      0.35951216     0.055852037    28.193299      3462.987     
      2400   4.8            313.63029      132510.84     -807632.01     -297.54989      0.35947795     0.056602427    28.169271      3462.6411    
      2410   4.82           317.96374      132916.82     -807632.63     -297.55162      0.35944359     0.056608167    28.122491      3462.319     
      2420   4.84           313.68423      137307.97     -807627.23     -302.26256      0.35940909     0.057509927    28.182461      3461.9662    
      2430   4.86           309.8225       137502.63     -807623.79     -305.27774      0.35937446     0.058089207    28.202079      3461.6035    
      2440   4.88           300.78745      138231.3      -807623.1      -304.63823      0.35933967     0.057973131    28.196353      3461.2436    
      2450   4.9            309.87957      134580.86     -807630.63     -298.32481      0.35930475     0.056777194    28.187993      3460.8881    
      2460   4.92           308.58574      132027.07     -807633.07     -295.69991      0.35926969     0.056283116    28.212187      3460.5204    
      2470   4.94           315.1088       129644.26     -807634.38     -295.24358      0.35923448     0.056201767    28.181646      3460.1681    
      2480   4.96           313.42427      129332.57     -807634.94     -294.42419      0.35919913     0.056051305    28.190057      3459.8115    
      2490   4.98           317.35649      130731.39     -807634.97     -294.95178      0.35916364     0.056157295    28.233783      3459.4335    
      2500   5              314.23159      133293.12     -807631.56     -298.04835      0.35912801     0.056752496    28.23233       3459.0563    
[...]
     98740   197.48         299.54863      133699.25     -807631.51     -9701.937       0.36236891     0.057214362    29.165041      42.653176    
     98750   197.5          299.84382      133310.5      -807632.08     -9686.9769      0.36238762     0.057123191    29.148007      42.314717    
     98760   197.52         306.45705      133456.2      -807633.62     -9667.2475      0.36240618     0.057003928    29.149752      41.976256    
     98770   197.54         284.32518      133761.81     -807629.66     -9692.702       0.36242459     0.057151119    29.126388      41.637798    
     98780   197.56         302.05193      132191.05     -807632.59     -9677.1282      0.36244287     0.057056415    29.168659      41.299332    
     98790   197.58         302.712        133833.13     -807632.26     -9684.5171      0.362461       0.057097123    29.17386       40.960865    
     98800   197.6          287.61424      133093.11     -807630.25     -9678.389       0.36247899     0.057058162    29.161406      40.622399    
     98810   197.62         307.30859      134160.84     -807631.63     -9711.9264      0.36249683     0.05725306     29.138706      40.283935    
     98820   197.64         301.35892      132818.19     -807632.02     -9666.1771      0.36251453     0.05698058     29.142881      39.94547     
     98830   197.66         304.54768      134974.64     -807631.16     -9696.4247      0.36253209     0.057156116    29.118285      39.607007    
     98840   197.68         297.11173      133193.53     -807630.62     -9671.096       0.36254951     0.057004076    29.119748      39.268543    
     98850   197.7          302.87816      134373.5      -807630.26     -9696.8425      0.36256678     0.05715311     29.156334      38.930073    
     98860   197.72         310.0265       133317.28     -807632.19     -9657.3882      0.36258391     0.056917878    29.144993      38.591604    
     98870   197.74         306.5605       134760.42     -807629.63     -9712.4635      0.3626009      0.057239794    29.172154      38.253129    
     98880   197.76         300.63784      133482.85     -807629.35     -9688.8214      0.36261774     0.057097809    29.195846      37.914651    
     98890   197.78         311.30738      135215.01     -807630.03     -9706.4797      0.36263445     0.057199237    29.195186      37.576173    
     98900   197.8          319.10772      133071.37     -807631.93     -9677.4112      0.362651       0.057025336    29.18219       37.237695    
     98910   197.82         301.07814      135852.82     -807628.09     -9712.5545      0.36266742     0.057229831    29.134698      36.899222    
     98920   197.84         311.67728      132408.56     -807631.19     -9659.4108      0.36268369     0.056914136    29.154927      36.560746    
     98930   197.86         314.55276      134290.45     -807630.34     -9694.0402      0.36269982     0.057115636    29.15871       36.222268    
     98940   197.88         302.71854      133632.27     -807630.05     -9650.4335      0.36271581     0.056856206    29.209432      35.883784    
     98950   197.9          311.59849      135202.94     -807629.17     -9714.2091      0.36273165     0.057229445    29.188365      35.545301    
     98960   197.92         317.50036      133043.26     -807630.93     -9683.4995      0.36274735     0.057046056    29.151063      35.206821    
     98970   197.94         317.92983      135107.76     -807629.92     -9714.6752      0.36276291     0.05722726     29.172392      34.868339    
     98980   197.96         304.33498      133934.59     -807629.05     -9681.5765      0.36277832     0.057029859    29.154601      34.529857    
     98990   197.98         313.20563      135073.54     -807628.75     -9729.7886      0.36279359     0.057311442    29.136476      34.191377    
     99000   198            326.51435      132868.09     -807631.59     -9698.5673      0.36280872     0.057125157    29.129476      33.852896    
     99010   198.02         307.64983      134051.07     -807629.43     -302.58682      0.3628237      0.057029803    29.193162      33.514408    
     99020   198.04         301.95213      133615.32     -807629.42     -301.79517      0.36283855     0.05687827     29.149087      33.175923    
     99030   198.06         314.81452      133595.75     -807630.23     -302.76959      0.36285324     0.057059605    29.171215      32.837435    
     99040   198.08         304.79505      135103.11     -807627.98     -303.64683      0.3628678      0.057222632    29.201235      32.498943    
     99050   198.1          315.40038      134071.28     -807630.06     -303.05965      0.36288221     0.05710971     29.198538      32.16045     
     99060   198.12         305.93787      135153.42     -807628.47     -303.3173       0.36289648     0.057156014    29.206507      31.821956    
     99070   198.14         317.14134      133794.08     -807630.06     -303.34179      0.36291061     0.057158406    29.225255      31.483458    
     99080   198.16         318.74515      135006.07     -807629.7      -303.90051      0.36292459     0.057261477    29.220979      31.144961    
     99090   198.18         321.96826      132595.4      -807631.52     -302.58494      0.36293843     0.057011422    29.18448       30.806467    
     99100   198.2          307.74485      134193.97     -807630.31     -301.76962      0.36295213     0.056855658    29.196716      30.46797     
     99110   198.22         312.207        133322.94     -807631.72     -301.04235      0.36296568     0.056716517    29.218254      30.12947     
     99120   198.24         318.34323      135051.73     -807629.66     -304.00567      0.36297909     0.057272691    29.218069      29.79097     
     99130   198.26         310.62704      133832.53     -807629.8      -302.94617      0.36299236     0.057071002    29.205148      29.45247     
     99140   198.28         307.62369      136212.28     -807628.23     -304.04699      0.36300548     0.057276312    29.213753      29.113969    
     99150   198.3          310.40135      133528.16     -807630.16     -302.61446      0.36301846     0.057004414    29.233973      28.775465    
     99160   198.32         317.02299      135617.44     -807628.77     -304.98257      0.3630313      0.05744847     29.226813      28.43696     
     99170   198.34         308.95833      132862.95     -807630.33     -302.48077      0.36304399     0.056975222    29.230231      28.098455    
     99180   198.36         310.35365      134712.21     -807630.58     -302.40603      0.36305655     0.056959175    29.198657      27.759952    
     99190   198.38         312.16914      132447.5      -807632.24     -301.15114      0.36306895     0.056720875    29.184664      27.42145     
     99200   198.4          305.61414      134406.72     -807628.99     -303.57813      0.36308122     0.057176059    29.191174      27.082946    
     99210   198.42         317.58255      132827.34     -807631.51     -302.90835      0.36309334     0.057048008    29.242888      26.744436    
     99220   198.44         312.98909      134153.89     -807630.31     -303.57364      0.36310532     0.057171418    29.255543      26.405925    
     99230   198.46         302.73703      134703.37     -807628.94     -303.70414      0.36311715     0.05719413     29.212543      26.067417    
     99240   198.48         308.29071      135702.67     -807629.29     -304.28355      0.36312885     0.057301401    29.177367      25.728911    
     99250   198.5          304.49881      134959.74     -807629.51     -303.75327      0.3631404      0.057199721    29.200193      25.390402    
     99260   198.52         307.22853      133972.06     -807630.36     -303.41877      0.3631518      0.057134938    29.200503      25.051893    
     99270   198.54         291.23342      133499.17     -807629.32     -302.43359      0.36316306     0.056947659    29.149289      24.713387    
     99280   198.56         310.28396      132938.23     -807632.12     -302.44942      0.36317418     0.056948896    29.183659      24.374877    
     99290   198.58         301.07513      133455.02     -807630.83     -302.66748      0.36318516     0.056988233    29.187015      24.036366    
     99300   198.6          311.45728      133380.72     -807631.94     -303.1802       0.36319599     0.057083068    29.14279       23.697859    
     99310   198.62         306.75551      133955.45     -807631.37     -303.26252      0.36320668     0.057096886    29.168021      23.359348    
     99320   198.64         309.59996      134529.68     -807631.29     -303.93134      0.36321723     0.057221148    29.229423      23.020831    
     99330   198.66         309.32363      134409.57     -807630.44     -304.89798      0.36322763     0.057401492    29.267524      22.68231     
     99340   198.68         301.68533      133630.29     -807630.8      -303.66725      0.36323789     0.057168176    29.232312      22.343792    
     99350   198.7          293.77029      134105.84     -807630.11     -303.37352      0.36324801     0.057111286    29.214078      22.005274    
     99360   198.72         296.46557      132677.41     -807631.74     -302.2251       0.36325798     0.056893531    29.166149      21.666759    
     99370   198.74         306.10942      132578.64     -807632.47     -302.90584      0.36326781     0.057020135    29.214722      21.32824     
     99380   198.76         300.68325      133028.07     -807631.55     -303.19297      0.3632775      0.057072665    29.225301      20.989719    
     99390   198.78         298.78538      134127.45     -807630.51     -303.98698      0.36328704     0.057220624    29.159218      20.651202    
     99400   198.8          298.33949      133772.88     -807630.52     -304.00475      0.36329644     0.057222489    29.171153      20.312684    
     99410   198.82         301.88994      134930.01     -807630.33     -304.62187      0.3633057      0.057337187    29.194659      19.974163    
     99420   198.84         298.94538      134292.26     -807630.44     -304.15048      0.36331481     0.057247025    29.179678      19.635642    
     99430   198.86         293.63009      135192.67     -807629.82     -303.83341      0.36332378     0.057185934    29.167403      19.297121    
     99440   198.88         301.07129      132436.41     -807633.26     -301.38446      0.36333261     0.056723627    29.160441      18.9586      
     99450   198.9          301.91418      133198.43     -807632.57     -301.99309      0.36334129     0.05683682     29.173221      18.620077    
     99460   198.92         304.24302      132036.09     -807632.27     -302.50297      0.36334983     0.056931443    29.192862      18.281551    
     99470   198.94         300.704        133787.22     -807630.63     -303.35561      0.36335823     0.057090592    29.196683      17.943025    
     99480   198.96         309.14594      132851.41     -807631.87     -303.02583      0.36336648     0.057027234    29.209471      17.604498    
     99490   198.98         298.98753      136239.39     -807627.36     -305.76838      0.3633746      0.057542076    29.21759       17.265969    
     99500   199            305.94433      134963.94     -807627.73     -306.05875      0.36338256     0.057595458    29.207398      16.927439    
     99510   199.02         303.55347      136911.63     -807627.9      -9765.3712      0.36339039     0.057426568    29.15115       16.588913    
     99520   199.04         312.66046      134592.14     -807630.44     -9713.9789      0.36339807     0.057123141    29.151981      16.250385    
     99530   199.06         307.91909      134464.21     -807629.4      -9713.8849      0.3634056      0.057121404    29.183062      15.911855    
     99540   199.08         309.60198      132136.49     -807631.42     -9649.3474      0.363413       0.056740744    29.1946        15.573323    
     99550   199.1          312.26637      133713.13     -807630.93     -9666.5733      0.36342025     0.056840903    29.178667      15.234791    
     99560   199.12         314.53581      132387.82     -807631.97     -9639.6569      0.36342736     0.056681522    29.159996      14.89626     
     99570   199.14         319.45982      134834.68     -807629.51     -9733.9488      0.36343432     0.057234864    29.159366      14.557728    
     99580   199.16         311.33775      135173.77     -807627.87     -9748.0194      0.36344114     0.057316523    29.157276      14.219194    
     99590   199.18         317.57868      135752.92     -807627.67     -9779.2652      0.36344782     0.057499186    29.150176      13.880661    
     99600   199.2          316.22361      135267.89     -807627.91     -9763.0335      0.36345435     0.057402716    29.137049      13.542127    
     99610   199.22         310.44942      135115.37     -807628.25     -9725.7083      0.36346074     0.057182254    29.124988      13.203592    
     99620   199.24         317.61439      133593.47     -807630.31     -9691.4262      0.36346699     0.056979713    29.144219      12.865056    
     99630   199.26         316.31335      133325.45     -807631.22     -9657.3149      0.3634731      0.056778206    29.145613      12.526519    
     99640   199.28         307.66977      133356.97     -807630.37     -9646.516       0.36347906     0.056713785    29.105154      12.187982    
     99650   199.3          311.3772       133773.96     -807629.99     -9675.6459      0.36348487     0.056884135    29.095602      11.849445    
     99660   199.32         311.18171      135134.81     -807627.95     -9742.1736      0.36349055     0.057274365    29.072172      11.510908    
     99670   199.34         306.49914      136188.27     -807626.55     -9767.0993      0.36349608     0.05742003     29.09931       11.172369    
     99680   199.36         310.87837      136155.76     -807627.22     -9766.1072      0.36350147     0.057413346    29.079878      10.833829    
     99690   199.38         313.37682      135112.54     -807627.93     -9756.8407      0.36350671     0.057358043    29.099422      10.495288    
     99700   199.4          320.75395      133615.61     -807629.74     -9732.9056      0.36351181     0.057216531    29.13932       10.156744    
     99710   199.42         311.33088      133103.85     -807629.85     -9691.3725      0.36351677     0.056971595    29.10335       9.8182009    
     99720   199.44         313.46823      133200.33     -807631.89     -9639.3141      0.36352158     0.056664814    29.141111      9.4796551    
     99730   199.46         302.92761      133237.5      -807629.91     -9659.3875      0.36352625     0.056782087    29.10309       9.1411097    
     99740   199.48         308.56661      133848.46     -807629.89     -9690.5228      0.36353078     0.056964405    29.106663      8.8025631    
     99750   199.5          311.03399      134693.34     -807628.99     -9734.1172      0.36353516     0.057219978    29.109202      8.4640155    
     99760   199.52         314.83301      135099.03     -807629.05     -9754.8651      0.3635394      0.057341271    29.131381      8.1254662    
     99770   199.54         304.80248      136436.2      -807626.18     -9805.251       0.3635435      0.057636802    29.116311      7.7869164    
     99780   199.56         315.54716      134894.49     -807628.85     -9775.0274      0.36354745     0.057458518    29.156854      7.4483645    
     99790   199.58         309.20541      135725.12     -807629.3      -9735.8165      0.36355126     0.057227433    29.182396      7.1098111    
     99800   199.6          312.5491       132502.34     -807631.94     -9675.2649      0.36355493     0.056870934    29.229591      6.7712558    
     99810   199.62         297.59404      133404.57     -807629.98     -9676.8301      0.36355845     0.056879584    29.180397      6.4327009    
     99820   199.64         309.50299      132195.32     -807632.96     -9641.7137      0.36356183     0.056672645    29.197553      6.0941448    
     99830   199.66         304.60453      133585.92     -807631.07     -9683.3283      0.36356507     0.056916744    29.167207      5.7555885    
     99840   199.68         308.4942       133998.05     -807630.47     -9728.3896      0.36356816     0.057181119    29.116737      5.4170323    
     99850   199.7          298.38182      136346.83     -807627.05     -9795.724       0.36357111     0.057576427    29.090389      5.0784756    
     99860   199.72         304.50719      134970.44     -807628.83     -9773.5233      0.36357392     0.057445494    29.072096      4.7399181    
     99870   199.74         303.52524      135175.61     -807628.45     -9786.4238      0.36357658     0.057520898    29.1008        4.4013591    
     99880   199.76         304.83975      134159.17     -807630.51     -9730.0057      0.3635791      0.057188897    29.122855      4.0627988    
     99890   199.78         308.88306      132846.99     -807632.69     -9682.7099      0.36358148     0.05691054     29.117993      3.7242376    
     99900   199.8          304.96347      133028.1      -807632.12     -9685.3004      0.36358371     0.056925417    29.145951      3.3856751    
     99910   199.82         304.97552      131616.82     -807633.64     -9642.676       0.3635858      0.056674566    29.145317      3.0471117    
     99920   199.84         300.9012       133597.56     -807631.37     -9695.7734      0.36358775     0.056986339    29.106071      2.7085477    
     99930   199.86         308.49134      131868.58     -807632.73     -9692.1959      0.36358955     0.05696503     29.045221      2.3699833    
     99940   199.88         307.62665      135929.47     -807629.08     -9802.9493      0.36359121     0.05761571     29.075992      2.0314174    
     99950   199.9          298.40929      133916.59     -807629.47     -9752.0449      0.36359273     0.057316286    29.119112      1.6928503    
     99960   199.92         303.40534      136485.75     -807628.04     -9818.3988      0.3635941      0.057706054    29.122132      1.3542822    
     99970   199.94         297.50115      132651.6      -807630.37     -9720.0646      0.36359533     0.057127918    29.163339      1.0157129    
     99980   199.96         308.04217      135148.29     -807631.39     -9729.1786      0.36359641     0.057181313    29.190999      0.67714274   
     99990   199.98         291.12661      130488.32     -807632.54     -9618.3039      0.36359736     0.056529522    29.217655      0.33857174   
    100000   200            299.29517      134388.74     -807630.97     -9697.3999      0.36359816     0.056994267    29.194016      0            
Loop time of 3385.72 on 32 procs for 100000 steps with 1080 atoms

Performance: 5.104 ns/day, 4.702 hours/ns, 29.536 timesteps/s, 31.899 katom-step/s
61.3% CPU use with 32 MPI tasks x 1 OpenMP threads

MPI task timing breakdown:
Section |  min time  |  avg time  |  max time  |%varavg| %total
---------------------------------------------------------------
Pair    | 2525.7     | 2797       | 3091       | 256.4 | 82.61
Neigh   | 0.0012335  | 0.0013323  | 0.0015061  |   0.2 |  0.00
Comm    | 221.16     | 515.4      | 786.9      | 597.3 | 15.22
Output  | 2.3485     | 2.3555     | 2.3624     |   0.2 |  0.07
Modify  | 64.42      | 64.849     | 65.381     |   3.2 |  1.92
Other   |            | 6.128      |            |       |  0.18

Nlocal:          33.75 ave          42 max          27 min
Histogram: 2 2 4 4 8 1 6 3 1 1
Nghost:        1043.31 ave        1061 max        1024 min
Histogram: 4 0 2 3 4 6 3 6 1 3
Neighs:              0 ave           0 max           0 min
Histogram: 32 0 0 0 0 0 0 0 0 0
FullNghs:      5335.06 ave        6698 max        4233 min
Histogram: 2 3 3 8 4 3 4 3 1 1

Total # of neighbors = 170722
Ave neighs/atom = 158.07593
Neighbor list builds = 3
Dangerous builds = 0

Total wall time: 0:59:59
