
units		metal
atom_style	atomic

read_data ${STRUCTURE}.data
read_data BaTiO3-sc333.data
Reading data file ...
  orthogonal box = (0 0 0) to (11.898253 11.898253 12.912076)
  2 by 4 by 4 MPI processor grid
  reading atoms ...
  135 atoms
  read_data CPU = 0.005 seconds
replicate $L $L $L
replicate 2 $L $L
replicate 2 2 $L
replicate 2 2 2
Replication is creating a 2x2x2 = 8 times larger system...
  orthogonal box = (0 0 0) to (23.796507 23.796507 25.824152)
  2 by 4 by 4 MPI processor grid
  1080 atoms
  replicate CPU = 0.004 seconds

pair_style allegro
pair_coeff	* * ${MODEL}.pth Ba Ti O
pair_coeff	* * BaTiO3-E0.pth Ba Ti O
mass 1 137.3
mass 2 47.9
mass 3 15.9994

timestep 0.002
compute polarization all allegro polarization 3
compute allegro will evaluate the quantity polarization of length 3 (src/compute_allegro.cpp:53)
compute polarizability all allegro polarizability 9
compute allegro will evaluate the quantity polarizability of length 9 (src/compute_allegro.cpp:53)

thermo_style custom pe fmax fnorm spcpu cpuremain

variable efield equal 1e-2*36.36
fix born all addbornforce 0.0 0.0 ${efield}
fix born all addbornforce 0.0 0.0 0.3636

thermo 10
min_style fire
#minimize 0.0 1e-6 100 100
velocity all create ${TEMP} ${SEED} dist gaussian rot yes mom yes
velocity all create 310 ${SEED} dist gaussian rot yes mom yes
velocity all create 310 15603 dist gaussian rot yes mom yes
fix nvt all nvt temp ${TEMP} ${TEMP} $(100*dt)
fix nvt all nvt temp 310 ${TEMP} $(100*dt)
fix nvt all nvt temp 310 310 $(100*dt)
fix nvt all nvt temp 310 310 0.2000000000000000111
run 5000
Neighbor list info ...
  update: every = 1 steps, delay = 0 steps, check = yes
  max neighbors/atom: 2000, page size: 100000
  master list distance cutoff = 8
  ghost atom cutoff = 8
  binsize = 8, bins = 3 3 4
  1 neighbor lists, perpetual/occasional/extra = 1 0 0
  (1) pair allegro/kk, perpetual
      attributes: full, newton on, kokkos_device
      pair build: full/bin/kk/device
      stencil: full/bin/3d
      bin: kk/device
Per MPI rank memory allocation (min/avg/max) = 3.516 | 3.516 | 3.516 Mbytes
    PotEng          Fmax          Fnorm          S/CPU         CPULeft    
-807708.29      1.5957289      37.045057      0              0            
-807646.77      3.4446022      44.915122      2.2687196      2199.4795    
-807634.89      2.4387752      35.452561      25.888779      1193.7165    
-807605.76      2.8660387      37.645542      25.892057      858.19659    
-807604.04      3.9429143      50.188145      25.780965      690.44988    
-807570.77      4.0037145      39.928489      25.771308      589.66108    
-807602.77      2.9045302      38.789144      25.863013      522.22594    
-807647.25      3.7997203      33.724256      25.905234      473.90312    
-807683.91      2.5121256      34.205456      25.874506      437.59269    
-807667.76      3.0127331      34.215156      25.858356      409.27853    
-807652.08      4.2290107      34.992695      25.948745      386.48385    
-807659.71      2.6635858      27.439252      25.94646       367.7651     
-807626.23      3.421886       32.051196      25.928319      352.11287    
-807586.8       4.028623       40.206713      25.898548      338.82595    
-807569.94      3.4152795      38.916984      25.961995      327.34925    
-807633.66      3.0586171      33.546604      25.966505      317.34926    
-807654.17      3.4245814      31.73316       25.911483      308.57585    
-807665.45      3.0943305      34.407176      25.914649      300.78787    
-807646.44      4.2863624      44.838678      25.939945      293.81227    
-807678.71      2.9469814      35.983971      25.879159      287.55329    
-807641.38      4.3659583      38.849776      25.859543      281.8886     
-807616.89      3.2609082      38.614865      25.930535      276.70243    
-807562.51      4.2533227      45.211537      25.95398       271.94509    
-807606.36      4.0932685      48.612665      25.90029       267.58451    
-807616.57      3.9317175      38.086971      25.910152      263.55221    
-807643.42      2.9434779      34.97691       25.784605      259.84731    
-807643.15      4.3153115      44.987928      25.951233      256.3522     
-807681.12      2.7783147      37.762482      25.92347       253.09467    
-807662.53      3.4888015      35.513563      25.854663      250.05955    
-807638.04      2.4790633      32.407634      25.956766      247.18238    
-807605.42      3.8235522      34.938223      25.952489      244.47233    
-807605.31      3.6772959      41.566071      25.924704      241.91851    
-807598.28      3.2540838      37.060227      25.881475      239.50962    
-807611.19      2.7984988      33.518622      25.939357      237.2111     
-807643.34      3.1415785      30.922347      25.959246      235.02106    
-807673.08      2.4686314      32.412739      25.920663      232.94178    
-807677.35      2.8753589      32.73421       25.847867      230.97059    
-807643.76      4.3125781      38.884483      25.926004      229.07042    
-807647.16      3.0535324      30.590148      25.939376      227.24757    
-807619.54      3.7448177      35.206035      25.952001      225.49621    
-807601.63      4.1622005      43.184968      25.918568      223.81886    
-807571.1       4.3370699      42.475249      25.951973      222.19895    
-807626.1       3.0181722      35.273046      25.947477      220.63856    
-807650.48      3.7238807      36.555249      25.917001      219.13764    
-807673.3       2.9420684      35.480216      25.914365      217.68781    
-807643.53      4.9238564      45.790777      25.910876      216.28579    
-807665.54      2.9559573      34.871588      25.912498      214.92771    
-807643.98      3.6948439      36.394107      25.921003      213.60978    
-807622.13      3.4065175      38.282814      25.929124      212.32955    
-807565.64      3.6717094      42.701276      25.941836      211.08409    
-807603.08      3.7077655      42.544627      25.935784      209.87384    
-807626.06      3.4114991      35.219015      25.897739      208.70092    
-807655.76      2.5026528      32.566861      25.923504      207.55496    
-807645.05      4.5054709      40.330496      25.935474      206.43618    
-807671.81      3.0470843      34.519943      25.926321      205.34568    
-807666.05      3.1669502      33.105326      25.878296      204.2866     
-807642.53      2.9502785      30.390314      25.938932      203.24438    
-807600.54      3.368269       34.731038      25.955191      202.22333    
-807595.16      3.2570022      39.107064      25.940609      201.22585    
-807608.66      3.9508794      38.415734      25.857868      200.25833    
-807622.58      3.0916838      32.560442      25.93243       199.30202    
-807638.71      3.3330925      33.539251      25.940764      198.36353    
-807663.44      3.7857324      34.17861       25.926518      197.44438    
-807674.72      3.0834151      35.115967      25.852051      196.54987    
-807648.19      3.8559034      36.746018      25.903483      195.66599    
-807632.22      3.0127336      33.216101      25.958739      194.79192    
-807611.76      3.9472667      34.922295      25.962604      193.9323     
-807603.91      3.8773865      44.259651      25.883254      193.09447    
-807585.13      3.5412171      39.213146      25.909347      192.26745    
-807618.53      2.7285459      36.099702      25.95442       191.44902    
-807646.35      4.2726976      37.615751      25.942466      190.64406    
-807673.39      3.0100508      36.922831      25.907336      189.85408    
-807651.05      4.8278995      41.389461      25.894601      189.07644    
-807650.14      3.7463536      36.165015      25.940548      188.30553    
-807639.97      3.9411875      35.716659      25.917906      187.54697    
-807622.33      4.2326284      37.74825       25.923542      186.79788    
-807577.82      3.841898       39.894897      25.921172      186.05854    
-807593.25      2.9517658      38.31543       25.937362      185.32707    
-807630.45      3.1615592      30.909072      25.911208      184.60657    
-807659.94      2.7387396      31.322813      25.881505      183.89691    
-807652.96      4.1405365      35.719802      25.929466      183.19157    
-807657.56      3.3210979      36.157991      25.793962      182.5046     
-807664.43      3.2644425      32.721802      25.884536      181.81802    
-807642.29      3.6493168      33.024294      25.883788      181.13874    
-807601.41      3.3241909      37.270636      25.932336      180.46284    
-807583.8       3.7866318      40.553595      25.904285      179.79581    
-807608.2       3.6268805      40.178629      25.883512      179.13681    
-807631.03      3.7360496      33.873022      25.931984      178.48065    
-807642.12      3.862751       34.717556      25.959351      177.82873    
-807654.23      4.7744341      36.919309      25.955074      177.18311    
-807671.97      2.9028519      35.063355      25.881688      176.54824    
-807653.86      4.1949079      34.752689      25.860975      175.92022    
-807630.74      4.0214167      33.234995      25.932713      175.29271    
-807603.87      3.5019119      35.325705      25.971487      174.66788    
-807605.86      3.9009971      42.156457      25.896607      174.05296    
-807601.43      3.6365493      36.673641      25.912654      173.44184    
-807622.75      2.7837858      34.297119      25.969584      172.83185    
-807643.33      4.1286026      36.358778      25.960256      172.22707    
-807671.21      3.089988       34.863797      25.914314      171.62957    
-807658.71      3.650325       37.216968      25.791593      171.04379    
-807646.53      2.9657365      34.464512      25.914005      170.45464    
-807632.55      3.5063222      33.39463       25.945457      169.86767    
-807622.37      3.6133313      36.274295      25.949501      169.28441    
-807592.73      3.3380347      38.093321      25.899281      168.70788    
-807597.3       2.830053       36.305519      25.9272        168.13343    
-807629.05      3.0820167      31.522518      25.961202      167.56067    
-807659.63      2.8611064      32.894417      25.915299      166.99399    
-807660.94      3.0813882      34.163809      25.88625       166.43228    
-807652.12      3.1569791      36.513308      25.914933      165.87226    
-807656.12      3.1749651      32.330236      25.880201      165.3173     
-807639.61      2.6132217      32.14095       25.88713       164.76503    
-807609.41      3.255694       35.216318      25.848202      164.2178     
-807582.6       3.1469996      37.624896      25.934465      163.66897    
-807609.4       3.0503987      36.022078      25.914342      163.12405    
-807636.96      3.459956       32.253679      25.888244      162.58324    
-807652.82      3.2981773      32.474935      25.922947      162.04339    
-807647.62      4.7778749      38.944131      25.896925      161.50748    
-807666.45      2.7178175      34.008863      25.857855      160.97604    
-807651.75      3.0397289      35.544771      25.850325      160.44741    
-807631.18      2.6968911      33.975655      25.867226      159.92036    
-807592.87      4.0168547      39.072306      25.93089       159.39264    
-807601.15      4.1566932      40.995464      25.822823      158.87233    
-807608.18      3.9721431      37.152303      25.840602      158.35338    
-807632.74      2.7384394      32.930627      25.91589       157.83312    
-807639.39      4.4689698      37.21059       25.92489       157.31463    
-807665.74      2.7880253      34.243437      25.841461      156.80199    
-807660.02      3.5879639      34.822115      25.817162      156.29243    
-807646.06      2.8263147      32.74887       25.869469      155.7825     
-807620.26      3.7032473      34.093938      25.899876      155.27317    
-807612.87      3.4402845      36.906504      25.92297       154.76477    
-807599.14      3.8603646      38.805407      25.8925        154.25954    
-807603.05      3.3610352      36.995942      25.884608      153.75646    
-807625.64      3.2255307      34.164909      25.904412      153.25433    
-807655.59      2.7054065      33.938875      25.857         152.7559     
-807663.54      4.2261709      34.873951      25.845477      152.25961    
-807649.46      3.6358927      36.470709      25.835795      151.76532    
-807643.47      3.687321       33.883347      25.88312       151.27072    
-807633.75      3.213142       33.340532      25.884093      150.77767    
-807611.04      3.1366826      37.588234      25.859569      150.28712    
-807586.82      3.8589509      39.263458      25.86403       149.79789    
-807606.95      3.6597126      36.400822      25.886999      149.30924    
-807635.96      2.8720241      33.960724      25.864796      148.82289    
-807656.57      3.4130341      33.821145      25.886349      148.33714    
-807649.8       3.515247       37.523172      25.793856      147.85623    
-807654.67      3.6240927      35.695224      25.80432       147.37623    
-807650.15      2.9840583      33.660669      25.810539      146.89727    
-807632.02      2.9248803      33.885903      25.889494      146.41671    
-807595.2       3.2671776      36.753668      25.870773      145.9381     
-807594.98      2.9358148      38.98999       25.915764      145.45913    
-807614.39      3.4576936      36.497259      25.785954      144.986      
-807640.54      3.2710345      33.654453      25.813945      144.51302    
-807642.8       4.8656156      37.230451      25.875556      144.03904    
-807657.14      4.0068352      36.238093      25.887463      143.5658     
-807659.25      3.4981763      35.465928      25.837175      143.09541    
-807647.3       3.3181215      34.0002        25.812479      142.62693    
-807617.36      3.5885747      34.611688      25.824458      142.1591     
-807604.74      3.8982993      36.606762      25.898007      141.68988    
-807604.18      4.0755339      38.196442      25.878484      141.22235    
-807618.3       3.3271315      33.191867      25.803111      140.75829    
-807630.42      3.3836265      32.877035      25.850012      140.29368    
-807651.34      2.7267468      33.187432      25.891217      139.82874    
-807664.28      3.5987424      34.48704       25.895478      139.36464    
-807653.09      2.9297595      35.039241      25.893961      138.90156    
-807639.15      4.7474839      33.305077      25.838709      138.44112    
-807622.01      3.1785707      34.18698       25.877689      137.98038    
-807611.79      3.5696016      37.948712      25.874224      137.52065    
-807598.49      3.1538909      37.947243      25.81928       137.06346    
-807612.63      3.5961953      35.619845      25.909606      136.60441    
-807636.43      3.8209345      33.614492      25.887687      136.14688    
-807659.57      3.2064381      33.8086        25.79643       135.69287    
-807655.58      4.0011031      35.534375      25.809604      135.23925    
-807649.08      3.1115386      34.476377      25.901221      134.78377    
-807641.91      4.0190648      32.694356      25.877025      134.32979    
-807629.38      2.990432       34.179133      25.835986      133.87775    
-807600.55      3.303452       35.44337       25.871278      133.42546    
-807598.71      3.2383858      37.022085      25.888825      132.97344    
-807618.58      4.6381641      35.197424      25.904454      132.52174    
-807647.91      3.4507239      32.961723      25.86739       132.07179    
-807648.97      4.6317908      36.181802      25.895539      131.62179    
-807651.72      4.2084621      35.993534      25.921755      131.17181    
-807654.61      3.5047703      34.117192      25.88494       130.72351    
-807644.32      3.6986414      33.777121      25.853102      130.27673    
-807617.23      3.4736803      34.763011      25.866805      129.83026    
-807597.57      3.7551542      37.256882      25.897033      129.38366    
-807605.83      2.8088952      36.52662       25.864497      128.93855    
-807626.12      3.2697507      33.998936      25.819466      128.49523    
-807637.87      3.0450464      33.560527      25.890252      128.05071    
-807647.16      3.5994942      35.316147      25.923003      127.606      
-807659.16      2.7858962      34.61455       25.860634      127.16347    
-807651.73      3.5486175      34.971478      25.809883      126.72277    
-807636.48      4.2910216      33.400576      25.906465      126.28028    
-807612.63      3.7513024      34.866968      25.889143      125.8388     
-807609         3.103113       37.590497      25.9213        125.39713    
-807606.11      3.5329186      37.851807      25.847684      124.95778    
-807621.16      3.1887065      34.843896      25.882867      124.51815    
-807635.18      4.6906473      35.32807       25.921229      124.07816    
-807655.61      3.4072524      35.273534      25.906489      123.63907    
-807654.16      3.3871149      36.802791      25.858173      123.20163    
-807645.98      3.4544304      35.101619      25.840318      122.76511    
-807631.07      3.6489004      34.835601      25.878825      122.32821    
-807621.63      3.1799198      36.070234      25.88399       121.89171    
-807604.46      3.1459558      37.584459      25.835441      121.45678    
-807603.57      3.4647308      37.121136      25.889171      121.02114    
-807619.94      3.3932944      34.323122      25.89781       120.5858     
-807644.59      2.9033857      34.835375      25.897956      120.15094    
-807652.58      2.8982717      34.992714      25.822279      119.71818    
-807648.88      3.3055155      35.71415       25.848888      119.2853     
-807645.24      3.4090172      34.705072      25.851935      118.85279    
-807637.8       3.5276539      33.876191      25.860134      118.42056    
-807618.41      3.2288973      35.733006      25.829368      117.9894     
-807597.71      3.6559348      38.123011      25.833497      117.55857    
-807606.92      3.3899446      36.577977      25.893169      117.12694    
-807627.52      3.1863619      35.392339      25.848986      116.69663    
-807645.5       3.4576386      34.521222      25.816789      116.26738    
-807644.95      3.9310799      36.496494      25.864366      115.83757    
-807653.67      3.0539053      34.75108       25.848066      115.40848    
-807649.41      3.1836841      34.547648      25.84787       114.97979    
-807634.8       2.9439896      33.518562      25.863694      114.55117    
-807607.07      3.8442996      36.187157      25.917157      114.12191    
-807604.84      3.4649648      38.274959      25.921581      113.69296    
-807610.55      3.4018698      36.805593      25.861531      113.26555    
-807629.61      3.2541895      34.581085      25.874513      112.83825    
-807636.1       4.6977755      35.944988      25.86732       112.41146    
-807655.08      3.1366754      33.65852       25.847894      111.98539    
-807654.96      3.7549237      34.710954      25.826647      111.56006    
-807648.1       2.4554272      33.239674      25.861596      111.13444    
-807624.77      3.2265023      33.982297      25.851697      110.70933    
-807616.01      2.9411041      34.420111      25.873003      110.28418    
-807608.16      3.2625979      37.152331      25.852747      109.85973    
-807611.15      2.7909881      36.256876      25.856846      109.43554    
-807625.08      3.5652438      34.127891      25.86931       109.01145    
-807646.85      3.7769182      33.528229      25.870773      108.58767    
-807656.09      3.9127373      34.489533      25.79085       108.16559    
-807652.3       3.8033698      34.238348      25.795487      107.74372    
-807641.9       3.5977136      33.228378      25.830351      107.32155    
-807630.19      3.1763121      33.5851        25.827225      106.89973    
-807617.89      3.550563       35.348533      25.878849      106.47734    
-807603.06      3.7969309      37.052784      25.873929      106.05534    
-807611.94      3.8635813      35.761681      25.885965      105.63344    
-807631.59      3.1493888      33.733502      25.892046      105.21173    
-807649.72      3.0740342      34.453032      25.870558      104.79067    
-807649.62      3.6565175      35.701556      25.853406      104.37017    
-807649.36      3.7021235      35.0425        25.800609      103.95079    
-807642.33      3.4337353      34.443645      25.807515      103.53157    
-807632.12      3.2487273      34.250885      25.878853      103.11148    
-807609.36      2.8532655      35.921394      25.88217       102.69162    
-807603.64      3.7406711      37.460668      25.911125      102.27159    
-807616.16      3.2571882      34.994492      25.860938      101.85259    
-807638.1       2.5373828      33.574221      25.865474      101.43379    
-807643.57      3.4690065      34.399213      25.85532       101.0154     
-807648.15      3.0482343      35.201         25.854895      100.59727    
-807652.81      2.8609021      34.125696      25.882965      100.17898    
-807645.42      2.7287204      32.415391      25.844651      99.7615      
-807622.92      2.9243298      34.354499      25.851888      99.344157    
-807607.3       3.6217045      36.749178      25.922327      98.926036    
-807609.83      3.8056955      36.426992      25.875168      98.508845    
-807618.78      3.9514804      35.374517      25.864214      98.09205     
-807631.13      3.8632864      33.904694      25.859291      97.675559    
-807644.04      5.2584263      35.008392      25.897761      97.25876     
-807653.37      4.0223349      35.371286      25.85881       96.842739    
-807650.88      4.8043252      34.314935      25.863182      96.426883    
-807637.23      3.0820415      34.374807      25.862337      96.011262    
-807619.16      4.4255061      35.800108      25.901734      95.595328    
-807614.31      3.6142591      36.611685      25.878103      95.179939    
-807606.94      3.3414757      37.321507      25.875292      94.764807    
-807617.2       3.7888615      35.350455      25.886533      94.349743    
-807633.1       3.5655876      34.5331        25.857017      93.935283    
-807650.83      3.5260991      33.204287      25.888574      93.520618    
-807651.29      2.8861894      34.850109      25.858413      93.106556    
-807646.48      3.2705373      34.401193      25.867827      92.692576    
-807634.87      3.7766282      33.87344       25.867546      92.278803    
-807625.42      2.8521842      34.281046      25.874146      91.865147    
-807608.54      3.6740781      36.830242      25.840269      91.452116    
-807606.5       3.230851       36.229875      25.859954      91.03903     
-807618.72      3.5563702      35.155425      25.848279      90.626281    
-807639.27      2.612418       33.685189      25.837029      90.213858    
-807647.54      3.2690209      34.459006      25.842158      89.801557    
-807648.95      3.1559615      34.743115      25.843044      89.389428    
-807645.48      4.49718        34.476782      25.890919      88.976908    
-807637.91      3.4303728      33.206484      25.869289      88.564833    
-807622.04      2.8854303      34.24642       25.87172       88.152912    
-807605.32      3.3454965      36.242134      25.869958      87.741191    
-807608.7       3.6119376      36.421805      25.917426      87.329103    
-807624.44      3.2092851      34.462846      25.895382      86.917451    
-807639.38      4.3072308      33.694816      25.891373      86.506025    
-807643.51      3.3587446      35.111303      25.900333      86.094674    
-807650.39      3.6396232      34.707632      25.874361      85.68379     
-807645.97      4.1196031      34.617821      25.845447      85.273397    
-807635.52      3.8909743      33.817637      25.850388      84.863113    
-807614.79      3.5583381      35.198535      25.889136      84.452568    
-807609.05      3.535898       36.25621       25.893092      84.042148    
-807613.74      3.7895225      34.744943      25.825984      83.632615    
-807627.31      3.2477631      33.761523      25.831044      83.223181    
-807635.21      4.0090737      33.536197      25.836814      82.813838    
-807649.95      3.5832299      33.271891      25.845675      82.404553    
-807650.24      2.8403495      33.986584      25.82836       81.995601    
-807645.66      2.6975797      32.843135      25.832074      81.586758    
-807629.21      3.5252903      33.442817      25.879113      81.177579    
-807618.81      3.6274189      34.312768      25.869084      80.768656    
-807611.18      3.8713259      35.683967      25.843879      80.360135    
-807616.43      3.0215443      34.847053      25.853249      79.951664    
-807624.99      3.2304138      32.460564      25.864878      79.543223    
-807641.16      3.3919767      32.866863      25.86428       79.134932    
-807651.64      2.7232776      32.640408      25.862472      78.726802    
-807649.75      3.2415049      33.389276      25.845106      78.31898     
-807640.97      3.4308989      33.052676      25.861122      77.911142    
-807631.92      3.3937727      33.339563      25.879651      77.503267    
-807620.74      2.8510814      33.804454      25.87301       77.095594    
-807610.64      2.8179452      34.489897      25.867654      76.688108    
-807614.37      3.3289417      34.181377      25.84268       76.280989    
-807630         2.6388833      32.641332      25.855523      75.873882    
-807644.05      2.8159138      32.454647      25.856218      75.466899    
-807648.12      3.1941367      32.638219      25.869771      75.059925    
-807646.59      3.2670741      33.799578      25.877261      74.653013    
-807642.52      2.9259719      32.989009      25.817019      74.246766    
-807633.25      2.9935199      32.400799      25.859856      73.840263    
-807614.25      3.1069887      34.592717      25.849422      73.433975    
-807608.6       2.697076       35.49231       25.845423      73.027845    
-807616.52      3.0608559      35.185446      25.744711      72.622702    
-807631.79      3.1664103      33.803988      25.793621      72.217246    
-807638.83      2.554425       34.334609      25.804564      71.811808    
-807646.87      4.5061193      35.702993      25.846496      71.406132    
-807646.24      2.8503919      34.87807       25.882556      71.000274    
-807642.2       2.870514       33.749049      25.884559      70.59452     
-807625.79      3.0306329      33.541463      25.850029      70.189167    
-807613.12      3.0901472      34.762797      25.880404      69.783682    
-807609.04      3.2789797      35.562332      25.901406      69.378148    
-807620.82      3.0361315      34.530414      25.8206        68.973372    
-807628.42      3.1438507      33.32435       25.870332      68.568313    
-807640.41      3.4615266      33.519758      25.91048       68.163054    
-807647.1       3.2303266      34.525363      25.836422      67.758483    
-807647.41      3.1216217      34.258512      25.79528       67.354332    
-807636.3       2.8845483      34.302849      25.790067      66.950321    
-807624.89      3.6111898      34.525331      25.850089      66.545955    
-807614.74      3.0667035      35.888351      25.815916      66.14195     
-807610.15      3.1295249      36.441629      25.792906      65.738214    
-807618.3       3.2214548      34.777004      25.824265      65.334343    
-807631.06      3.4755862      33.907835      25.829692      64.930531    
-807643.14      2.8188979      33.897995      25.856452      64.526627    
-807645.68      3.7844428      34.980217      25.829044      64.123018    
-807645.07      2.8981022      33.595631      25.816265      63.719596    
-807634.63      3.7393299      33.895897      25.806471      63.316338    
-807627.51      3.4517001      34.134126      25.83074       62.913002    
-807611.27      3.187905       35.707747      25.80648       62.509929    
-807611.85      3.1321445      35.843867      25.87057       62.10651     
-807618.27      2.6984793      34.767693      25.919256      61.702863    
-807637.23      2.6837879      32.999031      25.891444      61.299503    
-807641.66      2.9625704      33.685714      25.884175      60.89629     
-807646.93      2.8970746      34.487971      25.864261      60.493304    
-807644.43      3.2343477      33.942872      25.803587      60.090806    
-807637.61      3.9024036      34.308569      25.808592      59.68836     
-807622.07      3.6108335      34.287224      25.784392      59.286154    
-807611.85      2.9314417      36.02017       25.803899      58.883906    
-807611.08      3.3381748      36.290377      25.815884      58.481667    
-807624.99      3.0707418      35.099114      25.854813      58.079271    
-807634.76      3.3522016      33.98321       25.846743      57.677013    
-807644.95      4.0126145      33.895747      25.847299      57.274838    
-807647.66      3.1858128      34.092343      25.80915       56.872977    
-807646.47      3.2066737      33.248505      25.834609      56.471046    
-807633.69      2.9283654      33.731153      25.84144       56.069156    
-807621.56      3.0695197      33.574161      25.878683      55.667133    
-807614.06      3.5002037      36.036433      25.818188      55.265546    
-807614.7       3.2544656      35.224738      25.842447      54.863898    
-807625.8       2.5459847      34.037082      25.854192      54.462265    
-807636.11      3.1396958      33.381383      25.8738        54.060604    
-807648.24      2.8004467      33.331004      25.871533      53.659039    
-807646.2       2.8299936      34.048075      25.829249      53.257788    
-807645.45      2.6819689      32.414534      25.80409       52.85675     
-807629.9       3.5301556      34.000055      25.842065      52.455581    
-807625.68      2.9156348      32.878135      25.872042      52.05433     
-807613.42      3.1635327      35.228854      25.885396      51.653089    
-807618.29      3.0328521      34.478911      25.904743      51.251828    
-807626.07      3.0463277      33.175425      25.924451      50.850548    
-807642         3.2422583      32.052697      25.878505      50.449584    
-807646.95      2.8363423      32.958257      25.866864      50.048756    
-807646.98      3.1512105      33.431819      25.863364      49.648022    
-807641.19      3.4527838      33.24004       25.816801      49.247593    
-807633.96      3.6194641      33.247804      25.84595       48.847091    
-807621.06      2.7836498      33.835552      25.829212      48.446742    
-807611.98      3.5744572      35.866531      25.802183      48.046591    
-807618.71      2.9028971      34.232996      25.83942       47.646331    
-807628.92      2.908073       34.309991      25.847308      47.246103    
-807638.43      3.3030596      33.976601      25.830778      46.846022    
-807643.71      3.1546138      34.540186      25.834474      46.445991    
-807646.4       3.0311023      34.032185      25.816647      46.046108    
-807640.69      3.3449409      33.351838      25.807173      45.646334    
-807629.95      2.8707128      33.296747      25.851466      45.246426    
-807617.24      2.9133202      35.15773       25.871276      44.8465      
-807614.5       2.8860376      35.104705      25.862948      44.446679    
-807617.58      3.6572629      34.845028      25.924146      44.046665    
-807628.19      3.3823573      34.914877      25.922283      43.646732    
-807637.32      3.3271262      34.663164      25.87223       43.247079    
-807645.55      3.1225688      34.631464      25.844098      42.84761     
-807643.75      3.2075578      34.395223      25.781843      42.448458    
-807639.61      3.049387       33.755047      25.835686      42.049147    
-807628.21      4.7857507      33.967205      25.809522      41.650001    
-807618.73      3.1837614      34.826421      25.825737      41.250851    
-807612.21      2.7078817      35.445836      25.786514      40.851914    
-807618.17      3.0005538      35.292454      25.820497      40.452902    
-807627.72      3.5313491      34.759528      25.867728      40.05377     
-807639.14      3.4553092      34.756124      25.864967      39.654711    
-807643.81      3.9076871      34.798489      25.837303      39.255816    
-807643.55      3.1195795      34.70468       25.877962      38.856832    
-807636.55      3.3967725      34.553545      25.90575       38.45781     
-807626.8       3.4719326      34.798735      25.872206      38.058972    
-807616.91      3.0305028      35.412401      25.807443      37.660422    
-807612.64      3.0928981      36.102597      25.828276      37.261854    
-807618.86      3.1488021      35.055568      25.901523      36.863092    
-807629.31      3.6380603      35.236858      25.870649      36.464496    
-807639.15      3.5914039      34.563         25.852502      36.06602     
-807642.62      2.9725021      35.063861      25.80209       35.667766    
-807642.49      3.3728849      35.092674      25.810965      35.269535    
-807634.41      3.4319977      34.75887       25.825164      34.871312    
-807624.36      4.0770788      35.545366      25.809625      34.47319     
-807615.84      3.1989512      35.903876      25.845852      34.075008    
-807615.49      3.7539296      35.583689      25.862719      33.676828    
-807621.4       3.8005171      34.763913      25.860347      33.27871     
-807631.35      3.7176005      34.270019      25.867864      32.880625    
-807640.6       3.1348899      33.685274      25.883623      32.482549    
-807644.39      2.701028       34.430484      25.873356      32.084559    
-807639.62      2.65614        34.366036      25.798701      31.686836    
-807636.83      2.7843267      33.107137      25.804006      31.289147    
-807623.02      2.8184158      34.909895      25.80802       30.891494    
-807617.79      2.5087378      34.66909       25.83699       30.49381     
-807615.02      3.5997126      35.528092      25.831493      30.096192    
-807623.14      3.8412248      35.302717      25.862441      29.698541    
-807630.53      2.7387531      34.67249       25.843289      29.300991    
-807641.95      3.6360319      33.846552      25.861413      28.903445    
-807644.41      3.4622804      34.177807      25.888075      28.505882    
-807640.22      3.822047       34.71657       25.92296       28.108286    
-807633.84      2.9364443      34.251751      25.880766      27.710848    
-807625.13      3.8609082      33.783957      25.845253      27.313546    
-807615.98      3.0746272      35.16048       25.858891      26.916259    
-807614.65      3.2425516      35.594367      25.878366      26.518977    
-807624.27      3.3629294      33.648244      25.90361       26.121687    
-807633.82      2.6537843      32.891657      25.870474      25.724523    
-807642.26      2.9222946      33.251173      25.846591      25.32746     
-807644.03      3.0372         32.672506      25.872685      24.930387    
-807641.37      2.8344779      32.62329       25.831665      24.53345     
-807635.28      2.866122       32.217044      25.807487      24.136607    
-807624.29      2.7818774      32.959062      25.777514      23.739869    
-807617.25      3.3603519      33.427155      25.793939      23.343137    
-807618.01      3.7333173      33.715852      25.82083       22.946393    
-807627.05      3.9505125      33.450695      25.892612      22.549554    
-807635.26      3.1239091      32.809638      25.861287      22.152822    
-807640.92      3.9698961      33.88809       25.808571      21.756233    
-807644.26      3.1306951      33.473502      25.867889      21.359576    
-807640.5       4.7113309      33.237771      25.821719      20.963047    
-807632.39      2.9801239      32.795174      25.818265      20.566566    
-807622.49      3.4174081      33.954498      25.847081      20.170076    
-807618.66      3.1097232      33.569126      25.886386      19.773563    
-807620.15      2.8918681      33.747087      25.905391      19.377065    
-807627.17      3.8715518      32.926154      25.876313      18.980659    
-807635.74      3.0039431      32.836819      25.846074      18.584344    
-807642.05      3.1474955      33.026577      25.857621      18.188054    
-807641.77      2.8904346      33.924252      25.808087      17.791878    
-807637.96      3.1650728      34.051669      25.875233      17.395644    
-807628.56      3.3419635      34.290486      25.842836      16.999498    
-807622.3       2.6244636      35.085735      25.839987      16.603396    
-807615.83      3.967697       35.544412      25.860288      16.207306    
-807618.13      3.173326       35.421681      25.850749      15.81127     
-807626.82      3.3294298      33.997782      25.855529      15.415268    
-807634.76      3.6347688      34.116789      25.914445      15.019233    
-807639.76      2.7749869      34.000231      25.841563      14.623329    
-807641.57      3.9370451      33.837204      25.775023      14.227542    
-807636.28      3.1124134      33.824223      25.760406      13.831804    
-807627.85      3.1543582      33.859619      25.782788      13.436074    
-807620.02      3.072408       34.393392      25.766623      13.040395    
-807617.16      3.1322748      34.307831      25.840649      12.644673    
-807620.01      3.1183243      34.666004      25.863198      12.248965    
-807626.47      3.2784696      34.582898      25.894339      11.853266    
-807637.12      3.121884       33.569836      25.853125      11.457646    
-807640.54      2.8225016      34.2141        25.861698      11.062055    
-807640.12      3.1955261      33.037997      25.808241      10.666548    
-807634.65      2.7091384      33.048107      25.816039      10.271068    
-807627.95      2.8238101      33.317034      25.842174      9.875602     
-807620.06      2.7679905      34.141728      25.834532      9.4801773    
-807617         2.7702687      33.938916      25.849307      9.0847769    
-807620.35      2.8632693      34.057861      25.836615      8.6894211    
-807631.18      2.7401532      33.776759      25.897548      8.29406      
-807637.83      3.2683225      33.93292       25.84167       7.8987721    
-807640.45      2.5596735      33.461947      25.844054      7.5035174    
-807638.9       3.1367893      34.277033      25.792146      7.1083263    
-807636.67      2.6635509      33.391266      25.810976      6.7131562    
-807627.12      2.8633811      33.906062      25.851174      6.3179981    
-807618.88      2.7323148      35.006624      25.843886      5.9228778    
-807618.65      3.0214218      34.126437      25.8264        5.5277987    
-807624.94      2.7098892      33.442548      25.84147       5.1327459    
-807631.04      2.5650329      32.769261      25.808655      4.7377383    
-807637.81      2.8533508      33.780555      25.841358      4.3427505    
-807641.92      3.1888104      33.186324      25.851683      3.9477923    
-807639.98      3.5479994      33.412494      25.86282       3.5528642    
-807634.96      3.1253352      32.777889      25.869679      3.157968     
-807625.93      2.757901       32.792849      25.811516      2.763118     
-807620.62      4.0708734      34.032358      25.84655       2.3682917    
-807618.07      3.332396       34.830902      25.844394      1.9734978    
-807626.49      3.1927628      33.0273        25.883793      1.5787309    
-807631.04      2.7133801      33.421809      25.895468      1.1839968    
-807639.19      2.7243986      32.632683      25.873255      0.78929837   
-807641.63      3.477035       33.931295      25.820886      0.39463442   
-807639.25      3.5350348      33.366983      25.835515      0            
Loop time of 197.31 on 32 procs for 5000 steps with 1080 atoms

Performance: 4.379 ns/day, 5.481 hours/ns, 25.341 timesteps/s, 27.368 katom-step/s
67.4% CPU use with 32 MPI tasks x 1 OpenMP threads

MPI task timing breakdown:
Section |  min time  |  avg time  |  max time  |%varavg| %total
---------------------------------------------------------------
Pair    | 101.75     | 144.58     | 192.89     | 315.2 | 73.28
Neigh   | 0          | 0          | 0          |   0.0 |  0.00
Comm    | 2.1275     | 50.44      | 93.274     | 533.7 | 25.56
Output  | 0.025891   | 0.026886   | 0.028779   |   0.3 |  0.01
Modify  | 1.9369     | 1.9458     | 1.9557     |   0.3 |  0.99
Other   |            | 0.3145     |            |       |  0.16

Nlocal:          33.75 ave          48 max          21 min
Histogram: 8 8 0 0 0 0 0 8 0 8
Nghost:        1106.25 ave        1119 max        1092 min
Histogram: 8 0 8 0 0 0 0 0 8 8
Neighs:              0 ave           0 max           0 min
Histogram: 32 0 0 0 0 0 0 0 0 0
FullNghs:       5494.5 ave        7896 max        3378 min
Histogram: 8 8 0 0 0 0 0 8 0 8

Total # of neighbors = 175824
Ave neighs/atom = 162.8
Neighbor list builds = 0
Dangerous builds = 0

reset_timestep 0


variable interval equal 1000
thermo 10

variable nintervals equal $(v_PERIOD/v_interval)
variable nintervals equal 100
variable efield equal 1e-2*36.36*cos((step/${PERIOD})*2*3.14)
variable efield equal 1e-2*36.36*cos((step/100000)*2*3.14)
fix born all addbornforce 0.0 0.0 v_efield

variable Px equal f_born[1]+c_polarization[1]
variable Py equal f_born[2]+c_polarization[2]
variable Pz equal (f_born[3]+c_polarization[3])/vol
variable pe equal pe

fix aveP all ave/time 1 $(v_interval/2) ${interval} v_efield v_Pz v_pe f_born file Pz.${MODEL}.${STRUCTURE}.${TEMP}.$L.${ITER}
fix aveP all ave/time 1 500 ${interval} v_efield v_Pz v_pe f_born file Pz.${MODEL}.${STRUCTURE}.${TEMP}.$L.${ITER}
fix aveP all ave/time 1 500 1000 v_efield v_Pz v_pe f_born file Pz.${MODEL}.${STRUCTURE}.${TEMP}.$L.${ITER}
fix aveP all ave/time 1 500 1000 v_efield v_Pz v_pe f_born file Pz.BaTiO3-E0.${STRUCTURE}.${TEMP}.$L.${ITER}
fix aveP all ave/time 1 500 1000 v_efield v_Pz v_pe f_born file Pz.BaTiO3-E0.BaTiO3-sc333.${TEMP}.$L.${ITER}
fix aveP all ave/time 1 500 1000 v_efield v_Pz v_pe f_born file Pz.BaTiO3-E0.BaTiO3-sc333.310.$L.${ITER}
fix aveP all ave/time 1 500 1000 v_efield v_Pz v_pe f_born file Pz.BaTiO3-E0.BaTiO3-sc333.310.2.${ITER}
fix aveP all ave/time 1 500 1000 v_efield v_Pz v_pe f_born file Pz.BaTiO3-E0.BaTiO3-sc333.310.2.4

thermo_style custom step time temp press pe f_born v_efield v_Pz spcpu cpuremain

# dump 4a all custom 1000 dump.hyst.${MODEL}.${STRUCTURE}.${TEMP}.$L.${ITER}.bin id type xu yu zu fx fy fz
# dump_modify 4a sort id

fix nvt all nvt temp ${TEMP} ${TEMP} $(100*dt)
fix nvt all nvt temp 310 ${TEMP} $(100*dt)
fix nvt all nvt temp 310 310 $(100*dt)
fix nvt all nvt temp 310 310 0.2000000000000000111

run $(v_PERIOD)
run 100000
WARNING: non-constant efield is experimental, strongly distrust scalar/vector output (src/fix_addbornforce.cpp:193)
Per MPI rank memory allocation (min/avg/max) = 3.516 | 3.516 | 3.516 Mbytes
   Step          Time           Temp          Press          PotEng         f_born        v_efield         v_Pz          S/CPU         CPULeft    
         0   0              299.50459      126883.6      -807639.25     -294.41894      0.3636         0.055371895    0              0            
        10   0.02           319.52376      132025.76     -807633.46     -303.06768      0.36359993     0.056998491    29.31102       3411.3638    
        20   0.04           301.1921       139116.02     -807623.39     -310.59755      0.36359971     0.058414682    29.36729       3407.7474    
        30   0.06           299.31192      142490.59     -807621.27     -312.4312       0.36359935     0.058759598    29.356181      3406.7416    
        40   0.08           299.48282      141995.77     -807619.69     -314.01463      0.36359885     0.059057478    29.354135      3406.1289    
        50   0.1            312.09195      137685.37     -807625.53     -309.95057      0.36359821     0.058293243    29.405075      3404.445     
        60   0.12           302.52948      132756.21     -807632.09     -301.88589      0.36359742     0.056776621    29.406905      3403.1739    
        70   0.14           301.83174      126349.32     -807640.78     -293.00497      0.36359649     0.055106499    29.38633       3402.5087    
        80   0.16           300.41194      125862        -807641.04     -292.41483      0.36359541     0.054995673    29.419134      3401.4508    
        90   0.18           306.89721      126900.35     -807638.06     -296.22588      0.36359419     0.055712619    29.419635      3400.5461    
       100   0.2            315.52289      133851.9      -807631.86     -303.4925       0.36359283     0.057079501    29.369049      3400.3391    
       110   0.22           312.09955      137169.66     -807626.67     -308.11077      0.36359132     0.057948325    29.337865      3400.4367    
       120   0.24           306.00587      143019.52     -807620.11     -313.51469      0.36358968     0.058964941    29.366983      3400.1797    
       130   0.26           307.89518      141612.44     -807620.24     -313.59506      0.36358788     0.058980348    29.366122      3399.9176    
       140   0.28           319.80481      138938.62     -807626.13     -308.96186      0.36358595     0.058109253    29.429819      3399.1186    
       150   0.3            315.67467      130939.94     -807634.88     -299.3932       0.36358387     0.056309911    29.349333      3399.0012    
       160   0.32           308.72771      127625.52     -807638.66     -294.28756      0.36358165     0.055349981    29.358733      3398.7876    
       170   0.34           309.56501      125847.92     -807639.56     -293.22312      0.36357928     0.055150138    29.367266      3398.5011    
       180   0.36           305.39827      129565.32     -807635.15     -296.74752      0.36357677     0.055813402    29.353654      3398.2961    
       190   0.38           324.12619      133406.51     -807632.11     -302.12411      0.36357412     0.056825065    29.349658      3398.1012    
       200   0.4            314.78421      139652.23     -807622.79     -309.88137      0.36357132     0.058284539    29.351313      3397.8824    
       210   0.42           305.26518      143718.02     -807616.87     -314.31285      0.36356838     0.059118519    29.366549      3397.5675    
       220   0.44           315.12898      141606.22     -807619.97     -312.33501      0.3635653      0.058747008    29.376539      3397.198     
       230   0.46           320.70495      136521.18     -807626.66     -306.22197      0.36356207     0.057597721    29.494285      3396.2415    
       240   0.48           314.31327      130639.99     -807632.79     -299.12596      0.3635587      0.056263542    29.442145      3395.5859    
       250   0.5            309.90652      128301.06     -807635.56     -295.56495      0.36355519     0.055594278    29.370103      3395.2883    
       260   0.52           312.98423      127266.86     -807638.51     -292.94491      0.36355153     0.055102016    29.416553      3394.781     
       270   0.54           322.89033      129608.52     -807636.35     -296.47847      0.36354773     0.055767252    29.382043      3394.4337    
       280   0.56           320.28497      133615.96     -807629.41     -303.09896      0.36354379     0.057013175    29.429722      3393.8903    
       290   0.58           330.95655      139550.12     -807623.02     -310.98626      0.3635397      0.058497442    29.353082      3393.6661    
       300   0.6            320.37204      142837.15     -807619.85     -312.75586      0.36353547     0.058830994    29.370356      3393.3675    
       310   0.62           326.4714       140383.82     -807623.11     -310.3944       0.3635311      0.058387493    29.350681      3393.1396    
       320   0.64           321.205        136306.48     -807627.4      -305.4244       0.36352658     0.057453312    29.361093      3392.8669    
       330   0.66           325.04317      131117.84     -807633.35     -300.08595      0.36352192     0.056449822    29.382087      3392.5169    
       340   0.68           314.219        127540.25     -807637.61     -294.35847      0.36351712     0.055373144    29.334796      3392.3281    
       350   0.7            303.79434      126535.97     -807638.37     -292.23151      0.36351217     0.054973781    29.374462      3391.9994    
       360   0.72           309.35707      131075.89     -807633.86     -297.65059      0.36350708     0.055993987    29.333306      3391.8026    
       370   0.74           328.65514      134646.5      -807629.5      -304.91799      0.36350185     0.057361954    29.375293      3391.4666    
       380   0.76           317.94373      141047.61     -807621.97     -310.99282      0.36349647     0.058505633    29.360042      3391.1768    
       390   0.78           318.40059      140687.73     -807621.81     -311.38575      0.36349095     0.058580443    29.351808      3390.9086    
       400   0.8            310.33286      140721.44     -807621.07     -311.09002      0.36348529     0.058525719    29.34945       3390.6439    
       410   0.82           322.84672      134689.4      -807628.5      -305.57998      0.36347948     0.057490027    29.367636      3390.324     
       420   0.84           308.35011      132024.77     -807632.9      -299.20042      0.36347353     0.056290736    29.344518      3390.0667    
       430   0.86           308.32831      126877.78     -807639.78     -292.44456      0.36346744     0.05502063     29.359554      3389.7652    
       440   0.88           301.07839      128150.44     -807637.02     -294.23242      0.3634612      0.055357949    29.353818      3389.477     
       450   0.9            315.53425      130232.58     -807634.04     -299.37965      0.36345482     0.056327355    29.433378      3388.9828    
       460   0.92           312.2666       136337.16     -807627.25     -305.85192      0.3634483      0.057546126    29.358651      3388.6823    
       470   0.94           321.43718      138808.23     -807625.24     -309.25999      0.36344163     0.058188423    29.34806       3388.4062    
       480   0.96           310.73859      141240.15     -807620.9      -312.19369      0.36343482     0.05874151     29.364287      3388.0884    
       490   0.98           305.32615      140224.48     -807622.68     -309.77992      0.36342786     0.058288456    29.36354       3387.7715    
       500   1              314.11776      134720.19     -807629.92     -303.85814      0.36342077     0.057175326    29.361667      3387.4578    
       510   1.02           317.75395      128881.11     -807637.26     -9505.2573      0.36341353     0.055893374    29.332579      3387.209     
       520   1.04           306.03015      126712.09     -807639.22     -9394.3446      0.36340614     0.055242301    29.359741      3386.8964    
       530   1.06           307.7398       128388.75     -807637.29     -9465.1017      0.36339862     0.055659532    29.353138      3386.597     
       540   1.08           305.29253      130520.25     -807633.84     -9569.9854      0.36339095     0.056277489    29.361427      3386.2784    
       550   1.1            326.42952      135609.66     -807629.9      -9792.8853      0.36338313     0.057589518    29.345883      3385.9917    
       560   1.12           305.14852      140134.85     -807622.02     -9955.3416      0.36337518     0.058546165    29.364347      3385.6648    
       570   1.14           300.81311      142460.17     -807619.58     -10014.279      0.36336707     0.058894081    29.340459      3385.386     
       580   1.16           315.57512      137293.46     -807626.59     -9858.2372      0.36335883     0.057977713    29.360807      3385.0645    
       590   1.18           319.82515      133164.42     -807632.73     -9680.4646      0.36335044     0.056933521    29.351941      3384.7598    
       600   1.2            307.08184      129352.56     -807636.37     -9509.4662      0.36334191     0.055929145    29.361186      3384.436     
       610   1.22           297.16767      127666.34     -807638.03     -9412.4927      0.36333324     0.055360124    29.351267      3384.1304    
       620   1.24           305.1829       127737.91     -807638.48     -9435.1526      0.36332442     0.055494747    29.358922      3383.8094    
       630   1.26           309.82364      131883.21     -807633.24     -9624.9514      0.36331546     0.056612483    29.359024      3383.4876    
       640   1.28           311.70703      137205.55     -807626.48     -9850.7563      0.36330636     0.057942084    29.363137      3383.1579    
       650   1.3            303.16657      140622.87     -807621.88     -9961.6088      0.36329711     0.058595609    29.360843      3382.8319    
       660   1.32           305.82632      141359.01     -807622.36     -9957.093       0.36328772     0.058570561    29.341108      3382.5399    
       670   1.34           315.32936      137304.05     -807627.31     -9841.5298      0.36327819     0.057892303    29.358946      3382.2157    
       680   1.36           313.30768      133434.45     -807632.19     -9675.816       0.36326851     0.056919016    29.362384      3381.8853    
       690   1.38           299.76298      128986.79     -807636.44     -9478.81        0.36325869     0.055761614    29.360746      3381.5573    
       700   1.4            295.99943      127447.98     -807638.99     -9379.0039      0.36324873     0.055175992    29.360945      3381.2286    
       710   1.42           304.83227      129183.27     -807637.74     -9457.7102      0.36323863     0.055640563    29.349841      3380.9176    
       720   1.44           317.49828      132688.6      -807632.96     -9668.0529      0.36322838     0.056879633    29.358717      3380.5916    
       730   1.46           309.57066      138483.25     -807626.13     -9849.7528      0.36321798     0.057950278    29.371967      3380.2442    
       740   1.48           317.57487      140342.37     -807624.45     -9935.7017      0.36320745     0.058457648    29.368587      3379.9023    
       750   1.5            315.38336      140262.89     -807623.54     -9951.4075      0.36319677     0.058551776    29.329406      3379.6207    
       760   1.52           307.33551      137282        -807626.46     -9819.2135      0.36318595     0.057775699    29.356551      3379.2963    
       770   1.54           302.60139      132632.9      -807630.93     -9649.6272      0.36317498     0.056779577    29.368027      3378.9543    
       780   1.56           310.03676      127637.83     -807638.26     -9440.2553      0.36316387     0.055549307    29.369587      3378.6102    
       790   1.58           307.64307      127830.77     -807637.86     -9434.3437      0.36315262     0.055516241    29.349011      3378.296     
       800   1.6            303.77786      130123.74     -807634.03     -9533.2415      0.36314122     0.056099964    29.371871      3377.9483    
       810   1.62           314.78559      134842.53     -807630.41     -9689.6731      0.36312968     0.057022324    29.409679      3377.5471    
       820   1.64           321.66679      137459.34     -807626.38     -9839.0698      0.363118       0.057903365    29.361692      3377.2147    
       830   1.66           309.98407      141108.38     -807621.23     -9943.4636      0.36310618     0.058519632    29.363697      3376.8793    
       840   1.68           311.92033      139686.56     -807621.84     -9925.1071      0.36309421     0.058413525    29.348908      3376.5641    
       850   1.7            318.01751      137018.61     -807627.6      -9759.8325      0.3630821      0.057442729    29.354956      3376.24      
       860   1.72           327.31358      130719.66     -807634.81     -9562.0547      0.36306984     0.056280583    29.354414      3375.9163    
       870   1.74           309.65022      128428.09     -807634.65     -9480.0506      0.36305745     0.055799826    29.352139      3375.5952    
       880   1.76           314.82744      128159.82     -807636.54     -9438.6261      0.3630449      0.05555792     29.362535      3375.2602    
       890   1.78           321.29364      131420.21     -807634.44     -9530.5596      0.36303222     0.056101021    29.361939      3374.9257    
       900   1.8            315.88395      135607.1      -807628.29     -9701.3689      0.36301939     0.057108497    29.345738      3374.6118    
       910   1.82           325.83781      138168.45     -807624.04     -9880.2796      0.36300642     0.058163759    29.348806      3374.2934    
       920   1.84           307.8304       140878.73     -807619.71     -9935.2301      0.36299331     0.058489357    29.358549      3373.9624    
       930   1.86           322.11198      138731.55     -807623.72     -9868.3251      0.36298005     0.058097605    29.34966       3373.6421    
       940   1.88           321.48492      135637.35     -807627.62     -9741.4145      0.36296665     0.057352564    29.366256      3373.3011    
       950   1.9            321.76622      131392.87     -807632.66     -9581.5643      0.36295311     0.056413551    29.35941       3372.9684    
       960   1.92           310.89606      129685.77     -807634.45     -9475.807       0.36293942     0.055792986    29.363384      3372.6308    
       970   1.94           304.47668      128592.48     -807636        -9401.2638      0.36292559     0.055356189    29.350154      3372.3088    
       980   1.96           319.61235      131190.66     -807633.39     -9554.3991      0.36291162     0.056260041    29.360494      3371.9744    
       990   1.98           326.79903      134702.72     -807628.55     -9746.9404      0.3628975      0.057396032    29.354601      3371.6465    
      1000   2              315.47669      138983.35     -807623.22     -9873.5146      0.36288325     0.058143664    29.232461      3371.4594    
      1010   2.02           317.92535      139914.6      -807622.96     -309.27835      0.36286884     0.058283732    29.406182      3371.0711    
      1020   2.04           325.0262       138272.84     -807626.06     -307.36589      0.3628543      0.057925651    29.343459      3370.7543    
      1030   2.06           317.96487      135011.41     -807627.9      -304.77523      0.36283961     0.057439744    29.458467      3370.3092    
      1040   2.08           319.74187      129514.59     -807634.54     -298.6049       0.36282478     0.056279148    29.368904      3369.9647    
      1050   2.1            307.11557      129492.63     -807636.59     -294.98769      0.3628098      0.055599693    29.429636      3369.554     
      1060   2.12           308.29149      127963.04     -807637.02     -295.02871      0.36279469     0.055609742    29.37194       3369.2069    
      1070   2.14           310.73157      132110.3      -807632.44     -300.10607      0.36277943     0.056569149    29.413929      3368.815     
      1080   2.16           314.70752      133551.16     -807629.83     -303.62498      0.36276402     0.057234883    29.379648      3368.4604    
      1090   2.18           312.22651      139349.2      -807625.07     -308.15382      0.36274848     0.058091084    29.354717      3368.1324    
      1100   2.2            310.96715      138463.67     -807624.72     -308.59121      0.36273279     0.058176054    29.359123      3367.7994    
      1110   2.22           298.74078      138770.32     -807622.75     -308.98673      0.36271695     0.05825316     29.368235      3367.457     
      1120   2.24           304.89378      133501.2      -807630.04     -302.74935      0.36270098     0.057079744    29.354031      3367.1291    
      1130   2.26           304.53148      131454.41     -807633.72     -299.07168      0.36268486     0.056388869    29.339175      3366.8161    
      1140   2.28           296.2863       127912.94     -807636.25     -295.52878      0.3626686      0.055723367    29.380498      3366.461     
      1150   2.3            303.58196      129303.41     -807636.22     -296.59067      0.36265219     0.055926121    29.34253       3366.144     
      1160   2.32           298.77736      131488.28     -807633.11     -299.02836      0.36263564     0.056388352    29.422911      3365.7473    
      1170   2.34           321.8839       134721.56     -807630.79     -304.61243      0.36261895     0.057443996    29.432673      3365.3421    
      1180   2.36           310.00481      137761.3      -807625.31     -308.51399      0.36260212     0.058182456    29.470936      3364.901     
      1190   2.38           301.92322      140289.68     -807623.11     -309.53399      0.36258514     0.05837755     29.418528      3364.5118    
      1200   2.4            303.41146      138229.21     -807625.8      -307.08429      0.36256802     0.057918275    29.391299      3364.1494    
      1210   2.42           310.11128      133859.76     -807630.43     -303.35946      0.36255076     0.05721847     29.421702      3363.7586    
      1220   2.44           308.23402      130401.31     -807634.42     -299.05715      0.36253335     0.056409694    29.344394      3363.4411    
      1230   2.46           304.27919      128398.18     -807637.41     -295.42829      0.3625158      0.055727897    29.355133      3363.1133    
      1240   2.48           308.99829      129539.43     -807636.63     -296.79877      0.36249811     0.055989149    29.399447      3362.7444    
      1250   2.5            310.48839      129940.56     -807634.15     -299.48882      0.36248028     0.056499388    29.516452      3362.2694    
      1260   2.52           312.04262      135673.98     -807629.09     -304.66433      0.3624623      0.057478613    29.42787       3361.8765    
      1270   2.54           310.08032      136846.16     -807626.4      -307.07263      0.36244418     0.057935866    29.4347        3361.4783    
      1280   2.56           314.19736      139495.52     -807624.73     -309.18404      0.36242592     0.058337167    29.356084      3361.1511    
      1290   2.58           315.79862      135863.93     -807627.99     -306.10372      0.36240751     0.057758904    29.438543      3360.7508    
      1300   2.6            308.46069      135674.38     -807629.18     -303.70824      0.36238896     0.057309832    29.393369      3360.391     
      1310   2.62           310.99949      129582.76     -807635.31     -297.89317      0.36237027     0.056215427    29.333356      3360.084     
      1320   2.64           289.95194      131748.92     -807632.87     -297.17971      0.36235143     0.056083705    29.351456      3359.7607    
      1330   2.66           308.05029      128347.86     -807636.65     -295.97517      0.36233245     0.05585931     29.34683       3359.4412    
      1340   2.68           306.41749      133240.47     -807631.43     -300.75776      0.36231333     0.056764922    29.354633      3359.1146    
      1350   2.7            307.16234      133970.02     -807628.73     -303.57721      0.36229407     0.05730011     29.361417      3358.7821    
      1360   2.72           305.42637      139388.84     -807623.37     -308.45373      0.36227466     0.058223671    29.356114      3358.454     
      1370   2.74           326.0922       136127.39     -807628.55     -306.12165      0.36225511     0.057786586    29.357811      3358.1242    
      1380   2.76           312.71718      136850.04     -807626.67     -305.90809      0.36223542     0.057749413    29.366958      3357.7868    
      1390   2.78           316.51992      132113.86     -807631.67     -301.33696      0.36221558     0.056889588    29.354374      3357.4596    
      1400   2.8            300.74989      132432.42     -807632.5      -298.0258       0.3621956      0.056267576    29.436328      3357.0654    
      1410   2.82           309.49769      128081.98     -807636.96     -294.7073       0.36217548     0.055644132    29.375405      3356.7213    
      1420   2.84           307.37865      131098.56     -807633.61     -297.57419      0.36215522     0.056188576    29.446165      3356.3204    
      1430   2.86           319.43971      132184.33     -807631.53     -301.17482      0.36213481     0.056871659    29.406245      3355.9522    
      1440   2.88           321.17828      136533.91     -807627.48     -305.18431      0.36211426     0.057632053    29.464689      3355.5381    
      1450   2.9            314.02544      138311.11     -807624.54     -306.93429      0.36209357     0.057965837    29.349344      3355.2158    
      1460   2.92           324.35951      138675.02     -807625.23     -307.38414      0.36207273     0.058054134    29.339632      3354.9009    
      1470   2.94           322.98634      135887.71     -807626.73     -305.41388      0.36205176     0.057685363    29.376037      3354.5572    
      1480   2.96           316.30631      133105.52     -807629.79     -301.08715      0.36203064     0.056871466    29.351456      3354.2326    
      1490   2.98           324.89154      130814.13     -807634.99     -296.71259      0.36200937     0.056048459    29.438912      3353.8409    
      1500   3              309.72454      130233.03     -807633.56     -295.64057      0.36198796     0.055849259    29.349627      3353.5177    
      1510   3.02           331.53309      131832.42     -807634        -9530.9149      0.36196642     0.056268308    29.35228       3353.1923    
      1520   3.04           327.9698       132898.1      -807630.57     -9613.1433      0.36194472     0.056757167    29.363543      3352.8581    
      1530   3.06           323.17459      138737.39     -807624.45     -9774.9537      0.36192289     0.057715997    29.356986      3352.5289    
      1540   3.08           327.10415      137616.55     -807624.51     -9783.9869      0.36190091     0.057772841    29.362116      3352.1956    
      1550   3.1            332.04998      139518.22     -807622.7      -9852.7516      0.36187879     0.058182442    29.352419      3351.8694    
      1560   3.12           318.7496       136078.51     -807625.35     -9706.0516      0.36185653     0.057319675    29.3581        3351.5389    
      1570   3.14           323.75538      134135.54     -807629.08     -9601.4376      0.36183412     0.056705382    29.363489      3351.2043    
      1580   3.16           322.16571      129035.6      -807633        -9468.049       0.36181157     0.055921084    29.348562      3350.8804    
      1590   3.18           330.11055      131630.51     -807632.76     -9507.5171      0.36178888     0.056157716    29.358106      3350.5495    
      1600   3.2            325.83415      129836.98     -807632.87     -9488.0608      0.36176605     0.056046332    29.357035      3350.2192    
      1610   3.22           336.15165      135367.89     -807629.12     -9652.6533      0.36174307     0.057022207    29.356926      3349.8889    
      1620   3.24           322.32987      136804.66     -807624.79     -9736.7809      0.36171995     0.05752286     29.351709      3349.5621    
      1630   3.26           329.82277      139565.44     -807623.11     -9826.8728      0.36169669     0.058058838    29.350205      3349.2362    
      1640   3.28           317.73841      137386.75     -807623.44     -9770.062       0.36167329     0.057726925    29.329877      3348.9242    
      1650   3.3            334.36347      136137.29     -807627.38     -9723.195       0.36164974     0.05745375     29.287666      3348.6413    
      1660   3.32           326.34679      132709.73     -807630.6      -9591.7767      0.36162605     0.05668092     29.358335      3348.3089    
      1670   3.34           305.01416      132607.39     -807630.71     -9498.6885      0.36160222     0.056134531    29.356096      3347.9779    
      1680   3.36           326.01191      129095.98     -807635.53     -9446.4072      0.36157824     0.055829265    29.365675      3347.6403    
      1690   3.38           326.80986      131159.01     -807632.79     -9543.8146      0.36155413     0.056408716    29.35213       3347.3119    
      1700   3.4            325.19506      134250.6      -807628.91     -9667.3338      0.36152987     0.05714261     29.35541       3346.9811    
      1710   3.42           317.22458      136272.03     -807625.44     -9748.0716      0.36150546     0.057623732    29.359617      3346.6473    
      1720   3.44           316.15348      138800.25     -807624.04     -9791.0511      0.36148092     0.057881727    29.365434      3346.3097    
      1730   3.46           324.56101      136508.2      -807626.21     -9764.7264      0.36145623     0.057730046    29.361604      3345.9745    
      1740   3.48           325.16696      136187.68     -807627.74     -9720.972       0.3614314      0.057475314    29.439729      3345.5882    
      1750   3.5            312.16717      132128.66     -807631.44     -9550.2759      0.36140643     0.056469974    29.356403      3345.2566    
      1760   3.52           314.24672      131723.98     -807633.37     -9497.9138      0.36138131     0.056164264    29.355873      3344.9252    
      1770   3.54           302.74329      128898.95     -807633.36     -9455.2326      0.36135605     0.055915785    29.35293       3344.5957    
      1780   3.56           314.41489      133693.32     -807631.03     -9581.4935      0.36133065     0.056666442    29.360659      3344.261     
      1790   3.58           305.25544      132993.4      -807628.69     -9623.5194      0.36130511     0.056919013    29.358624      3343.9276    
      1800   3.6            321.48695      137530.55     -807626.79     -9756.4711      0.36127942     0.057709468    29.363031      3343.5913    
      1810   3.62           305.98473      137219.06     -807625.21     -9747.2021      0.3612536      0.057658764    29.329799      3343.2759    
      1820   3.64           321.24244      138965.28     -807625.38     -9812.0018      0.36122763     0.058046255    29.358865      3342.9419    
      1830   3.66           314.77836      134002        -807629.99     -9640.5213      0.36120151     0.057035926    29.363892      3342.6048    
      1840   3.68           316.38324      133000.28     -807632.43     -9572.7365      0.36117526     0.05663901     29.358359      3342.2711    
      1850   3.7            306.32019      129485.85     -807634.66     -9462.2012      0.36114886     0.055989098    29.357173      3341.9381    
      1860   3.72           311.37266      131523.34     -807633.94     -9511.6052      0.36112232     0.056285564    29.355349      3341.6061    
      1870   3.74           304.22483      131156.81     -807632.63     -9528.9047      0.36109564     0.056392102    29.360087      3341.271     
      1880   3.76           307.81339      134784.48     -807628.87     -9665.581       0.36106881     0.057205203    29.355061      3340.9391    
      1890   3.78           308.23991      136370.5      -807626.74     -9741.8473      0.36104184     0.057660887    29.358768      3340.6047    
      1900   3.8            308.81472      138690.63     -807624.84     -9810.157       0.36101474     0.058069564    29.351817      3340.2744    
      1910   3.82           321.4349       135818.73     -807628.93     -9737.1263      0.36098748     0.057641623    29.345873      3339.9476    
      1920   3.84           307.48978      133217.68     -807630.24     -9637.238       0.36096009     0.057054636    29.368391      3339.6073    
      1930   3.86           309.33109      130957.48     -807634.62     -9509.3474      0.36093255     0.05630179     29.36444       3339.2694    
      1940   3.88           303.25307      129848.71     -807634.78     -9479.0642      0.36090487     0.056126797    29.348592      3338.9407    
      1950   3.9            313.06924      129390.04     -807636.07     -9484.6621      0.36087705     0.056164273    29.356806      3338.607     
      1960   3.92           297.37818      132621.77     -807632.03     -9547.1124      0.36084909     0.056538459    29.355277      3338.2742    
      1970   3.94           301.47515      136051.08     -807628.15     -9691.0307      0.36082098     0.05739522     29.353803      3337.9422    
      1980   3.96           307.67714      136519.3      -807626.99     -9758.109       0.36079273     0.057797017    29.354404      3337.6101    
      1990   3.98           303.4868       138224.47     -807625.58     -9784.2788      0.36076434     0.057956581    29.359888      3337.2741    
      2000   4              307.19238      134678.1      -807629.93     -9665.6997      0.36073581     0.057258713    29.354146      3336.9416    
      2010   4.02           304.68557      133519.32     -807630.46     -301.12536      0.36070713     0.05708738     29.376471      3336.5964    
      2020   4.04           295.60476      129184.96     -807633.9      -296.41632      0.36067831     0.05619913     29.37661       3336.2512    
      2030   4.06           307.81969      129957.49     -807636.08     -295.8531       0.36064935     0.056096851    29.419411      3335.8821    
      2040   4.08           307.66721      129003.16     -807636.43     -295.54132      0.36062025     0.056042256    29.446752      3335.4982    
      2050   4.1            308.62873      133701.96     -807631.49     -300.52768      0.36059101     0.05699242     29.508593      3335.0807    
      2060   4.12           313.68763      134308.96     -807630.33     -302.37648      0.36056162     0.057347703    29.431221      3334.7063    
      2070   4.14           301.74479      137831.46     -807626.06     -304.88113      0.36053209     0.057827461    29.398644      3334.3501    
      2080   4.16           304.23649      135648.2      -807626.73     -304.50217      0.36050242     0.057760338    29.345482      3334.023     
      2090   4.18           318.96683      135319.73     -807629.98     -303.16188      0.36047261     0.057510858    29.363687      3333.6859    
      2100   4.2            301.43362      131530.73     -807631.73     -298.82054      0.36044265     0.056692002    29.438337      3333.3086    
      2110   4.22           303.56947      131478.55     -807633.69     -296.91515      0.36041256     0.056335215    29.343931      3332.9822    
      2120   4.24           309.14094      129129.93     -807636.35     -294.87374      0.36038232     0.055952583    29.374392      3332.6394    
      2130   4.26           309.27899      132304.12     -807633.7      -297.24771      0.36035193     0.056407801    29.338736      3332.3157    
      2140   4.28           314.44802      131343.11     -807632.62     -298.81392      0.36032141     0.05670982     29.354567      3331.9834    
      2150   4.3            309.08422      135781.11     -807627.82     -302.47917      0.36029075     0.057410309    29.353863      3331.6513    
      2160   4.32           313.54493      136534.53     -807627.33     -303.34038      0.36025994     0.057578688    29.376634      3331.3073    
      2170   4.34           309.87798      137632.16     -807625.87     -303.88835      0.36022899     0.057687659    29.359876      3330.972     
      2180   4.36           318.3029       134987.55     -807628.83     -301.76165      0.36019789     0.057288888    29.407924      3330.6117    
      2190   4.38           316.65847      133928.4      -807630.55     -299.43557      0.36016666     0.056852216    29.458815      3330.2254    
      2200   4.4            311.91492      131745.46     -807633.5      -295.49911      0.36013528     0.056109711    29.363242      3329.8886    
      2210   4.42           316.03342      130982.34     -807633.47     -295.79248      0.36010377     0.056170332    29.417344      3329.524     
      2220   4.44           318.32225      130847.02     -807633.48     -295.90374      0.36007211     0.0561964      29.402525      3329.1673    
      2230   4.46           316.87353      134004.15     -807629.68     -299.29295      0.3600403      0.05684508     29.484366      3328.7692    
      2240   4.48           312.89669      136311.93     -807626.84     -301.46484      0.36000836     0.05726267     29.495311      3328.3662    
      2250   4.5            315.86376      137307.43     -807625.7      -302.88375      0.35997627     0.057537317    29.426267      3327.9984    
      2260   4.52           311.87664      137629.08     -807624.14     -303.77931      0.35994404     0.057712611    29.438936      3327.6245    
      2270   4.54           327.27747      134784.14     -807629.27     -300.67359      0.35991167     0.057127717    29.375525      3327.2824    
      2280   4.56           323.50106      133494.16     -807630.86     -298.51732      0.35987916     0.056723151    29.49672       3326.8804    
      2290   4.58           325.11321      130321.12     -807633.94     -295.6952       0.35984651     0.056192002    29.370831      3326.5409    
      2300   4.6            312.45458      131509.81     -807631.54     -296.32151      0.35981371     0.056316154    29.360803      3326.2064    
      2310   4.62           318.54609      130571.05     -807633.1      -295.70846      0.35978077     0.056204788    29.431142      3325.8375    
      2320   4.64           325.60841      134666.3      -807629.93     -299.8767       0.35974769     0.05700228     29.446886      3325.4611    
      2330   4.66           308.86773      135188.99     -807625.68     -302.00165      0.35971447     0.057411504    29.332389      3325.1405    
      2340   4.68           318.82727      138218.01     -807624.57     -304.53269      0.35968111     0.057898033    29.350565      3324.8111    
      2350   4.7            309.28846      135704.13     -807626.2      -301.74554      0.3596476      0.057373483    29.390328      3324.4623    
      2360   4.72           326.32005      135110.71     -807629.69     -300.63289      0.35961396     0.057167273    29.343354      3324.1362    
      2370   4.74           314.50373      131570.26     -807631.31     -297.55039      0.35958017     0.056586432    29.349368      3323.807     
      2380   4.76           314.6022       131004.35     -807633.54     -295.43362      0.35954624     0.056189179    29.357197      3323.4741    
      2390   4.78           310.67139      129619.46     -807635.48     -293.08527      0.35951216     0.055747825    29.349585      3323.1447    
      2400   4.8            306.5666       132156.79     -807631.78     -296.32928      0.35947795     0.056370232    29.38177       3322.8       
      2410   4.82           310.29344      133621.5      -807628.87     -299.93638      0.35944359     0.057061859    29.361249      3322.465     
      2420   4.84           307.98031      136122.02     -807626.46     -302.10408      0.35940909     0.057479774    29.427453      3322.099     
      2430   4.86           314.05328      136901.21     -807627.02     -302.5365       0.35937446     0.057567595    29.361562      3321.7639    
      2440   4.88           318.87279      136576.58     -807627.09     -303.25344      0.35933967     0.057709602    29.360617      3321.4291    
      2450   4.9            318.59865      134045.74     -807629.36     -300.99449      0.35930475     0.057285289    29.369337      3321.0903    
      2460   4.92           310.49873      132701.2      -807633.04     -296.26241      0.35926969     0.056390181    29.345134      3320.7627    
      2470   4.94           307.8756       129382.56     -807635.71     -293.34106      0.35923448     0.055839608    29.358148      3320.4289    
      2480   4.96           308.29609      130279.42     -807634.6      -294.55319      0.35919913     0.056075865    29.437665      3320.0589    
      2490   4.98           303.2299       131431.22     -807631.57     -296.94526      0.35916364     0.056536843    29.369331      3319.7201    
      2500   5              314.39662      133707.64     -807630.72     -299.38973      0.35912801     0.057007913    29.404343      3319.3655    
[...]
     98740   197.48         315.72105      134469.55     -807627.38     -9674.7853      0.36236891     0.057054242    27.417921      44.494556    
     98750   197.5          321.36539      135467.84     -807627.72     -9682.4474      0.36238762     0.05709648     27.408563      44.141573    
     98760   197.52         321.43457      132395.45     -807629.37     -9629.9517      0.36240618     0.05678401     27.429234      43.788584    
     98770   197.54         331.07903      133795.54     -807630.2      -9643.5088      0.36242459     0.056861061    27.463705      43.435587    
     98780   197.56         324.9274       131952.08     -807630.45     -9610.1133      0.36244287     0.056661294    27.441367      43.082591    
     98790   197.58         332.06763      135072.44     -807629.12     -9685.1692      0.362461       0.057100968    27.42418       42.729596    
     98800   197.6          326.68461      133736.09     -807628.45     -9689.2081      0.36247899     0.057121945    27.427884      42.376598    
     98810   197.62         319.83397      136982.3      -807625.86     -9744.8121      0.36249683     0.057446926    27.425462      42.023598    
     98820   197.64         317.98682      134018.48     -807628.12     -9671.8372      0.36251453     0.057013945    27.386723      41.670602    
     98830   197.66         321.45779      136218.65     -807627.15     -9724.5514      0.36253209     0.057321911    27.396212      41.317602    
     98840   197.68         317.56274      133844.75     -807628.42     -9675.1684      0.36254951     0.05702808     27.439332      40.964592    
     98850   197.7          320.35592      134532.86     -807629.78     -9652.5752      0.36256678     0.056892199    27.418195      40.611584    
     98860   197.72         315.34715      132646.98     -807630.7      -9611.6622      0.36258391     0.056648382    27.395717      40.258577    
     98870   197.74         316.70868      133740.18     -807629.27     -9674.5334      0.3626009      0.057016255    27.398736      39.905567    
     98880   197.76         318.08237      133611.86     -807629.19     -9694.9048      0.36261774     0.057133659    27.410984      39.552552    
     98890   197.78         309.73992      135771.97     -807628.39     -9692.9208      0.36263445     0.057119336    27.39013       39.199539    
     98900   197.8          314.4278       134505.03     -807629.65     -9682.9243      0.362651       0.057057822    27.399926      38.846521    
     98910   197.82         313.20594      134619.86     -807628.51     -9720.3098      0.36266742     0.057275529    27.37776       38.493504    
     98920   197.84         311.38593      134069.13     -807628.83     -9707.7766      0.36268369     0.057199112    27.394757      38.140483    
     98930   197.86         313.29832      133126.65     -807630.94     -9653.4287      0.36269982     0.05687636     27.393431      37.787459    
     98940   197.88         306.73488      133956.67     -807630.88     -9630.1692      0.36271581     0.056736818    27.375797      37.434435    
     98950   197.9          315.76173      132889.7      -807630.8      -9676.3667      0.36273165     0.057006504    27.377247      37.081408    
     98960   197.92         312.97609      134562.52     -807629.53     -9708.4338      0.36274735     0.057192946    27.406954      36.728375    
     98970   197.94         314.28145      133795.14     -807631.68     -9650.3232      0.36276291     0.056848175    27.366446      36.375345    
     98980   197.96         313.23482      134520.7      -807630.05     -9698.6822      0.36277832     0.057130621    27.35843       36.022314    
     98990   197.98         306.45464      133686.93     -807628.69     -9716.6408      0.36279359     0.057233998    27.325328      35.669285    
     99000   198            306.60415      136331.76     -807627.41     -9760.2209      0.36280872     0.057488301    27.335746      35.316251    
     99010   198.02         309.56537      134034.03     -807630.7      -302.23425      0.3628237      0.056963354    27.412044      34.963205    
     99020   198.04         307.23393      135175.87     -807630.06     -302.54223      0.36283855     0.057019068    27.437268      34.610153    
     99030   198.06         300.87468      133734.33     -807629.19     -302.65954      0.36285324     0.057038865    27.467074      34.257095    
     99040   198.08         313.85535      134892.26     -807630.41     -303.27572      0.3628678      0.057152697    27.458062      33.904036    
     99050   198.1          308.57995      132827.75     -807631.9      -301.17262      0.36288221     0.056754111    27.490035      33.550971    
     99060   198.12         307.13597      134743.9      -807629.82     -303.0098       0.36289648     0.057098071    27.486383      33.197904    
     99070   198.14         311.13376      133054.16     -807630.38     -303.1851       0.36291061     0.05712888     27.463592      32.844837    
     99080   198.16         302.78939      135593.05     -807627.57     -304.78362      0.36292459     0.057427876    27.433756      32.491772    
     99090   198.18         310.12212      133824.92     -807631.12     -302.31874      0.36293843     0.056961266    27.434571      32.138705    
     99100   198.2          312.36236      135208.72     -807630.19     -303.59425      0.36295213     0.057199431    27.410627      31.785638    
     99110   198.22         303.60084      133284.45     -807629.71     -302.9228       0.36296568     0.057070795    27.44784       31.432565    
     99120   198.24         311.59094      133297.32     -807630.7      -303.00659      0.36297909     0.057084472    27.479314      31.079485    
     99130   198.26         306.52328      132796.56     -807632.05     -301.0471       0.36299236     0.056713243    27.507098      30.7264      
     99140   198.28         301.88823      134195.88     -807630.02     -302.47598      0.36300548     0.056980365    27.498429      30.373314    
     99150   198.3          306.77362      134105        -807629.89     -303.31947      0.36301846     0.057137218    27.462686      30.02023     
     99160   198.32         310.8881       134797.8      -807629.51     -304.22727      0.3630313      0.057306198    27.440091      29.667146    
     99170   198.34         302.17639      134864.69     -807629.41     -303.14723      0.36304399     0.057100758    27.395266      29.314065    
     99180   198.36         303.40366      135415.46     -807628.79     -303.94933      0.36305655     0.057249861    27.427623      28.960978    
     99190   198.38         306.35861      134498.62     -807628.23     -304.92056      0.36306895     0.057430833    27.448845      28.607886    
     99200   198.4          312.77618      132901.22     -807631.46     -302.5841       0.36308122     0.056988843    27.470336      28.25479     
     99210   198.42         309.27651      133784.66     -807631.55     -301.98935      0.36309334     0.056874929    27.448445      27.901693    
     99220   198.44         304.92069      133056.13     -807630.8      -302.1791       0.36310532     0.056908787    27.486958      27.548591    
     99230   198.46         309.40187      134376.82     -807629.75     -303.7957       0.36311715     0.057211373    27.500431      27.195485    
     99240   198.48         302.91825      132853.35     -807630.66     -301.98153      0.36312885     0.056867895    27.414043      26.842386    
     99250   198.5          309.33037      135068.73     -807629.56     -303.85218      0.3631404      0.057218347    27.414012      26.489284    
     99260   198.52         299.03584      134190.24     -807628.09     -303.89258      0.3631518      0.057224157    27.420748      26.136179    
     99270   198.54         305.19582      136269.6      -807627.58     -305.1285       0.36316306     0.057455105    27.421446      25.783072    
     99280   198.56         312.21505      132637.82     -807632.29     -301.40019      0.36317418     0.056751333    27.369005      25.429968    
     99290   198.58         311.46203      135480.95     -807630.19     -303.12526      0.36318516     0.057074426    27.406681      25.076857    
     99300   198.6          312.88201      131733.99     -807631.23     -302.31944      0.36319599     0.056921003    27.466205      24.723739    
     99310   198.62         304.65035      135343.22     -807628.83     -303.34413      0.36320668     0.057112252    27.469029      24.370618    
     99320   198.64         311.17735      132384.77     -807631.46     -301.52915      0.36321723     0.056768888    27.47856       24.017494    
     99330   198.66         315.73714      135860.76     -807628.51     -304.84745      0.36322763     0.05739198     27.455013      23.66437     
     99340   198.68         315.4504       133781.66     -807629.32     -303.96566      0.36323789     0.057224354    27.413025      23.311247    
     99350   198.7          311.26789      137062.78     -807627.55     -304.8733       0.36324801     0.057393626    27.418647      22.958122    
     99360   198.72         316.14885      133163.4      -807630.57     -302.47774      0.36325798     0.05694109     27.388642      22.604997    
     99370   198.74         308.02783      135226.22     -807628.06     -303.62739      0.36326781     0.057155963    27.443205      22.251865    
     99380   198.76         325.01841      132547.7      -807631.17     -302.76256      0.3632775      0.056991644    27.511364      21.898725    
     99390   198.78         304.8055       134306.2      -807627.98     -302.95467      0.36328704     0.057026309    27.495361      21.545584    
     99400   198.8          311.36201      133580.54     -807629.86     -301.84241      0.36329644     0.056815473    27.460026      21.192444    
     99410   198.82         314.00367      134744.37     -807628.91     -303.06402      0.3633057      0.057043963    27.460405      20.839301    
     99420   198.84         305.89897      135444.64     -807626.76     -303.96755      0.36331481     0.057212593    27.428821      20.486159    
     99430   198.86         330.54901      133432.39     -807630.11     -303.96669      0.36332378     0.057211019    27.439702      20.133014    
     99440   198.88         312.86685      136183.92     -807627.16     -304.24733      0.36333261     0.057262448    27.374305      19.779871    
     99450   198.9          322.98929      133863.14     -807629.98     -302.82278      0.36334129     0.056992971    27.360971      19.426727    
     99460   198.92         309.95853      136441.82     -807625.59     -305.30263      0.36334983     0.057458343    27.424886      19.073576    
     99470   198.94         317.46575      133173.77     -807629.5      -302.51884      0.36335823     0.056933114    27.442732      18.720421    
     99480   198.96         322.22426      135187.88     -807629.13     -303.44688      0.36336648     0.057106471    27.44007       18.367264    
     99490   198.98         300.43383      132178.72     -807628.48     -301.19447      0.3633746      0.056681319    27.429899      18.014106    
     99500   199            324.95134      135864.48     -807627.71     -305.36142      0.36338256     0.057464232    27.460084      17.660943    
     99510   199.02         322.76206      132924.29     -807629.74     -9703.3923      0.36339039     0.057062093    27.363439      17.307784    
     99520   199.04         317.96232      137466.24     -807627.78     -9743.5058      0.36339807     0.057296775    27.351657      16.954624    
     99530   199.06         313.53748      133637        -807629.91     -9665.797       0.3634056      0.056838628    27.393824      16.601458    
     99540   199.08         317.22677      136965.05     -807626.78     -9786.3759      0.363413       0.057546508    27.416028      16.248289    
     99550   199.1          306.98548      132700.83     -807629.06     -9678.8346      0.36342025     0.056913001    27.348883      15.895122    
     99560   199.12         318.08158      135450.79     -807630.63     -9682.3705      0.36342736     0.056932679    27.349118      15.541952    
     99570   199.14         304.76312      132534.38     -807629.99     -9658.6594      0.36343432     0.056792168    27.350743      15.188779    
     99580   199.16         317.47366      136377.74     -807628.25     -9778.4742      0.36344114     0.057495591    27.339311      14.835604    
     99590   199.18         316.52196      133064.3      -807630.84     -9704.309       0.36344782     0.057058466    27.355179      14.482427    
     99600   199.2          316.83298      135380.06     -807630.84     -9714.5206      0.36345435     0.05711748     27.336968      14.129247    
     99610   199.22         302.49219      133767.72     -807629.78     -9697.3961      0.36346074     0.057015793    27.318801      13.776066    
     99620   199.24         303.96643      135620.69     -807627.68     -9778.3459      0.36346699     0.057490748    27.363607      13.42288     
     99630   199.26         302.52408      132283.21     -807631.14     -9669.8538      0.3634731      0.056851926    27.404405      13.06969     
     99640   199.28         307.55899      133386.58     -807631.92     -9670.4374      0.36347906     0.056854424    27.419787      12.716497    
     99650   199.3          302.78109      133561.52     -807630.54     -9700.5063      0.36348487     0.057030293    27.40226       12.363302    
     99660   199.32         307.78084      134221.85     -807629.44     -9761.8207      0.36349055     0.057389871    27.410957      12.010104    
     99670   199.34         310.41357      133778.18     -807631.56     -9709.4536      0.36349608     0.057081135    27.422055      11.656903    
     99680   199.36         300.86084      134613.21     -807630.93     -9689.8918      0.36350147     0.056965289    27.400854      11.303701    
     99690   199.38         306.44505      134963.54     -807628.78     -9786.3061      0.36350671     0.057531263    27.422381      10.950496    
     99700   199.4          301.39977      133587.7      -807629.11     -9755.2087      0.36351181     0.057347644    27.402333      10.59729     
     99710   199.42         297.5016       135000.87     -807629.71     -9716.1389      0.36351677     0.057117187    27.37754       10.244082    
     99720   199.44         308.60697      132199.74     -807633.53     -9643.7572      0.36352158     0.056690934    27.423085      9.8908695    
     99730   199.46         302.5432       134738.14     -807629.78     -9736.0591      0.36352625     0.057232796    27.401106      9.5376559    
     99740   199.48         309.31488      131891.21     -807631.36     -9716.9991      0.36353078     0.057120042    27.396188      9.18444      
     99750   199.5          298.89504      135185.64     -807629.69     -9718.9298      0.36353516     0.057130702    27.408827      8.8312214    
     99760   199.52         304.25416      132343.39     -807632.16     -9665.1524      0.3635394      0.05681392     27.395659      8.4780009    
     99770   199.54         306.72769      135313.68     -807627.87     -9809.8739      0.3635435      0.057663976    27.386835      8.1247782    
     99780   199.56         309.08684      133443.38     -807629.68     -9762.6035      0.36354745     0.057385489    27.354568      7.7715542    
     99790   199.58         315.51748      134355.25     -807631.47     -9725.8206      0.36355126     0.057168676    27.377849      7.418327     
     99800   199.6          307.1215       132370.72     -807632.6      -9652.701       0.36355493     0.056738305    27.374012      7.0650975    
     99810   199.62         305.94677      135050.54     -807629.97     -9727.6231      0.36355845     0.057178141    27.354066      6.7118661    
     99820   199.64         302.09919      132593.82     -807630.58     -9690.3868      0.36356183     0.056958739    27.368366      6.3586318    
     99830   199.66         311.66167      134283.87     -807631.43     -9698.5651      0.36356507     0.057006303    27.36912       6.0053951    
     99840   199.68         307.55211      133618.09     -807631.47     -9676.0389      0.36356816     0.056873414    27.407636      5.6521552    
     99850   199.7          306.78745      136021.32     -807628.09     -9776.3251      0.36357111     0.057462406    27.357359      5.2989139    
     99860   199.72         313.78847      134122.55     -807629.24     -9765.961       0.36357392     0.057401046    27.331546      4.9456707    
     99870   199.74         309.95391      135373.95     -807629.69     -9729.141       0.36357658     0.057184211    27.299076      4.5924255    
     99880   199.76         306.37075      132945.05     -807629.93     -9700.6859      0.3635791      0.057016567    27.328546      4.2391772    
     99890   199.78         319.02931      133328.25     -807630.28     -9739.0552      0.36358148     0.057241712    27.361212      3.8859259    
     99900   199.8          310.1854       133151.6      -807630.28     -9695.4179      0.36358371     0.056984882    27.388752      3.5326717    
     99910   199.82         308.00752      134333.96     -807630.43     -9674.93        0.3635858      0.056864137    27.379828      3.1794154    
     99920   199.84         316.9096       133668.16     -807631.19     -9684.3494      0.36358775     0.056919195    27.400543      2.8261563    
     99930   199.86         317.57505      133998.91     -807629.23     -9744.7232      0.36358955     0.057273755    27.389751      2.4728951    
     99940   199.88         316.03189      134728.85     -807628.85     -9746.6674      0.36359121     0.05728492     27.406407      2.1196313    
     99950   199.9          305.53913      135282.55     -807628.91     -9691.0283      0.36359273     0.05695767     27.421481      1.7663651    
     99960   199.92         310.36806      134981.62     -807628.71     -9715.7015      0.3635941      0.057102468    27.38688       1.4130969    
     99970   199.94         323.98687      134050.08     -807629.94     -9733.2922      0.36359533     0.057205661    27.347539      1.0598264    
     99980   199.96         310.84216      134825.89     -807628.3      -9723.3195      0.36359641     0.057146877    27.355601      0.70655337   
     99990   199.98         323.30657      133110.64     -807631.56     -9670.4147      0.36359736     0.056835793    27.401602      0.35327785   
    100000   200            315.63754      133613.86     -807629.47     -9700.3561      0.36359816     0.057011642    27.373858      0            
Loop time of 3532.79 on 32 procs for 100000 steps with 1080 atoms

Performance: 4.891 ns/day, 4.907 hours/ns, 28.306 timesteps/s, 30.571 katom-step/s
62.7% CPU use with 32 MPI tasks x 1 OpenMP threads

MPI task timing breakdown:
Section |  min time  |  avg time  |  max time  |%varavg| %total
---------------------------------------------------------------
Pair    | 2509.8     | 2804.7     | 3038.6     | 217.8 | 79.39
Neigh   | 0.001667   | 0.0033287  | 0.0065737  |   3.5 |  0.00
Comm    | 420.21     | 654.08     | 948.88     | 451.0 | 18.51
Output  | 2.3546     | 2.3641     | 2.3711     |   0.3 |  0.07
Modify  | 65.365     | 65.59      | 65.974     |   1.3 |  1.86
Other   |            | 6.092      |            |       |  0.17

Nlocal:          33.75 ave          45 max          25 min
Histogram: 2 0 5 6 7 6 1 4 0 1
Nghost:        1043.06 ave        1055 max        1025 min
Histogram: 1 1 1 3 3 4 8 4 2 5
Neighs:              0 ave           0 max           0 min
Histogram: 32 0 0 0 0 0 0 0 0 0
FullNghs:      5335.06 ave        7173 max        3932 min
Histogram: 2 2 4 7 7 4 1 4 0 1

Total # of neighbors = 170722
Ave neighs/atom = 158.07593
Neighbor list builds = 4
Dangerous builds = 0

Total wall time: 1:02:27
