
units		metal
atom_style	atomic

read_data ${STRUCTURE}.data
read_data BaTiO3-sc333.data
Reading data file ...
  orthogonal box = (0 0 0) to (11.898253 11.898253 12.912076)
  4 by 4 by 4 MPI processor grid
  reading atoms ...
  135 atoms
  read_data CPU = 0.073 seconds
replicate $L $L $L
replicate 2 $L $L
replicate 2 2 $L
replicate 2 2 2
Replication is creating a 2x2x2 = 8 times larger system...
  orthogonal box = (0 0 0) to (23.796507 23.796507 25.824152)
  4 by 4 by 4 MPI processor grid
  1080 atoms
  replicate CPU = 0.005 seconds

pair_style allegro
pair_coeff	* * ${MODEL}.pth Ba Ti O
pair_coeff	* * BaTiO3-E0.pth Ba Ti O
mass 1 137.3
mass 2 47.9
mass 3 15.9994

timestep 0.002
compute polarization all allegro polarization 3
compute allegro will evaluate the quantity polarization of length 3 (src/compute_allegro.cpp:53)
compute polarizability all allegro polarizability 9
compute allegro will evaluate the quantity polarizability of length 9 (src/compute_allegro.cpp:53)

thermo_style custom pe fmax fnorm spcpu cpuremain

variable efield equal 1e-2*36.36
fix born all addbornforce 0.0 0.0 ${efield}
fix born all addbornforce 0.0 0.0 0.3636

thermo 10
min_style fire
#minimize 0.0 1e-6 100 100
velocity all create ${TEMP} 126342 dist gaussian rot yes mom yes
velocity all create 290 126342 dist gaussian rot yes mom yes
fix nvt all nvt temp ${TEMP} ${TEMP} $(100*dt)
fix nvt all nvt temp 290 ${TEMP} $(100*dt)
fix nvt all nvt temp 290 290 $(100*dt)
fix nvt all nvt temp 290 290 0.2000000000000000111
run 5000
Neighbor list info ...
  update: every = 1 steps, delay = 0 steps, check = yes
  max neighbors/atom: 2000, page size: 100000
  master list distance cutoff = 8
  ghost atom cutoff = 8
  binsize = 8, bins = 3 3 4
  1 neighbor lists, perpetual/occasional/extra = 1 0 0
  (1) pair allegro/kk, perpetual
      attributes: full, newton on, kokkos_device
      pair build: full/bin/kk/device
      stencil: full/bin/3d
      bin: kk/device
Per MPI rank memory allocation (min/avg/max) = 3.592 | 3.592 | 3.592 Mbytes
    PotEng          Fmax          Fnorm          S/CPU         CPULeft    
-807708.43      1.5955989      37.032947      0              0            
-807647.9       3.0571468      45.193761      2.4016966      2077.6989    
-807637.8       2.4357997      35.25205       35.412111      1107.0825    
-807610.57      2.739166       36.751018      35.90934       782.70766    
-807607.29      3.9371169      49.407258      35.873649      620.41535    
-807569.6       3.2482558      38.980531      35.867862      522.93292    
-807601.62      2.5919528      38.194009      35.883053      457.84199    
-807647.01      3.3108495      31.864605      35.888459      411.26588    
-807686.3       2.3389858      32.919791      35.893353      376.2618     
-807669.48      3.2037244      33.295574      35.922358      348.96223    
-807655.12      3.1388081      33.682509      35.924071      327.06623    
-807663.27      2.3170774      26.193077      35.957767      309.08911    
-807632.48      2.3481193      29.19589       35.905162      294.07842    
-807588.61      2.8397898      38.559432      35.951988      281.32062    
-807570.31      2.6175457      36.813429      35.976523      270.33904    
-807632.9       3.4759748      32.875682      35.934565      260.79511    
-807655.41      2.7423178      29.221465      35.966862      252.40182    
-807666.38      3.3414164      33.068793      35.952331      244.96646    
-807648.28      4.3084284      43.940452      35.947728      238.32729    
-807683.34      2.8189629      35.448654      35.971868      232.35299    
-807644.55      3.4857569      38.281448      35.93443       226.95526    
-807619.78      2.9570702      37.865117      35.967007      222.03935    
-807565.01      3.6235696      44.492708      35.955609      217.54698    
-807608.15      3.7993257      48.622187      35.892795      213.43116    
-807614.5       3.741105       37.35642       35.859409      209.64025    
-807642.25      2.7891526      34.752258      35.97373       206.11347    
-807644.87      4.4686859      44.072149      35.991707      202.83406    
-807685.4       2.9465172      36.729331      35.936603      199.78446    
-807664.2       4.2056495      34.275017      35.880248      196.94018    
-807641.13      2.870972       30.80827       35.961478      194.26261    
-807610.74      3.3091946      32.470099      35.962671      191.74485    
-807609.96      3.6478256      40.882969      35.933239      189.37505    
-807598.5       2.8899706      34.744712      35.849901      187.14542    
-807610.97      2.3124784      31.223316      35.972926      185.02051    
-807644.3       3.1046155      28.77473       35.936342      183.00813    
-807677.2       2.2226223      29.970859      35.989002      181.08943    
-807678.71      2.1538698      31.004752      35.902992      179.27047    
-807647.71      3.9439427      36.11208       35.94272       177.53092    
-807652.18      3.2000584      29.126465      35.984326      175.86437    
-807626.69      3.5885211      32.027122      35.950354      174.27214    
-807604.18      3.7964333      41.387387      35.902947      172.74984    
-807572.46      3.860206       39.90326       36.019603      171.27811    
-807628.36      2.8957743      33.761936      35.986894      169.86598    
-807651.99      3.8893449      33.23689       35.946149      168.50997    
-807675.15      2.6854759      33.323897      35.957487      167.20204    
-807644.04      4.6344893      45.379105      35.960521      165.93965    
-807671.45      3.1152386      34.016355      35.995344      164.71739    
-807646.27      3.7449224      35.271453      35.918636      163.54104    
-807627.01      3.5410333      36.627825      35.96557       162.39868    
-807568.46      4.2734087      42.385355      35.940446      161.2934     
-807605.64      3.7413534      42.947903      35.915132      160.22295    
-807624.33      3.5395358      34.530355      35.91433       159.18362    
-807656.04      2.7325274      31.380819      35.961262      158.17043    
-807643.36      4.4839379      41.292866      35.985104      157.18342    
-807677.5       2.3974808      32.69714       35.946004      156.22517    
-807666.89      2.7944563      31.952292      35.905432      155.2942     
-807646.02      2.6590243      28.730168      35.991056      154.38127    
-807604.49      3.2288154      32.715656      35.946591      153.4933     
-807603.89      3.0999615      36.577035      35.986605      152.62399    
-807608.64      3.9523837      36.755775      35.913357      151.77898    
-807622.65      2.9408186      30.014714      35.951754      150.95066    
-807639.5       3.0343453      30.773783      35.974019      150.13915    
-807668.6       2.8885701      30.856054      35.916411      149.348      
-807678.94      2.6115311      33.446722      35.935187      148.57211    
-807648.72      4.5338945      36.52126       35.947168      147.81115    
-807638.26      2.7841046      31.805012      35.948676      147.06496    
-807616.75      3.9466843      34.139843      35.936288      146.33358    
-807608.17      3.8768813      43.758165      35.914258      145.61683    
-807580.6       4.1240399      40.327078      35.961632      144.91064    
-807621.61      3.8093924      35.266551      35.946672      144.21759    
-807647.88      3.7362423      36.448961      35.994258      143.53413    
-807677.62      2.8994478      35.052354      35.910313      142.86602    
-807648.69      4.7528692      42.534159      35.904694      142.20899    
-807657.41      2.9709336      34.451297      35.911258      141.56203    
-807643.57      3.8016291      34.296826      35.966375      140.92258    
-807627.89      3.6745459      37.416715      35.966311      140.29277    
-807575.89      3.6665064      39.135179      35.990196      139.67118    
-807597.22      3.3870009      39.228553      35.963339      139.05966    
-807629.69      3.192062       31.572985      35.987012      138.45571    
-807663.2       2.3287876      29.99378       35.930029      137.86235    
-807649.95      3.4542178      36.659334      35.936585      137.27661    
-807664.01      2.7257041      33.282213      35.990431      136.69631    
-807666.82      2.6076871      31.092786      35.917762      136.12625    
-807647.12      3.4123204      29.483442      35.951284      135.56191    
-807604.35      2.9271802      33.899009      35.980971      135.00325    
-807591.52      3.7127744      36.649599      35.979018      134.45126    
-807611.77      3.5724629      37.311272      35.965254      133.90616    
-807631.32      2.5994437      29.622388      35.943207      133.36801    
-807642.71      3.4731122      31.544745      35.99548       132.83388    
-807657.76      3.221353       34.133779      35.968534      132.30647    
-807675.86      2.7972205      34.254818      35.948206      131.78532    
-807652.49      3.8966542      35.303434      35.910727      131.27081    
-807633.09      2.9176906      32.643176      35.965363      130.75956    
-807606.69      4.0528436      36.053367      35.958552      130.25355    
-807609.44      3.8998068      43.537377      35.909952      129.75402    
-807598.08      4.0228451      36.29778       35.914168      129.259      
-807621.44      3.3155065      34.053         35.949578      128.76734    
-807644.66      3.1892841      34.512333      35.851624      128.28324    
-807675.23      2.5845615      34.560059      35.910709      127.80144    
-807658.17      3.2611663      36.564992      35.893686      127.32429    
-807649.9       2.847087       33.029243      35.925927      126.8501     
-807636.5       3.6313629      32.501577      35.914636      126.38015    
-807627.06      3.4568278      36.488969      35.924287      125.91365    
-807591.02      3.0396824      36.852544      35.863307      125.45263    
-807596.68      2.9261138      36.969162      35.875555      124.99475    
-807630.32      2.9416267      31.100838      35.927559      124.53877    
-807664.52      2.7378606      30.74803       35.957749      124.08527    
-807660.81      3.3521294      33.380849      35.951718      123.63522    
-807655.88      3.3813724      33.911519      35.931553      123.18892    
-807660.95      2.2195868      29.976272      35.952024      122.74514    
-807645.02      2.5106722      29.463978      35.933699      122.30486    
-807610.6       2.7930574      33.570989      35.940942      121.86731    
-807585.2       3.0041138      36.749456      35.920961      121.43315    
-807614.1       3.3092354      34.819966      35.956891      121.00078    
-807638.25      4.222678       31.931352      35.967919      120.57084    
-807651.82      3.0645267      31.933563      35.91297       120.14496    
-807651.11      4.8394566      38.129665      35.957324      119.72048    
-807671.27      3.0263903      33.795583      35.942629      119.29888    
-807653.66      3.87185        34.841801      35.949768      118.87953    
-807632.53      2.7684085      32.869053      35.924684      118.46317    
-807596.54      3.6172478      37.152823      36.020156      118.04678    
-807607.73      4.3913191      40.071142      35.964541      117.63403    
-807610.04      4.1081842      35.070698      35.987003      117.22295    
-807631.94      3.2648701      31.565366      35.955816      116.81477    
-807642.69      4.4537895      34.915401      36.049149      116.4065     
-807671.77      2.4568355      32.76798       35.797441      116.00619    
-807662.59      2.7449969      33.451547      35.891283      115.60562    
-807648.96      3.1797621      31.688248      35.985881      115.20482    
-807625.09      3.2880811      32.784915      35.935575      114.80708    
-807618.97      3.6663184      36.145573      35.925576      114.41141    
-807600.4       2.9609926      36.88605       35.911006      114.01786    
-807604.02      2.9044198      35.927393      35.907377      113.62615    
-807627.26      3.6123403      33.163158      35.945499      113.23534    
-807660.55      3.1038528      33.034576      35.77306       112.84992    
-807664.06      3.0139288      34.535397      35.912069      112.46312    
-807652.36      4.2981597      35.687798      35.963827      112.07684    
-807648.18      3.0639184      32.296322      35.905117      111.69337    
-807637.43      3.2302338      32.231695      35.87071       111.31215    
-807613.92      3.3759272      35.1128        35.940654      110.93098    
-807586.08      3.4072578      38.216145      35.849461      110.55313    
-807611.23      2.8697989      34.784177      35.932743      110.17504    
-807640.39      3.4881713      32.386083      35.927793      109.79845    
-807658.71      2.9329082      31.975365      35.908286      109.42363    
-807649.56      5.0218552      37.252254      35.88809       109.05055    
-807661.2       2.8711499      33.51019       35.910547      108.67836    
-807651.44      4.1624993      33.862925      35.875959      108.30811    
-807634.03      2.8842506      32.469246      35.939797      107.93791    
-807594.27      4.0379043      36.911669      35.920718      107.56932    
-807600.32      4.5756705      39.037728      35.893875      107.20245    
-807617.13      3.3982674      34.549011      35.945147      106.83582    
-807641.66      2.5422993      31.540991      35.95142       106.47026    
-807642.78      3.6718554      35.536266      35.960882      106.10568    
-807663.33      2.6605451      33.68777       35.917465      105.74302    
-807661.74      2.978334       33.796194      35.883449      105.38206    
-807647.7       3.9770218      31.666023      35.90862       105.02172    
-807616.69      4.6734772      34.475331      35.935936      104.66197    
-807608.98      3.4034072      36.504785      35.983729      104.30245    
-807604.35      3.7321084      37.625189      35.897609      103.94542    
-807615.41      3.0161298      33.895095      35.954724      103.58844    
-807630.48      3.8984588      32.871952      35.967043      103.23223    
-807655.98      3.0719309      32.700624      35.962273      102.87709    
-807666.62      2.7552872      33.701553      35.940049      102.52326    
-807654.42      3.6950991      33.95593       35.95262       102.17016    
-807639.66      3.6125887      32.851847      35.928731      101.81837    
-807630.64      3.1801426      32.212393      35.941853      101.46726    
-807613.35      3.3741633      36.800403      35.963547      101.1167     
-807596.47      2.8014434      36.106711      35.960214      100.76706    
-807611.53      2.747687       33.933092      35.871313      100.41965    
-807641.52      2.493231       31.225971      35.945914      100.07192    
-807662.41      2.4236589      32.082378      35.9542        99.724882    
-807654.17      3.1352717      34.694346      35.944516      99.378802    
-807653.28      3.6020238      33.004336      35.939178      99.033596    
-807648.19      2.3668809      31.059328      35.81822       98.690958    
-807632.94      2.6384534      32.247589      35.914415      98.347642    
-807600.11      3.0151936      35.063362      35.853406      98.005959    
-807600.63      3.4444536      36.033715      35.886492      97.664515    
-807622.84      3.4028251      33.229057      35.872521      97.323986    
-807647.96      3.1560645      31.794819      35.871101      96.984174    
-807648.75      5.1034964      34.743697      35.989015      96.643395    
-807656.22      2.9774691      34.596549      35.924129      96.30422     
-807659.39      3.1320441      32.990772      35.838957      95.966896    
-807646.69      3.4105308      31.906988      35.943057      95.628792    
-807617.86      3.3320965      32.876138      35.983552      95.2908      
-807604.32      2.8208073      34.584477      35.88133       94.954836    
-807610.42      3.6674755      35.654404      35.923191      94.618935    
-807627.08      3.1522675      32.16619       35.859018      94.284506    
-807635.88      3.5974611      32.24197       35.828563      93.951074    
-807653.21      3.4403268      32.561476      35.836697      93.618116    
-807664.45      2.6479792      32.7941        35.937581      93.284433    
-807653.81      3.1102587      32.449999      35.831979      92.952685    
-807637         3.072248       31.560596      36.005359      92.619299    
-807620.06      2.8633856      32.641695      35.986066      92.286737    
-807613.04      3.3375277      35.940917      35.775665      91.957366    
-807606.07      3.1423119      36.038151      35.920208      91.626722    
-807618.67      3.8728216      33.385196      35.929727      91.296501    
-807639.15      3.963147       33.905281      35.874615      90.967481    
-807659.69      3.1191261      33.636668      35.811358      90.639738    
-807654.73      3.2522145      34.841959      35.863877      90.311857    
-807647.51      3.0118143      34.07075       35.90684       89.983963    
-807638.07      3.395278       32.886838      35.923119      89.656375    
-807626.48      2.8600584      34.304196      35.880926      89.32977     
-807604.82      4.2337825      35.762593      35.783846      89.004767    
-807603.04      4.1839346      35.893821      35.878345      88.679128    
-807624.57      3.2944037      33.244531      35.909713      88.353596    
-807648.06      2.5938157      31.496425      35.871173      88.028959    
-807653.44      3.027316       33.066898      35.848729      87.705021    
-807650.11      3.5298146      34.952903      35.879217      87.381181    
-807651.19      3.3484294      32.842145      35.907282      87.05747     
-807642.29      2.7672054      32.074876      35.900655      86.734265    
-807617.34      3.0770606      34.491053      35.8743        86.411771    
-807601.78      3.3214378      36.849831      35.862583      86.089821    
-807610.24      3.3802146      36.150431      35.803567      85.768908    
-807630.95      3.5779766      33.421994      35.864497      85.447744    
-807643.4       3.2429505      32.356297      35.887374      85.126737    
-807649.84      2.9978685      33.977188      35.958213      84.805394    
-807657.86      3.0148475      33.266265      35.884334      84.485211    
-807651.9       3.1233879      32.380779      35.968258      84.164557    
-807633.99      3.2599253      32.470153      35.841236      83.845581    
-807612.64      2.5410662      33.342285      35.886843      83.526514    
-807609.91      3.1132625      35.608279      35.876898      83.207914    
-807612.4       3.5159723      35.771143      35.931503      82.889138    
-807628.2       3.2700318      32.679996      35.951117      82.570537    
-807641.24      3.0680517      33.002945      35.953437      82.252277    
-807657.42      2.7000321      33.274446      35.980432      81.934118    
-807657         4.2829589      33.163399      35.936454      81.616737    
-807646.22      2.9551467      32.534221      35.942543      81.299647    
-807629.98      4.0209229      32.736894      35.924417      80.98307     
-807619.64      3.7196445      34.056452      35.940233      80.666683    
-807609.3       4.3953429      35.364561      35.891098      80.351085    
-807610.93      3.2567966      34.925463      35.944341      80.035321    
-807628.38      4.2920545      33.363898      35.873837      79.720526    
-807649.29      3.1231984      32.593091      35.923466      79.405595    
-807655.84      3.024602       33.703091      35.88745       79.091301    
-807651.44      3.6631421      33.749258      35.912356      78.777092    
-807644.31      3.2054645      32.702308      35.89337       78.463356    
-807634.79      2.6739068      31.440324      35.920023      78.149685    
-807619.57      3.1376655      33.412153      35.887756      77.836594    
-807603.92      2.9908767      35.299246      35.908907      77.523611    
-807615.95      3.5798136      33.839743      35.944533      77.210615    
-807635.68      3.2604109      32.003652      35.925187      76.898073    
-807650.23      3.2613721      31.826731      35.952863      76.585584    
-807649.59      3.6002225      34.034613      35.878314      76.274       
-807653.85      3.0833464      33.023889      35.906016      75.96246     
-807647.33      3.6699712      32.133472      35.891354      75.651311    
-807632.44      3.2887597      32.527127      35.957558      75.339891    
-807610.48      3.1041922      34.161793      35.812724      75.029914    
-807609.52      3.5392897      35.484034      35.941113      74.719157    
-807622.11      2.8870185      32.62181       35.849029      74.409394    
-807636.71      3.0938588      31.991665      35.828469      74.100044    
-807645.49      3.0254621      32.139167      35.940102      73.790062    
-807656.32      2.9905968      32.457856      35.954308      73.480224    
-807655.42      2.8113282      32.253457      35.868822      73.171296    
-807644.38      3.3787642      31.429046      35.932535      72.862121    
-807625.79      3.0502909      31.864199      35.839885      72.553893    
-807614.76      2.9087809      34.635933      35.94455       72.245107    
-807612.47      3.6081451      34.939484      35.909267      71.936825    
-807619.23      3.2317666      33.052035      35.943368      71.628523    
-807633.94      3.5492372      32.036941      35.929947      71.320553    
-807649.37      3.9154483      32.610968      35.890734      71.013099    
-807656.86      2.9188322      33.05049       35.915104      70.705691    
-807648.91      3.1236291      33.557416      35.930182      70.398398    
-807639.81      3.2140056      32.322938      35.864923      70.091792    
-807626.78      2.7765525      32.493446      35.882306      69.785274    
-807617.37      2.7870948      34.625059      35.929415      69.478639    
-807608.04      2.9290783      34.927142      35.950119      69.172075    
-807619.72      2.8539697      32.776253      35.956709      68.86568     
-807637.88      2.4314076      31.306634      35.985446      68.559302    
-807652.22      2.9150058      32.215341      35.92142       68.253571    
-807650.55      3.5373622      32.654034      35.912077      67.948105    
-807647.53      2.9241749      32.715991      35.889834      67.642989    
-807640.97      3.3475776      31.902867      35.768796      67.338872    
-807629.23      4.1531069      32.715851      35.914851      67.033976    
-807609.61      3.0889268      34.069183      35.84177       66.72975     
-807609.09      3.0284888      35.097512      35.949144      66.425016    
-807622.92      3.8397923      34.068449      35.895008      66.120822    
-807640.44      2.564789       32.302404      35.950344      65.816463    
-807645.74      2.8557874      33.310555      35.886884      65.512693    
-807651.22      3.363159       33.634773      35.919519      65.208901    
-807650.78      3.6597203      32.663476      35.878952      64.905543    
-807642.04      3.4311846      31.52896       35.798899      64.602855    
-807621.79      3.2112804      33.108027      35.904089      64.299691    
-807608.92      3.177329       34.575187      35.887819      63.9968      
-807613.14      3.2425386      35.157242      35.947059      63.693727    
-807625.56      3.5588887      33.138177      35.861986      63.391336    
-807635.83      2.8821921      32.991352      35.799776      63.089479    
-807648.05      3.2021891      33.160868      35.906592      62.787153    
-807656.08      2.9693694      33.074702      35.918546      62.484924    
-807649.15      3.9621092      33.006285      35.912572      62.182896    
-807635.08      3.218041       32.480999      35.905962      61.881069    
-807619.96      2.8524247      34.0057        35.958037      61.579109    
-807613.34      3.3265079      35.627669      35.941519      61.277406    
-807612.92      2.7510011      33.938219      35.952637      60.975803    
-807623.34      2.7967767      32.231956      35.930146      60.674484    
-807641.61      2.8126576      30.933062      35.963365      60.373141    
-807654.01      3.1773049      31.792852      35.928315      60.072147    
-807652.41      2.5708323      31.959173      35.842424      59.771769    
-807646         3.095301       31.36588       35.920951      59.471116    
-807635.23      3.1363001      31.476061      35.912708      59.170656    
-807624.47      2.853605       32.857181      35.892803      58.870448    
-807611.84      2.6706187      33.807281      35.769324      58.571032    
-807612.21      3.2212103      34.468359      35.868301      58.271233    
-807629.62      3.0744333      31.964576      35.861995      57.971607    
-807646.52      3.6673589      32.533247      35.899705      57.671925    
-807650.65      2.8192917      32.907005      35.909231      57.372336    
-807649.33      3.3622715      32.845265      35.95289       57.072667    
-807646.92      2.865753       32.707712      35.926648      56.77327     
-807637.97      3.135186       32.038786      35.97588       56.473768    
-807618.34      3.5406733      34.256826      35.952448      56.174521    
-807609.85      2.9126888      34.180211      36.013659      55.875116    
-807618.02      3.1530731      33.433425      35.91114       55.576342    
-807634.62      3.6024936      31.501541      35.933635      55.277591    
-807642.69      2.8337023      31.085632      35.884167      54.979206    
-807648.48      2.7321429      32.017266      35.883178      54.680951    
-807654.27      2.6353007      31.516922      35.876884      54.382851    
-807648.36      2.9482054      31.272242      35.906592      54.084738    
-807632.37      2.8992111      31.073401      35.946509      53.786567    
-807617.57      2.7172782      33.290256      35.975311      53.488394    
-807616.62      2.9634295      34.015649      35.898085      53.190692    
-807621.8       2.7731152      32.724068      35.969256      52.892796    
-807631.53      3.1527019      31.514735      35.896717      52.595343    
-807643.05      3.178231       31.970116      35.966057      52.297706    
-807653.34      3.5632757      32.544716      35.918861      52.000395    
-807653.25      3.0017149      31.654113      35.959021      51.70303     
-807643.03      3.7325498      31.193369      35.935683      51.405883    
-807629.7       2.9798331      30.997006      35.949677      51.108793    
-807622.1       3.2357468      32.816227      35.94437       50.811842    
-807614.34      3.533866       33.591995      35.916689      50.51512     
-807618.79      3.179755       32.982485      35.888637      50.218626    
-807631.71      3.3559451      31.976392      35.8966        49.922208    
-807648.32      3.3414564      32.016466      35.868993      49.626009    
-807652.33      3.0845434      32.59311       35.944641      49.329615    
-807647         4.1404743      32.927028      35.937144      49.033359    
-807639.54      3.4210966      32.41305       35.953468      48.737148    
-807631.43      3.1503656      32.439884      35.903054      48.441242    
-807616.05      2.9931512      33.996883      35.933401      48.145322    
-807611.02      3.0689642      34.489667      35.926305      47.849535    
-807619.14      2.7890155      33.151013      35.980346      47.553648    
-807640.27      2.9929019      31.64687       35.950895      47.257977    
-807647.96      3.2359887      31.554249      35.974226      46.962323    
-807649.5       2.7707022      32.82462       35.89984       46.667048    
-807645.62      3.9193289      33.032885      35.918446      46.371803    
-807642.55      3.2171371      31.940329      35.918572      46.076656    
-807627.06      3.1705528      32.150094      35.946121      45.781508    
-807611.91      2.7159455      34.229543      35.928063      45.486523    
-807611.65      2.8350825      34.281028      35.965714      45.191503    
-807626.11      3.0595007      32.994471      35.914671      44.896759    
-807637.8       2.8354686      31.945661      35.86601       44.602278    
-807644.12      2.7381462      32.633528      35.972771      44.307521    
-807649.92      2.9982728      32.788433      35.942935      44.012962    
-807648.24      3.4570438      32.595492      35.920546      43.718572    
-807638.85      2.6526917      32.726053      35.876048      43.424421    
-807620.87      2.8826362      33.502921      35.890599      43.13031     
-807614.93      2.7706434      34.140663      35.947817      42.8361      
-807615.23      2.9479514      35.091406      35.952448      42.541966    
-807625.23      2.4026158      32.376025      35.963519      42.247888    
-807633.79      3.1805972      32.881715      35.935926      41.953986    
-807648.11      2.5176973      32.661425      35.943405      41.660149    
-807649.5       3.1380962      33.491389      35.879923      41.366597    
-807646.18      3.0548156      32.759298      35.892929      41.073088    
-807632.17      3.0770372      32.927718      35.91232       40.779602    
-807624.68      3.4559777      33.501806      35.838612      40.486423    
-807615.46      3.1973099      34.699588      35.899489      40.19314     
-807615.33      3.2035904      35.254699      35.970123      39.89973     
-807623.17      3.8608274      33.027108      35.964847      39.60642     
-807640.19      2.9833697      32.496068      35.972979      39.313171    
-807647.84      3.6161813      33.124216      35.958244      39.020047    
-807648.02      3.5202854      33.084926      35.932824      38.727077    
-807642.51      2.8007202      32.346372      35.944866      38.434154    
-807635.04      2.8870489      32.749892      35.967819      38.141247    
-807624.93      2.8441743      33.13168       35.960881      37.848439    
-807613         2.47219        34.489062      35.953134      37.555733    
-807615.1       2.6061206      33.967737      35.949767      37.263113    
-807630.5       3.3008038      32.845921      36.003145      36.97043     
-807641.92      2.9567542      32.861064      35.926289      36.678029    
-807646.46      3.8785882      33.801515      35.94901       36.385644    
-807646.95      2.9892052      33.895911      35.960747      36.093304    
-807644.66      2.8439825      33.052593      35.9176        35.801151    
-807636.34      2.7750974      32.562942      35.97364       35.508928    
-807620.29      3.2991188      33.837312      35.94438       35.216855    
-807615.08      2.8299647      33.506221      35.922304      34.924908    
-807620.21      3.3029224      33.70401       35.94919       34.632968    
-807632.31      2.9211164      31.976982      35.894865      34.341231    
-807639.99      2.5250167      32.489766      35.918808      34.049506    
-807646.64      3.0304121      32.632706      35.939256      33.757802    
-807649.18      2.9656281      33.426608      35.927117      33.466197    
-807643.79      2.9471852      32.103676      35.936793      33.174638    
-807631.49      3.441691       32.70175       35.940338      32.88314     
-807620.71      2.9756443      33.594977      35.938597      32.591714    
-807618.28      3.1428681      34.224257      35.915339      32.300408    
-807621.89      3.2015984      33.459484      35.914943      32.009169    
-807630.3       3.9488912      32.378939      35.921637      31.717981    
-807640.89      3.5693578      33.085057      35.953541      31.42679     
-807651.11      2.7913975      32.041602      35.985755      31.135597    
-807648.13      3.0878302      32.740273      35.940185      30.844567    
-807639.66      3.5714891      32.985893      35.959654      30.553562    
-807629.79      3.1011941      32.688757      35.925026      30.262694    
-807621.95      3.3839316      34.06528       35.924503      29.97189     
-807615.84      2.7274785      34.476768      35.867763      29.681262    
-807618.98      2.9631546      33.750962      35.933781      29.390563    
-807631.88      3.1828683      32.950035      35.920006      29.099953    
-807645.65      3.3558623      32.754527      35.942909      28.80936     
-807646.72      4.2546246      33.949916      35.949777      28.518816    
-807643.73      3.6084398      33.004076      35.949235      28.228334    
-807640.29      3.0175699      32.542596      35.95077       27.93791     
-807630.73      2.6670508      32.554474      35.913699      27.647615    
-807618.9       2.4364251      33.659786      35.908404      27.357388    
-807614.08      2.8461153      34.510147      35.857209      27.067312    
-807625.79      3.2064845      32.706971      35.927163      26.777166    
-807634.82      2.8470679      33.026177      35.931328      26.487071    
-807643.27      2.9472301      33.033746      35.921115      26.197051    
-807644.49      3.5041918      33.555742      35.92874       25.907074    
-807646.32      3.1565922      32.888307      35.949515      25.61712     
-807640.16      2.5161461      32.284011      35.953884      25.327216    
-807625.85      3.4716629      33.106581      35.93002       25.037407    
-807615.52      2.8290741      34.31327       35.939535      24.747639    
-807616.97      2.8634021      34.31764       35.931653      24.457939    
-807626.45      2.6556687      32.713259      35.971344      24.168231    
-807634.64      2.4467402      32.697135      35.914168      23.878668    
-807643.46      2.6490884      32.396833      35.90076       23.589178    
-807647.72      2.8777411      32.565628      35.906927      23.299732    
-807646.74      3.344315       32.081247      35.88174       23.010374    
-807634.88      2.6074713      32.832904      35.79515       22.721194    
-807624.51      3.0250596      32.916295      35.921169      22.43188     
-807618.65      3.275448       33.697495      35.874368      22.142683    
-807619.63      3.1857076      33.635376      35.924828      21.853465    
-807625.84      3.1299668      32.508012      35.914753      21.564312    
-807636.39      3.4278372      32.961887      35.9187        21.275204    
-807646.43      3.03828        32.418917      35.954083      20.986099    
-807649.08      3.1025527      32.210836      35.894343      20.697124    
-807641.6       3.0143082      33.527148      35.849461      20.408254    
-807634.21      3.4529938      32.444652      35.884078      20.119387    
-807625.7       3.1674835      33.180162      35.945382      19.830491    
-807618.36      2.9120808      33.460587      35.891113      19.541711    
-807618.52      2.8835081      33.573181      35.892174      19.252977    
-807626.52      2.7819571      32.290511      35.940248      18.964232    
-807638.94      2.7879159      32.205786      35.955491      18.675518    
-807645.03      2.9785215      32.59643       35.917231      18.386897    
-807646.62      3.3759451      32.562566      35.936098      18.0983      
-807641.77      2.4864114      32.07562       35.955004      17.809731    
-807636.59      2.9474193      31.73597       35.885311      17.521284    
-807625.25      2.60871        32.53383       35.942585      17.23282     
-807617.2       2.5930523      33.993804      35.954182      16.944392    
-807620.59      3.4502286      33.178323      35.939247      16.656025    
-807631.13      3.1462931      32.703708      35.953225      16.36769     
-807640.53      2.8569571      32.277578      35.901705      16.079451    
-807644.35      2.8193841      32.971445      35.963674      15.791196    
-807646.01      2.7494509      32.505686      35.958534      15.502992    
-807643.58      2.6944503      31.798255      35.896412      15.21489     
-807632.17      3.3912974      32.803266      35.844274      14.926878    
-807621.98      3.2017176      33.197208      35.872041      14.638881    
-807617.69      3.8313582      34.313617      35.938678      14.350868    
-807624.53      3.0009192      33.450756      35.859167      14.062966    
-807632.72      3.1877607      32.730903      35.890222      13.775077    
-807639.44      3.4106426      32.577073      35.959745      13.487174    
-807645.27      2.5056087      32.609073      35.955193      13.199317    
-807647.71      2.5899882      31.725253      35.930318      12.911523    
-807639.22      2.9358657      32.477598      35.91515       12.623781    
-807629.12      2.6450685      33.384127      35.937091      12.336064    
-807622.51      2.6972922      33.089909      35.960991      12.048371    
-807621.77      2.6077131      33.633155      35.878953      11.760777    
-807625.11      3.2035786      33.304118      35.902614      11.473205    
-807632.71      2.8586349      32.912573      35.953126      11.18564     
-807640.53      3.640194       33.051197      35.950598      10.898117    
-807646.01      2.9433629      33.230039      35.992223      10.610609    
-807644.53      2.844147       33.008118      35.952115      10.323167    
-807636.85      3.5230594      33.356562      35.902596      10.035793    
-807628.09      3.2101343      33.813908      35.872877      9.7484743    
-807622.32      3.4176948      34.773184      35.938245      9.4611563    
-807618.07      3.673337       34.874355      35.91215       9.1738909    
-807623.33      4.2473682      34.560845      35.915096      8.8866615    
-807631.75      3.8273771      34.73329       35.968805      8.599443     
-807641.07      4.5252043      34.180459      35.945084      8.3122749    
-807644.36      3.0723576      34.022704      35.918817      8.0251568    
-807641.18      4.5325279      33.722192      35.831904      7.7381141    
-807636.4       3.1196782      32.932983      35.889754      7.4510804    
-807629.94      3.4813403      32.948394      35.923485      7.1640682    
-807620.74      2.8489276      33.979271      35.893029      6.8771043    
-807616.62      2.9007524      34.761347      35.88827       6.5901772    
-807626.29      2.7143391      32.603048      35.929218      6.3032701    
-807636.12      2.9926077      32.468416      35.953767      6.0163906    
-807641.94      3.0416972      32.222797      35.979407      5.7295392    
-807641.72      3.0769101      33.841187      35.907854      5.4427468    
-807641.6       2.9295763      33.207554      35.937046      5.1559804    
-807636.55      3.402785       33.475534      35.853043      4.8692721    
-807625.02      3.3440541      34.301771      35.90536       4.5825826    
-807619.17      3.436911       34.508039      35.964911      4.2959125    
-807620.51      3.2524164      34.211646      35.981433      4.0092743    
-807628.08      3.0169351      34.077941      35.957424      3.7226768    
-807634.61      3.4282809      33.783085      35.927181      3.4361198    
-807640.36      2.74212        33.211313      35.990902      3.1495854    
-807644.82      3.5071178      33.388096      35.920845      2.8630975    
-807641.65      3.1960166      33.310203      35.926045      2.5766418    
-807632.66      3.1514647      33.090375      35.932681      2.2902183    
-807626.14      2.6199871      32.398106      35.924395      2.0038286    
-807621.52      2.9960683      33.622081      35.927244      1.7174712    
-807623.76      2.820974       32.899724      35.891967      1.4311489    
-807628.42      2.7499136      32.485473      35.935269      1.144855     
-807636.31      3.0720353      32.187248      35.880212      0.85859593   
-807643.99      2.9261431      31.923851      35.95281       0.57236493   
-807644.22      2.8911014      32.504221      35.956521      0.2861663    
-807641.26      3.8690761      31.99294       35.882091      0            
Loop time of 143.076 on 64 procs for 5000 steps with 1080 atoms

Performance: 6.039 ns/day, 3.974 hours/ns, 34.947 timesteps/s, 37.742 katom-step/s
92.9% CPU use with 64 MPI tasks x 1 OpenMP threads

MPI task timing breakdown:
Section |  min time  |  avg time  |  max time  |%varavg| %total
---------------------------------------------------------------
Pair    | 69.08      | 94.982     | 138.84     | 227.8 | 66.39
Neigh   | 0          | 0          | 0          |   0.0 |  0.00
Comm    | 1.9397     | 45.621     | 71.436     | 328.6 | 31.89
Output  | 0.030852   | 0.032195   | 0.033233   |   0.4 |  0.02
Modify  | 1.8983     | 2.0899     | 2.2202     |   7.1 |  1.46
Other   |            | 0.351      |            |       |  0.25

Nlocal:         16.875 ave          32 max           7 min
Histogram: 16 0 16 16 0 0 0 0 8 8
Nghost:        883.125 ave         893 max         868 min
Histogram: 8 8 0 0 0 0 16 16 0 16
Neighs:              0 ave           0 max           0 min
Histogram: 64 0 0 0 0 0 0 0 0 0
FullNghs:      2747.25 ave        5264 max        1126 min
Histogram: 16 0 16 16 0 0 0 0 8 8

Total # of neighbors = 175824
Ave neighs/atom = 162.8
Neighbor list builds = 0
Dangerous builds = 0

reset_timestep 0


variable interval equal 1000
thermo 10

variable nintervals equal $(v_PERIOD/v_interval)
variable nintervals equal 100
variable efield equal 1e-2*36.36*cos((step/${PERIOD})*2*3.14)
variable efield equal 1e-2*36.36*cos((step/100000)*2*3.14)
fix born all addbornforce 0.0 0.0 v_efield

variable Px equal f_born[1]+c_polarization[1]
variable Py equal f_born[2]+c_polarization[2]
variable Pz equal (f_born[3]+c_polarization[3])/vol
variable pe equal pe

fix aveP all ave/time 1 $(v_interval/2) ${interval} v_efield v_Pz v_pe f_born file Pz.${MODEL}.${STRUCTURE}.${TEMP}.$L
fix aveP all ave/time 1 500 ${interval} v_efield v_Pz v_pe f_born file Pz.${MODEL}.${STRUCTURE}.${TEMP}.$L
fix aveP all ave/time 1 500 1000 v_efield v_Pz v_pe f_born file Pz.${MODEL}.${STRUCTURE}.${TEMP}.$L
fix aveP all ave/time 1 500 1000 v_efield v_Pz v_pe f_born file Pz.BaTiO3-E0.${STRUCTURE}.${TEMP}.$L
fix aveP all ave/time 1 500 1000 v_efield v_Pz v_pe f_born file Pz.BaTiO3-E0.BaTiO3-sc333.${TEMP}.$L
fix aveP all ave/time 1 500 1000 v_efield v_Pz v_pe f_born file Pz.BaTiO3-E0.BaTiO3-sc333.290.$L
fix aveP all ave/time 1 500 1000 v_efield v_Pz v_pe f_born file Pz.BaTiO3-E0.BaTiO3-sc333.290.2

thermo_style custom step time temp press pe f_born v_efield v_Pz spcpu cpuremain

dump 4a all custom 100 dump.hyst.${MODEL}.${STRUCTURE}.${TEMP}.$L.bin id type xu yu zu fx fy fz
dump 4a all custom 100 dump.hyst.BaTiO3-E0.${STRUCTURE}.${TEMP}.$L.bin id type xu yu zu fx fy fz
dump 4a all custom 100 dump.hyst.BaTiO3-E0.BaTiO3-sc333.${TEMP}.$L.bin id type xu yu zu fx fy fz
dump 4a all custom 100 dump.hyst.BaTiO3-E0.BaTiO3-sc333.290.$L.bin id type xu yu zu fx fy fz
dump 4a all custom 100 dump.hyst.BaTiO3-E0.BaTiO3-sc333.290.2.bin id type xu yu zu fx fy fz
dump_modify 4a sort id

fix nvt all nvt temp ${TEMP} ${TEMP} $(100*dt)
fix nvt all nvt temp 290 ${TEMP} $(100*dt)
fix nvt all nvt temp 290 290 $(100*dt)
fix nvt all nvt temp 290 290 0.2000000000000000111

run $(v_PERIOD)
run 100000
WARNING: non-constant efield is experimental, strongly distrust scalar/vector output (src/fix_addbornforce.cpp:193)
Per MPI rank memory allocation (min/avg/max) = 3.608 | 3.609 | 3.609 Mbytes
   Step          Time           Temp          Press          PotEng         f_born        v_efield         v_Pz          S/CPU         CPULeft    
         0   0              291.0918       126933.76     -807641.23     -296.42345      0.3636         0.055748887    0              0            
        10   0.02           285.93059      134003.6      -807631.64     -305.30888      0.36359993     0.057419997    43.925347      2276.386     
        20   0.04           293.12784      138499.97     -807626.85     -311.12224      0.36359971     0.058513361    45.342784      2240.5675    
        30   0.06           282.13441      142894.08     -807622.17     -314.25151      0.36359935     0.059101946    45.377516      2227.9201    
        40   0.08           281.36785      141319.29     -807622.23     -314.11815      0.36359885     0.059076947    45.446261      2220.6531    
        50   0.1            289.13641      136225.74     -807628.96     -308.36726      0.36359821     0.057995467    45.406354      2216.5917    
        60   0.12           291.57092      128418.55     -807639.44     -298.16668      0.36359742     0.056077137    45.3563        2214.2161    
        70   0.14           277.41517      124950.53     -807642.72     -292.80268      0.36359649     0.055068455    45.365913      2212.3882    
        80   0.16           276.16838      123454.89     -807642.93     -292.4106       0.36359541     0.054994877    45.394291      2210.7913    
        90   0.18           292.45538      128469.01     -807639.28     -298.20046      0.36359419     0.056083988    45.364649      2209.6595    
       100   0.2            281.62887      133619.04     -807631.52     -304.41409      0.36359283     0.05725283     45.271102      2209.1651    
       110   0.22           287.41716      140070.74     -807624.41     -312.19821      0.36359132     0.058717075    45.151769      2209.2501    
       120   0.24           284.91003      142640.92     -807620.64     -315.53165      0.36358968     0.059344285    45.400725      2208.2736    
       130   0.26           294.40745      141119.25     -807623.08     -314.18278      0.36358788     0.059090886    45.35186       2207.5958    
       140   0.28           294.75253      134076.64     -807631.69     -305.37664      0.36358595     0.057434949    45.383859      2206.8727    
       150   0.3            296.30596      128698.67     -807639.73     -297.24556      0.36358387     0.055905984    45.428727      2206.0712    
       160   0.32           293.43119      124331.75     -807642.92     -293.38724      0.36358165     0.055180646    45.339998      2205.6114    
       170   0.34           281.49536      126630.17     -807640.51     -293.86217      0.36357928     0.055270332    45.391801      2205.0319    
       180   0.36           293.60214      129333.22     -807639.06     -296.75718      0.36357677     0.055815218    45.322173      2204.6802    
       190   0.38           298.85728      136579.01     -807630.12     -306.14434      0.36357412     0.05758121     45.364232      2204.2347    
       200   0.4            291.79358      140323.48     -807621.77     -313.32002      0.36357132     0.058931303    45.36817       2203.8021    
       210   0.42           292.76856      143772.96     -807619.48     -315.45608      0.36356838     0.059333547    45.160712      2203.8709    
       220   0.44           299.54612      139413.17     -807625.64     -310.04385      0.3635653      0.058316065    45.349174      2203.4961    
       230   0.46           301.44259      134416.3      -807630.85     -304.81131      0.36356207     0.057332387    45.397371      2203.033     
       240   0.48           302.57696      127008.65     -807637.81     -297.90487      0.3635587      0.056033865    45.386276      2202.6125    
       250   0.5            286.27793      126038.51     -807639.6      -293.60213      0.36355519     0.055225082    45.330309      2202.3169    
       260   0.52           287.34847      125837.37     -807641.04     -292.25843      0.36355153     0.054972893    45.366244      2201.9594    
       270   0.54           309.15336      130747.45     -807636.42     -299.84103      0.36354773     0.056399745    45.321958      2201.6921    
       280   0.56           302.39828      135303.77     -807627.35     -308.03983      0.36354379     0.057942559    45.412144      2201.272     
       290   0.58           293.7182       142400.57     -807620.61     -313.5097       0.3635397      0.058972108    45.372411      2200.9319    
       300   0.6            312.05951      141410.58     -807623.93     -312.83634      0.36353547     0.058846131    45.410329      2200.5387    
       310   0.62           296.19817      139493.76     -807623.45     -311.10608      0.3635311      0.058521365    45.158333      2200.5518    
       320   0.64           309.07646      132127.12     -807632.51     -303.92513      0.36352658     0.057171285    45.280995      2200.3635    
       330   0.66           292.16819      127921.14     -807637.42     -296.71094      0.36352192     0.055814942    45.358958      2200.0583    
       340   0.68           295.88575      124564.27     -807642.76     -291.97568      0.36351712     0.054924907    45.140196      2200.0714    
       350   0.7            281.94031      126903.46     -807638.11     -294.7746       0.36351217     0.055452179    45.26854       2199.8924    
       360   0.72           303.43288      131455.82     -807633.85     -302.17213      0.36350708     0.056844578    45.403158      2199.5296    
       370   0.74           297.53919      137075.57     -807627.26     -308.0542       0.36350185     0.057951946    45.374266      2199.2123    
       380   0.76           301.24292      141076.2      -807623.25     -312.71097      0.36349647     0.058828861    45.373188      2198.9015    
       390   0.78           295.31928      142001.4      -807620.65     -314.64672      0.36349095     0.059193922    45.313682      2198.6693    
       400   0.8            302.49726      138885.74     -807626.1      -310.27683      0.36348529     0.058372733    45.428828      2198.2983    
       410   0.82           307.41334      131315.4      -807635.89     -301.28783      0.36347948     0.056682528    45.156496      2198.2572    
       420   0.84           286.59091      127960.72     -807638.95     -295.40948      0.36347353     0.055577519    45.309337      2198.0304    
       430   0.86           287.01549      123965.02     -807642.03     -292.5407       0.36346744     0.055038717    45.384046      2197.7198    
       440   0.88           290.41189      127978.61     -807638.7      -296.36152      0.3634612      0.055758524    45.336696      2197.4653    
       450   0.9            294.80276      130290.34     -807635.15     -300.71216      0.36345482     0.056578064    45.372426      2197.1739    
       460   0.92           294.972        138668.88     -807627.02     -308.90051      0.3634483      0.05811972     45.416667      2196.8392    
       470   0.94           296.09615      140206.27     -807622.99     -313.25241      0.36344163     0.058939612    45.37651       2196.5506    
       480   0.96           284.12295      143145.37     -807619.84     -314.75201      0.36343482     0.059222876    45.377401      2196.2638    
       490   0.98           301.99024      135658.7      -807630.6      -306.6198       0.36342786     0.057693847    45.342611      2196.0142    
       500   1              294.32367      132247.03     -807634.46     -301.6207       0.36342077     0.056754319    45.367969      2195.7412    
       510   1.02           292.59392      125228.86     -807641.96     -18817.339      0.36341353     0.055325414    44.985736      2195.8356    
       520   1.04           279.97958      125959.67     -807639.78     -18842.821      0.36340614     0.05540146     45.035939      2195.8704    
       530   1.06           299.51008      125724.06     -807642.57     -18850.252      0.36339862     0.055424456    45.167878      2195.7738    
       540   1.08           287.53023      133487.73     -807632.26     -19408.488      0.36339095     0.057067013    45.150758      2195.688     
       550   1.1            296.21839      137196.94     -807626.85     -19844.356      0.36338313     0.058349856    45.240534      2195.5179    
       560   1.12           280.34083      143042.52     -807619.61     -20166.368      0.36337518     0.05929799     45.333596      2195.2653    
       570   1.14           295.92393      139880.92     -807625.52     -19931.794      0.36336707     0.058609546    45.348241      2195.0015    
       580   1.16           292.55582      136291.31     -807629        -19682.111      0.36335883     0.057876665    45.186223      2194.8746    
       590   1.18           291.9396       129503.01     -807636.19     -19221.807      0.36335044     0.056524414    45.333366      2194.6235    
       600   1.2            280.55327      126009.77     -807639.66     -18899.077      0.36334191     0.055576684    45.182616      2194.4955    
       610   1.22           282.08808      124954.01     -807642.88     -18708.388      0.36333324     0.055017237    45.153605      2194.3874    
       620   1.24           295.08108      126695.13     -807640.87     -18960.163      0.36332442     0.055759006    45.153107      2194.2762    
       630   1.26           291.29073      134499.78     -807630.63     -19584.011      0.36331546     0.057595068    45.192513      2194.1309    
       640   1.28           298.61464      137964.7      -807627.05     -19885.485      0.36330636     0.058483145    45.353958      2193.861     
       650   1.3            284.78789      142542.84     -807621.85     -20093.958      0.36329711     0.05909777     45.177669      2193.7241    
       660   1.32           292.68587      138263.57     -807626.64     -19866.445      0.36328772     0.058430148    45.157821      2193.5993    
       670   1.34           288.31051      136377.44     -807628.54     -19703.244      0.36327819     0.057951669    45.071579      2193.5345    
       680   1.36           288.58952      126896.69     -807638.66     -19067.496      0.36326851     0.056083286    45.078659      2193.4599    
       690   1.38           275.71746      127460.34     -807640.91     -18795.847      0.36325869     0.055285778    45.09466       2193.3697    
       700   1.4            279.6779       122942.53     -807643.59     -18670.485      0.36324873     0.054918548    45.001981      2193.3406    
       710   1.42           294.35417      129967        -807636.71     -19237.91       0.36323863     0.056589181    44.876957      2193.3927    
       720   1.44           285.36468      132974.79     -807631.79     -19484.988      0.36322838     0.05731759     45.22793       2193.1985    
       730   1.46           293.13804      140688.58     -807625.42     -19953.191      0.36321798     0.058696548    45.169246      2193.0428    
       740   1.48           285.66407      139624        -807624.44     -19957.277      0.36320745     0.058710272    45.159658      2192.8916    
       750   1.5            289.95355      141171.16     -807624.1      -20013.154      0.36319677     0.05887638     45.196079      2192.7148    
       760   1.52           288.36471      132285.64     -807632.83     -19447.742      0.36318595     0.05721471     45.186608      2192.5431    
       770   1.54           290.99784      129858.64     -807639.65     -19022.437      0.36317498     0.055965164    45.174163      2192.3778    
       780   1.56           280.07188      124134.33     -807642.75     -18731.845      0.36316387     0.055111911    45.298543      2192.1338    
       790   1.58           286.53996      127081.53     -807640.49     -18930.889      0.36315262     0.055699254    45.171498      2191.9683    
       800   1.6            281.36636      129196.51     -807636.31     -19155.724      0.36314122     0.056362542    45.179465      2191.7966    
       810   1.62           290.65394      136050.16     -807630.71     -19592.087      0.36312968     0.057648298    45.153008      2191.6396    
       820   1.64           280.74444      139369.29     -807624.1      -19927.421      0.363118       0.058636881    45.17985       2191.4651    
       830   1.66           290.08759      142639.81     -807622.09     -20132.958      0.36310618     0.059243606    45.167337      2191.2968    
       840   1.68           287.2577       137644.57     -807627.02     -19788.374      0.36309421     0.058231548    45.354116      2191.0195    
       850   1.7            299.11632      132541.86     -807635.1      -19362.782      0.3630821      0.056981051    45.190972      2190.8365    
       860   1.72           287.7182       126705.37     -807639.57     -18972.306      0.36306984     0.055833838    45.370499      2190.5517    
       870   1.74           285.84465      125404.4      -807641.22     -18841.812      0.36305745     0.0554517      45.337988      2190.2863    
       880   1.76           282.81215      126818.71     -807640.45     -18857.336      0.3630449      0.055499303    45.151099      2190.1248    
       890   1.78           288.2654       130923.91     -807636.18     -19168.465      0.36303222     0.056416965    45.133878      2189.9714    
       900   1.8            295.10399      137277.44     -807628.62     -19707.247      0.36301939     0.058004766    45.002816      2189.8875    
       910   1.82           282.26748      140762.72     -807621.76     -20024.573      0.36300642     0.058940864    45.002858      2189.8004    
       920   1.84           306.22702      140549.01     -807625.59     -19976.01       0.36299331     0.058800046    45.314127      2189.5461    
       930   1.86           290.16323      136628.32     -807628.72     -19622.513      0.36298005     0.057761627    45.203841      2189.3499    
       940   1.88           299.5376       131885.6      -807633.57     -19384.146      0.36296665     0.057062065    45.17928       2189.1658    
       950   1.9            299.66781      126597.89     -807639.95     -18966.249      0.36295311     0.055833965    45.264318      2188.9376    
       960   1.92           284.22281      126044.81     -807641.44     -18718.057      0.36293942     0.055105402    45.209508      2188.7371    
       970   1.94           287.33806      126373.73     -807640.25     -18816.77       0.36292559     0.055398121    44.999945      2188.6414    
       980   1.96           296.63513      132734.6      -807632.77     -19368.648      0.36291162     0.057025088    44.995335      2188.5454    
       990   1.98           304.46895      136496.51     -807627.99     -19742.083      0.3628975      0.058126815    45.072401      2188.4089    
      1000   2              297.99063      141520.36     -807623.55     -19956.522      0.36288325     0.058760501    44.97689       2188.3173    
      1010   2.02           279.82696      140565.55     -807622.84     -309.95861      0.36286884     0.058411928    45.282942      2188.0758    
      1020   2.04           304.33363      138503.71     -807626.99     -309.04741      0.3628543      0.058242546    45.405159      2187.7771    
      1030   2.06           297.24276      130728.25     -807633.65     -301.41912      0.36283961     0.056807232    45.374166      2187.4943    
      1040   2.08           291.33959      128916.87     -807638.69     -295.31552      0.36282478     0.055659186    45.364835      2187.2171    
      1050   2.1            289.59759      125040.98     -807643.06     -290.73344      0.3628098      0.054797847    45.302571      2186.9695    
      1060   2.12           294.2327       128697.55     -807637.22     -297.15511      0.36279469     0.056010545    45.360581      2186.696     
      1070   2.14           312.61193      131371.35     -807634.69     -302.32533      0.36277943     0.056987474    45.316178      2186.4435    
      1080   2.16           297.18112      138055.18     -807626.73     -308.08656      0.36276402     0.058075916    45.213077      2186.2376    
      1090   2.18           288.18872      140807.35     -807623.29     -310.3257       0.36274848     0.058500512    45.369637      2185.9623    
      1100   2.2            296.26463      140874.43     -807622.38     -312.39688      0.36273279     0.058893504    45.40228       2185.6737    
      1110   2.22           303.78686      136405.75     -807627.47     -308.42242      0.36271695     0.058146772    45.181546      2185.4821    
      1120   2.24           292.82888      132348.71     -807635.12     -299.31596      0.36270098     0.056432419    45.347523      2185.2186    
      1130   2.26           283.98075      127967.93     -807639.83     -293.41063      0.36268486     0.055321499    45.315088      2184.9696    
      1140   2.28           292.9664       125737.92     -807641.3      -293.30591      0.3626686      0.055304234    45.394694      2184.6875    
      1150   2.3            295.27862      128313.26     -807637.58     -297.53857      0.36265219     0.056104859    45.380378      2184.4126    
      1160   2.32           295.88499      132638.68     -807633.58     -301.85203      0.36263564     0.056920818    45.351171      2184.1506    
      1170   2.34           292.15367      138328.24     -807627.96     -307.19388      0.36261895     0.057930806    45.422199      2183.8602    
      1180   2.36           279.69875      140778.04     -807621.26     -312.43999      0.36260212     0.058922856    45.410444      2183.5758    
      1190   2.38           296.35657      139867.01     -807624.3      -311.95923      0.36258514     0.058834945    45.368415      2183.3094    
      1200   2.4            288.41723      134969.98     -807630.69     -304.70799      0.36256802     0.057470089    45.314815      2183.0652    
      1210   2.42           292.3718       130570.45     -807637.92     -298.25572      0.36255076     0.056255822    45.164402      2182.8814    
      1220   2.44           286.37721      126844.21     -807641.17     -294.40909      0.36253335     0.055532952    45.278217      2182.6519    
      1230   2.46           274.17113      126642.76     -807639.85     -294.20878      0.3625158      0.055497855    45.220331      2182.4453    
      1240   2.48           292.45579      127499.07     -807640.95     -295.86099      0.36249811     0.055812243    45.364448      2182.1825    
      1250   2.5            281.17967      134357.24     -807632.59     -302.83986      0.36248028     0.057131572    45.399775      2181.9068    
      1260   2.52           280.908        138531.01     -807625.94     -309.64228      0.3624623      0.058417765    45.387283      2181.6367    
      1270   2.54           282.06403      141123.86     -807622.65     -313.13824      0.36244418     0.059080273    45.396162      2181.3641    
      1280   2.56           282.88993      138433.73     -807627.12     -308.8437       0.36242592     0.058272953    45.365899      2181.1036    
      1290   2.58           287.80067      134597.61     -807633.22     -303.41924      0.36240751     0.057252367    45.351516      2180.8492    
      1300   2.6            290.92646      128734.42     -807638.02     -299.11555      0.36238896     0.056443189    45.315102      2180.6086    
      1310   2.62           272.63619      126602.79     -807639.5      -295.05608      0.36237027     0.055680039    45.149263      2180.4295    
      1320   2.64           282.80771      125656.24     -807644.38     -291.57421      0.36235143     0.055025835    45.409278      2180.1549    
      1330   2.66           274.4141       129930.82     -807637.61     -297.12752      0.36233245     0.056076792    45.400365      2179.8843    
      1340   2.68           288.33273      133678.8      -807631.32     -305.439        0.36231333     0.057648458    45.397025      2179.6156    
      1350   2.7            286.7932       138815.5      -807626.13     -310.25872      0.36229407     0.058561244    45.423237      2179.3384    
      1360   2.72           282.61515      138331.94     -807626.63     -309.10541      0.36227466     0.058346683    45.304248      2179.104     
      1370   2.74           289.15893      138279.6      -807628.36     -308.18831      0.36225511     0.05817671     45.364677      2178.8486    
      1380   2.76           289.15101      133882.25     -807631.62     -304.86668      0.36223542     0.057552815    45.314729      2178.6111    
      1390   2.78           285.34795      129717.2      -807637.07     -298.7057       0.36221558     0.05639283     45.338347      2178.3657    
      1400   2.8            286.85981      125780.64     -807644.09     -291.7388       0.3621956      0.055080585    45.405418      2178.0976    
      1410   2.82           281.93422      127192.06     -807641.34     -293.6754       0.36217548     0.055449296    45.176115      2177.9084    
      1420   2.84           282.13297      130327.9      -807634.43     -300.58967      0.36215522     0.056757966    45.358182      2177.6571    
      1430   2.86           289.43311      134997.08     -807630.7      -305.22536      0.36213481     0.057636535    45.390305      2177.3954    
      1440   2.88           279.57303      139185.07     -807626.88     -307.51145      0.36211426     0.058071517    45.344478      2177.1496    
      1450   2.9            282.77314      140278.52     -807624.35     -310.37619      0.36209357     0.058615855    45.315503      2176.9137    
      1460   2.92           287.6577       138459.24     -807624.91     -310.37106      0.36207273     0.058618259    45.431192      2176.6401    
      1470   2.94           290.09069      133087.95     -807632.94     -302.51854      0.36205176     0.057138503    45.382967      2176.3828    
      1480   2.96           291.58893      128442.44     -807640.56     -294.88018      0.36203064     0.055699049    45.331873      2176.1427    
      1490   2.98           279.11004      125992.95     -807640.82     -292.78118      0.36200937     0.055305824    45.421118      2175.8741    
      1500   3              291.87408      127710.53     -807639.3      -295.92293      0.36198796     0.0559026      45.372426      2175.6217    
      1510   3.02           292.04336      130122.97     -807636.07     -19141.939      0.36196642     0.056504781    45.088497      2175.4602    
      1520   3.04           295.24992      135060.84     -807632.44     -19394.81       0.36194472     0.057254658    45.294058      2175.2327    
      1530   3.06           292.77438      139168.52     -807625.74     -19797.254      0.36192289     0.058446224    45.192399      2175.0373    
      1540   3.08           288.50971      140390.89     -807622.2      -19979.41       0.36190091     0.058987572    45.185425      2174.8437    
      1550   3.1            300.30916      136580.48     -807628.63     -19669.196      0.36187879     0.058075242    45.388319      2174.587     
      1560   3.12           304.81669      132632.7      -807636.65     -19186.908      0.36185653     0.056654725    45.352349      2174.3417    
      1570   3.14           293.9484       127243.05     -807639.5      -18907.262      0.36183412     0.055832448    45.361271      2174.094     
      1580   3.16           283.44719      127059.72     -807638.68     -18859.262      0.36181157     0.055694177    45.378782      2173.8413    
      1590   3.18           284.19004      127378.19     -807639.95     -18786.81       0.36178888     0.055483693    45.315317      2173.6082    
      1600   3.2            292.1987       131334.18     -807636.43     -19077.857      0.36176605     0.056346808    45.022981      2173.4634    
      1610   3.22           293.43187      135609.94     -807629.07     -19565.291      0.36174307     0.057790125    42.102736      2174.259     
      1620   3.24           282.97499      140799.72     -807621.16     -19972.889      0.36171995     0.05899782     45.132399      2174.0736    
      1630   3.26           301.20722      139518.7      -807626.56     -19784.946      0.36169669     0.058446415    45.13173       2173.888     
      1640   3.28           294.36403      136179.47     -807629.68     -19522.791      0.36167329     0.057675719    45.115234      2173.7068    
      1650   3.3            299.98986      131286.28     -807635.22     -19220.863      0.36164974     0.056787437    45.070912      2173.5381    
      1660   3.32           291.84804      127864.99     -807637.9      -18974.444      0.36162605     0.056063073    45.155072      2173.3443    
      1670   3.34           278.91757      125905.27     -807640.36     -18697.407      0.36160222     0.055248163    44.946393      2173.2107    
      1680   3.36           293.91511      127121.76     -807641.42     -18765.356      0.36157824     0.055452618    44.934305      2173.0796    
      1690   3.38           284.59826      132417.21     -807632.44     -19259.81       0.36155413     0.056917553    44.944615      2172.9443    
      1700   3.4            291.42322      136711.47     -807627.02     -19667.173      0.36152987     0.058125314    44.852805      2172.8344    
      1710   3.42           292.19093      139530.23     -807626.13     -19728.738      0.36150546     0.0583112      44.950838      2172.6952    
      1720   3.44           296.91438      138631.9      -807628.08     -19645.576      0.36148092     0.058069347    45.155044      2172.4976    
      1730   3.46           296.13443      135717.89     -807628.57     -19608.96       0.36145623     0.057965075    45.30809       2172.2572    
      1740   3.48           286.97821      131293.01     -807632.97     -19245.638      0.3614314      0.056894983    45.198876      2172.0471    
      1750   3.5            292.60963      127396.27     -807641.38     -18752.417      0.36140643     0.055440729    45.178595      2171.8425    
      1760   3.52           291.8331       125421.91     -807642.92     -18646.085      0.36138131     0.055130192    45.147654      2171.6462    
      1770   3.54           290.65556      128949.65     -807637.33     -18995.899      0.36135605     0.0561684      45.148921      2171.4492    
      1780   3.56           297.09296      131809.49     -807633.51     -19302.961      0.36133065     0.057080354    45.180335      2171.2435    
      1790   3.58           292.7214       136757.11     -807628.97     -19551.333      0.36130511     0.057818897    45.173379      2171.0394    
      1800   3.6            286.17614      139034.56     -807626.23     -19672.667      0.36127942     0.058181855    45.343502      2170.7899    
      1810   3.62           288.42484      140081.52     -807623.82     -19848.401      0.3612536      0.058705784    45.198547      2170.579     
      1820   3.64           275.19948      136063.15     -807626.3      -19574.382      0.36122763     0.057899477    45.374928      2170.3216    
      1830   3.66           294.59169      131560.91     -807637        -19055.951      0.36120151     0.056370074    45.364404      2170.0674    
      1840   3.68           295.32438      126222.38     -807642        -18742.601      0.36117526     0.055447174    45.339682      2169.82      
      1850   3.7            280.55802      127102.68     -807637.72     -18886.893      0.36114886     0.055878123    45.173949      2169.6158    
      1860   3.72           294.0319       128182.23     -807638.4      -18966.599      0.36112232     0.056118063    45.169616      2169.4125    
      1870   3.74           294.20783      131598.64     -807634.91     -19191.488      0.36109564     0.056787658    45.125742      2169.2203    
      1880   3.76           293.08937      136352.23     -807628.89     -19571.181      0.36106881     0.057915472    45.237432      2168.9992    
      1890   3.78           274.79192      139991.96     -807621.7      -19870.903      0.36104184     0.058806809    45.340185      2168.7522    
      1900   3.8            294.24748      137765        -807626.17     -19756.889      0.36101474     0.058473781    45.214847      2168.537     
      1910   3.82           302.43756      133853.37     -807634.48     -19299.294      0.36098748     0.057123764    45.093666      2168.3523    
      1920   3.84           285.97663      130776.71     -807635.97     -19058.933      0.36096009     0.056416605    45.169446      2168.1481    
      1930   3.86           286.22238      127397.22     -807638.56     -18900.9        0.36093255     0.055953078    45.190017      2167.9387    
      1940   3.88           275.5661       128100.88     -807638.61     -18807.525      0.36090487     0.055680925    45.313166      2167.6987    
      1950   3.9            286.79963      128008.53     -807639.5      -18860.594      0.36087705     0.055842345    45.186751      2167.49      
      1960   3.92           281.65459      134073.58     -807632.21     -19288.19       0.36084909     0.057112795    45.182302      2167.2822    
      1970   3.94           275.71913      137127.25     -807625.7      -19665.564      0.36082098     0.058234745    45.35334       2167.0328    
      1980   3.96           299.09462      139304.76     -807627.58     -19754.76       0.36079273     0.058503456    45.214947      2166.8171    
      1990   3.98           288.66514      136417.16     -807630.11     -19510.658      0.36076434     0.057785097    45.344909      2166.5701    
      2000   4              291.40233      135206.79     -807631.78     -19430.927      0.36073581     0.05755351     45.356573      2166.3205    
      2010   4.02           280.19989      129098.18     -807636.61     -297.45194      0.36070713     0.056390974    45.253789      2166.0957    
      2020   4.04           281.2832       128277.24     -807640.23     -293.99838      0.36067831     0.055740701    45.363672      2165.845     
      2030   4.06           268.5085       126471.45     -807640.86     -291.76929      0.36064935     0.055322517    45.363887      2165.5945    
      2040   4.08           276.55443      130157.76     -807636.05     -297.76525      0.36062025     0.056463971    45.33872       2165.3502    
      2050   4.1            283.5394       132795.79     -807632.02     -302.91535      0.36059101     0.057445221    45.411668      2165.0892    
      2060   4.12           282.91987      137674.23     -807628.22     -306.59417      0.36056162     0.058147615    45.380263      2164.8358    
      2070   4.14           293.18541      136678.96     -807630.14     -306.13841      0.36053209     0.058065933    45.492713      2164.557     
      2080   4.16           282.09538      137197.46     -807627.67     -307.08475      0.36050242     0.058250221    45.332146      2164.3154    
      2090   4.18           285.36919      132863.04     -807632.89     -302.3615       0.36047261     0.057359022    45.244036      2164.0941    
      2100   4.2            279.72129      129291.18     -807638.52     -295.8093       0.36044265     0.05612071     45.335404      2163.852     
      2110   4.22           280.53044      125880.95     -807642.56     -291.78276      0.36041256     0.055361422    45.192998      2163.6424    
      2120   4.24           285.87157      126326.03     -807640.6      -294.41822      0.36038232     0.055866148    45.278775      2163.4134    
      2130   4.26           285.51515      130372.42     -807636.33     -298.54183      0.36035193     0.056653382    45.292196      2163.1814    
      2140   4.28           283.90384      134016.52     -807633.42     -301.05429      0.36032141     0.057135005    45.395687      2162.9265    
      2150   4.3            284.64662      137483.67     -807628.82     -305.57249      0.36029075     0.057997418    45.314672      2162.6898    
      2160   4.32           285.96104      137783.3      -807625.88     -308.57878      0.36025994     0.058573019    45.380522      2162.4388    
      2170   4.34           285.698        136876.98     -807627.36     -306.75091      0.36022899     0.058231063    45.411538      2162.1813    
      2180   4.36           286.2737       130912.11     -807635.4      -298.56554      0.36019789     0.056682112    45.338261      2161.9401    
      2190   4.38           287.18972      128457.83     -807638.69     -295.03346      0.36016666     0.056016411    45.296709      2161.7082    
      2200   4.4            284.79827      126536.92     -807639.44     -293.73935      0.36013528     0.055775564    45.345282      2161.4658    
      2210   4.42           289.21197      128539.02     -807638.63     -294.83146      0.36010377     0.055987836    45.195566      2161.2559    
      2220   4.44           289.75337      129843.72     -807637.07     -296.19634      0.36007211     0.056251968    45.36485       2161.0096    
      2230   4.46           288.08529      135210.21     -807630.09     -302.71744      0.3600403      0.057495499    45.410473      2160.7538    
      2240   4.48           285.87482      138546.82     -807624.61     -307.67681      0.36000836     0.058442623    45.361286      2160.5087    
      2250   4.5            280.02262      139433.91     -807623.58     -307.64465      0.35997627     0.058441723    45.353613      2160.2654    
      2260   4.52           306.32302      134747.01     -807632.27     -302.39728      0.35994404     0.057450048    45.335921      2160.0261    
      2270   4.54           297.75231      131622.83     -807633.85     -299.43117      0.35991167     0.056891658    45.404886      2159.7726    
      2280   4.56           294.27192      128408.34     -807637.11     -295.5539       0.35987916     0.056160053    45.399876      2159.5203    
      2290   4.58           292.58005      126769.35     -807639.59     -292.68052      0.35984651     0.055619111    45.365137      2159.2756    
      2300   4.6            286.60481      128876.56     -807638.6      -292.71951      0.35981371     0.055631591    45.350998      2159.0339    
      2310   4.62           303.01643      131377.07     -807635.95     -297.59494      0.35978077     0.056563348    45.193383      2158.825     
      2320   4.64           294.83696      136029.54     -807627.69     -304.628        0.35974769     0.057905433    45.408327      2158.5719    
      2330   4.66           301.52118      137971.25     -807626.9      -306.34394      0.35971447     0.058236987    45.328573      2158.3353    
      2340   4.68           291.79883      138732.95     -807626.36     -305.41468      0.35968111     0.058065717    45.294975      2158.1057    
      2350   4.7            299.03723      134705.04     -807630.41     -302.34606      0.3596476      0.057487664    45.33605       2157.8678    
      2360   4.72           297.60608      132333.82     -807632.97     -299.52881      0.35961396     0.056957325    45.248183      2157.6478    
      2370   4.74           292.79342      127932.39     -807638.85     -293.00332      0.35958017     0.055721697    45.362478      2157.4048    
      2380   4.76           283.35197      128110.86     -807639.04     -291.37848      0.35954624     0.055417923    45.384895      2157.1576    
      2390   4.78           295.98138      126396.33     -807639.69     -292.58989      0.35951216     0.055653599    45.32312       2156.9229    
      2400   4.8            292.67299      133768.78     -807631.57     -300.17823      0.35947795     0.057102412    45.363901      2156.6802    
      2410   4.82           293.34219      134527.32     -807629.22     -302.79572      0.35944359     0.057605839    45.189161      2156.4722    
      2420   4.84           298.51598      138699.6      -807626.3      -306.28741      0.35940909     0.058275713    45.351372      2156.2322    
      2430   4.86           291.04009      136576.03     -807627.12     -304.6319       0.35937446     0.057966316    45.328443      2155.9968    
      2440   4.88           297.85722      136875.76     -807627.8      -304.8692       0.35933967     0.058017084    45.419064      2155.7439    
      2450   4.9            291.06141      129966.42     -807635.04     -296.8206       0.35930475     0.056490913    45.356476      2155.5035    
      2460   4.92           287.43966      128735.04     -807638.04     -293.22442      0.35926969     0.055811935    45.406993      2155.2534    
      2470   4.94           291.76217      125266.39     -807641.34     -290.71209      0.35923448     0.055339164    45.37256       2155.0102    
      2480   4.96           294.15152      130111.4      -807637.12     -295.34982      0.35919913     0.056227522    45.358028      2154.77      
      2490   4.98           286.33552      131308.92     -807633.49     -298.04717      0.35916364     0.056746641    45.364136      2154.5287    
[...]
     98740   197.48         285.26713      134814.97     -807631.17     -19374.643      0.36236891     0.057128171    47.495789      27.570388    
     98750   197.5          289.93953      132648.33     -807631.85     -19381.323      0.36238762     0.057144917    47.60755       27.351464    
     98760   197.52         297.12745      134704.83     -807630.22     -19543.657      0.36240618     0.057620601    47.522209      27.132547    
     98770   197.54         288.45334      132861.68     -807633.23     -19276.161      0.36242459     0.056829055    47.539739      26.913631    
     98780   197.56         288.8783       134004.94     -807632.53     -19322.206      0.36244287     0.056961928    47.51229       26.694718    
     98790   197.58         294.93792      132198.72     -807632.72     -19370.139      0.362461       0.057100381    47.517635      26.475806    
     98800   197.6          296.56482      133696.27     -807631.76     -19442.638      0.36247899     0.057311252    47.638802      26.25689     
     98810   197.62         290.56652      131930.95     -807633.38     -19288.874      0.36249683     0.056855202    47.420096      26.037987    
     98820   197.64         293.47548      133822.85     -807633.22     -19325.104      0.36251453     0.056959209    47.542675      25.819079    
     98830   197.66         289.43166      132397.56     -807631.72     -19392.756      0.36253209     0.05715584     47.521909      25.600174    
     98840   197.68         288.39321      133994.25     -807630.24     -19477.96       0.36254951     0.057404202    47.495978      25.381273    
     98850   197.7          291.8641       131993.76     -807634.22     -19260.996      0.36256678     0.056762076    47.515459      25.162371    
     98860   197.72         289.44634      134058.57     -807632.43     -19355.932      0.36258391     0.057039158    47.527478      24.943471    
     98870   197.74         292.85041      132651.87     -807632.22     -19412.788      0.3626009      0.057204023    47.525458      24.724573    
     98880   197.76         291.52013      133694.97     -807631.7      -19439.417      0.36261774     0.05727983     47.569163      24.505674    
     98890   197.78         279.81338      133711.25     -807632.41     -19299.506      0.36263445     0.056864954    47.512653      24.28678     
     98900   197.8          287.00426      133961.69     -807632.82     -19345.765      0.362651       0.056998649    47.550474      24.067886    
     98910   197.82         292.45271      133581.34     -807632.32     -19438.309      0.36266742     0.057268722    47.395515      23.849001    
     98920   197.84         290.85333      133816.6      -807632.68     -19410.581      0.36268369     0.057184464    47.633033      23.630106    
     98930   197.86         284.08678      133627.91     -807633.07     -19336.949      0.36269982     0.056965007    47.536961      23.411217    
     98940   197.88         286.03812      132854.96     -807633.27     -19359.81       0.36271581     0.05702984     47.546559      23.19233     
     98950   197.9          283.19626      133389.07     -807631.87     -19436.561      0.36273165     0.05725343     47.52265       22.973446    
     98960   197.92         280.31411      132408.23     -807632.52     -19387.057      0.36274735     0.057105138    47.545738      22.754562    
     98970   197.94         282.79669      133270.75     -807633.5      -19357.811      0.36276291     0.057016547    47.488274      22.535683    
     98980   197.96         276.89511      132677.89     -807632.72     -19373.849      0.36277832     0.057061363    47.570933      22.316801    
     98990   197.98         288.21624      134582.22     -807633.04     -19468.487      0.36279359     0.057337683    47.54187       22.097923    
     99000   198            286.94766      132494.49     -807633.78     -19424.806      0.36280872     0.05720665     47.522146      21.879047    
     99010   198.02         280.13487      134123.09     -807633.6      -302.8804       0.3628237      0.057085135    47.720697      21.660164    
     99020   198.04         280.6936       131738.14     -807634.85     -302.01132      0.36283855     0.056919008    47.770626      21.441281    
     99030   198.06         277.51395      133872.33     -807632.22     -304.24638      0.36285324     0.057337919    47.810473      21.222398    
     99040   198.08         276.79927      131291.25     -807634.52     -302.02902      0.3628678      0.056917755    47.681127      21.003523    
     99050   198.1          280.51355      133359.82     -807633.62     -303.41196      0.36288221     0.057176102    47.538949      20.784655    
     99060   198.12         276.35159      131936        -807633.84     -302.74926      0.36289648     0.057048976    47.554438      20.565789    
     99070   198.14         282.34182      134051.12     -807632.7      -304.72839      0.36291061     0.05741968     47.497648      20.346926    
     99080   198.16         273.23411      132695.74     -807632.81     -303.41476      0.36292459     0.057169952    47.713239      20.128057    
     99090   198.18         280.55087      133885.95     -807633.4      -303.77673      0.36293843     0.057235973    47.800848      19.909185    
     99100   198.2          283.59913      132265.85     -807634.91     -302.68049      0.36295213     0.057027272    47.773017      19.690317    
     99110   198.22         276.32612      133646.85     -807633.06     -303.4094       0.36296568     0.05716247     47.579074      19.471459    
     99120   198.24         281.27159      131505.34     -807634.73     -302.35356      0.36297909     0.056961445    47.710648      19.252597    
     99130   198.26         288.30046      132178.75     -807635.8      -302.06177      0.36299236     0.056904394    47.9591        19.033727    
     99140   198.28         282.26842      132141.13     -807634.78     -302.07468      0.36300548     0.056904768    47.928101      18.814861    
     99150   198.3          284.91418      133658.19     -807632.96     -304.05898      0.36301846     0.057276522    47.871039      18.595999    
     99160   198.32         279.25401      133671.41     -807631.97     -304.00694      0.3630313      0.057264694    47.932513      18.377136    
     99170   198.34         285.77563      133513.28     -807632.75     -303.82642      0.36304399     0.057228689    47.873376      18.158278    
     99180   198.36         282.68326      133691.52     -807632.33     -303.51097      0.36305655     0.057167295    47.890253      17.939421    
     99190   198.38         278.49313      134761.77     -807630.93     -304.02345      0.36306895     0.057261865    47.743627      17.720572    
     99200   198.4          297.53465      133024.16     -807634.28     -303.03746      0.36308122     0.057074228    47.796204      17.501722    
     99210   198.42         296.17601      132739.37     -807634.44     -302.35932      0.36309334     0.056944607    47.71033       17.282877    
     99220   198.44         283.56096      133547.92     -807632.09     -302.76356      0.36310532     0.057018857    47.826187      17.064031    
     99230   198.46         288.79571      134131.45     -807631.66     -303.72597      0.36311715     0.057198242    47.87304       16.845184    
     99240   198.48         288.24377      133001.16     -807631.66     -303.53093      0.36312885     0.05715967     47.925181      16.626338    
     99250   198.5          292.77132      133379.7      -807632.1      -303.61185      0.3631404      0.057173091    47.888779      16.407496    
     99260   198.52         288.45907      132722.44     -807631.37     -303.68932      0.3631518      0.057185883    47.882229      16.188655    
     99270   198.54         297.04813      134063.09     -807631.99     -304.16044      0.36316306     0.057272822    47.949705      15.969814    
     99280   198.56         289.5351       132974.32     -807632.02     -303.09192      0.36317418     0.057069874    47.889772      15.750978    
     99290   198.58         310.89528      131996.02     -807635.35     -302.65827      0.36318516     0.056986498    47.797848      15.532146    
     99300   198.6          288.01465      132652.9      -807632.26     -302.64186      0.36319599     0.05698171     47.92053       15.313312    
     99310   198.62         287.05587      133193.57     -807631.37     -303.41015      0.36320668     0.057124682    47.743515      15.094486    
     99320   198.64         290.30666      133618.35     -807632.06     -303.13441      0.36321723     0.05707111     47.904449      14.875657    
     99330   198.66         298.46876      133468.22     -807633.72     -302.65689      0.36322763     0.056979576    47.890381      14.65683     
     99340   198.68         295.28962      133566.98     -807632.04     -303.88994      0.36323789     0.057210099    47.896549      14.438005    
     99350   198.7          286.74117      133628.8      -807630.58     -304.20457      0.36324801     0.057267737    47.984833      14.219179    
     99360   198.72         296.52472      133174.97     -807632.65     -303.51538      0.36325798     0.057136423    47.864606      14.000359    
     99370   198.74         299.83362      132971.75     -807634.22     -302.43069      0.36326781     0.056930691    47.882261      13.781541    
     99380   198.76         288.15867      133339.85     -807631.41     -303.70717      0.3632775      0.057169458    47.859838      13.562725    
     99390   198.78         291.84093      133908.05     -807631.65     -304.02788      0.36328704     0.057228324    47.949014      13.343909    
     99400   198.8          291.32917      133216.21     -807633        -302.64939      0.36329644     0.056967371    47.898888      13.125096    
     99410   198.82         290.61585      133414.43     -807632.96     -302.65186      0.3633057      0.056966383    47.71979       12.90629     
     99420   198.84         288.55659      134032.14     -807631.1      -304.35402      0.36331481     0.057285335    47.928261      12.68748     
     99430   198.86         291.40094      133247.24     -807631.72     -304.26104      0.36332378     0.057266421    47.85336       12.468675    
     99440   198.88         293.59669      132620.9      -807633.29     -303.06505      0.36333261     0.057039931    47.860958      12.249871    
     99450   198.9          288.97153      133229.8      -807631.97     -303.81374      0.36334129     0.057179477    47.776795      12.031071    
     99460   198.92         293.24934      133522.79     -807631.33     -305.22286      0.36334983     0.057443331    47.822625      11.812272    
     99470   198.94         297.87322      133750.71     -807631.99     -305.29751      0.36335823     0.057456051    47.921765      11.593472    
     99480   198.96         291.62283      132667.07     -807633.88     -302.69259      0.36336648     0.05696452     47.851697      11.374676    
     99490   198.98         288.86024      132653.49     -807633.13     -303.15966      0.3633746      0.057051145    47.842343      11.155883    
     99500   199            287.26175      133219.23     -807633.26     -302.99249      0.36338256     0.057018435    47.713048      10.937094    
     99510   199.02         276.42245      134022.17     -807631.28     -19432.255      0.36339039     0.057136984    47.444891      10.718313    
     99520   199.04         290.09593      132879.31     -807634.39     -19360.931      0.36339807     0.056926064    47.641671      10.499529    
     99530   199.06         288.38454      133591.76     -807633.25     -19428.159      0.3634056      0.057122547    47.586743      10.280748    
     99540   199.08         294.37851      133327.34     -807633.07     -19503.07       0.363413       0.057341635    47.670063      10.061968    
     99550   199.1          294.49958      133518.78     -807633.39     -19493.448      0.36342025     0.057312202    47.666143      9.8431887    
     99560   199.12         285.64562      133273.63     -807633.31     -19428.016      0.36342736     0.057118708    47.710425      9.6244108    
     99570   199.14         281.18031      132597.73     -807633.47     -19388.603      0.36343432     0.05700174     47.685129      9.4056352    
     99580   199.16         286.24125      132469.95     -807634.09     -19400.112      0.36344114     0.057034508    47.584782      9.1868633    
     99590   199.18         287.52231      131546.41     -807634.17     -19414.636      0.36344782     0.057076157    47.701365      8.968091     
     99600   199.2          284.20837      132831.64     -807634.63     -19362.593      0.36345435     0.056922135    47.695136      8.7493207    
     99610   199.22         284.96541      132979.39     -807634.36     -19394          0.36346074     0.057013464    47.403674      8.5305572    
     99620   199.24         285.0589       133990.09     -807631.87     -19557.885      0.36346699     0.057494255    47.513346      8.3117934    
     99630   199.26         284.79874      132566.63     -807632.56     -19520.286      0.3634731      0.057382764    47.54389       8.0930308    
     99640   199.28         274.67916      134259.88     -807631.6      -19492.05       0.36347906     0.05729882     47.543022      7.8742699    
     99650   199.3          284.66895      132323.81     -807633.96     -19437.828      0.36348487     0.057138514    47.515964      7.6555112    
     99660   199.32         282.73061      133672.29     -807632.46     -19519.737      0.36349055     0.057378393    47.503557      7.4367542    
     99670   199.34         281.42274      131985.8      -807634.79     -19362.976      0.36349608     0.056916726    47.512936      7.2179988    
     99680   199.36         276.48836      133063.68     -807633.82     -19376.125      0.36350147     0.056954536    47.523313      6.9992449    
     99690   199.38         289.72327      131122.28     -807636.53     -19324.264      0.36350671     0.056801273    47.522272      6.7804927    
     99700   199.4          279.85165      133033.93     -807632.74     -19476.947      0.36351181     0.057249262    47.583913      6.5617414    
     99710   199.42         281.18234      132826.12     -807633.49     -19438.026      0.36351677     0.057134083    47.500815      6.3429928    
     99720   199.44         289.29896      133134.7      -807633.94     -19471.542      0.36352158     0.057231836    47.542154      6.1242454    
     99730   199.46         280.21668      134201.64     -807631.54     -19538.813      0.36352625     0.057428827    47.546243      5.9054996    
     99740   199.48         288.91144      134015.23     -807632.59     -19538.844      0.36353078     0.057428203    47.685383      5.6867539    
     99750   199.5          285.94505      133289.95     -807633.22     -19459.228      0.36353516     0.057193508    47.677507      5.4680101    
     99760   199.52         286.96483      132363.05     -807634.14     -19389.789      0.3635394      0.056988752    47.675348      5.2492681    
     99770   199.54         283.99394      132479.95     -807633.7      -19374.523      0.3635435      0.05694324     47.703256      5.0305276    
     99780   199.56         286.35296      132276.24     -807633.52     -19390.586      0.36354745     0.056989831    47.687813      4.8117891    
     99790   199.58         286.47456      132198.92     -807633.15     -19394.657      0.36355126     0.0570012      47.67638       4.5930526    
     99800   199.6          294.47812      132032.51     -807634.07     -19387.69       0.36355493     0.056980148    47.720109      4.3743174    
     99810   199.62         285.39839      134136.34     -807630.03     -19544.021      0.36355845     0.057439047    47.514434      4.1555858    
     99820   199.64         289.97747      133574.99     -807630.53     -19541.387      0.36356183     0.05743077     47.718852      3.9368543    
     99830   199.66         293.11409      134812.62     -807630.06     -19579.234      0.36356507     0.057541488    47.749948      3.7181243    
     99840   199.68         298.3772       132672.94     -807632.76     -19444.601      0.36356816     0.057145329    47.787766      3.499396     
     99850   199.7          301.18802      134164.28     -807632.25     -19488.817      0.36357111     0.05727481     47.642907      3.2806705    
     99860   199.72         298.89167      131481.88     -807634.41     -19326.149      0.36357392     0.056796314    47.70305       3.0619464    
     99870   199.74         292.28345      133043.48     -807632.64     -19369.915      0.36357658     0.056924518    47.71343       2.8432241    
     99880   199.76         285.51138      132254.5      -807632.44     -19324.478      0.3635791      0.056790593    47.671698      2.6245038    
     99890   199.78         285.56381      135441.8      -807629.56     -19497.214      0.36358148     0.057297854    47.665953      2.4057853    
     99900   199.8          297.77877      133235.88     -807631.37     -19490.74       0.36358371     0.057278477    47.485786      2.1870694    
     99910   199.82         290.59255      136363.49     -807628.85     -19581.727      0.3635858      0.057545533    47.308258      1.9683559    
     99920   199.84         302.1166       133968.35     -807631.93     -19491.279      0.36358775     0.057279423    47.520931      1.7496431    
     99930   199.86         299.18786      134615.24     -807630.77     -19536.417      0.36358955     0.057411787    47.530775      1.5309318    
     99940   199.88         296.46419      131738.92     -807633.09     -19367.058      0.36359121     0.05691383     47.550774      1.3122223    
     99950   199.9          305.00408      131955.1      -807634.61     -19347.807      0.36359273     0.056857023    47.536661      1.0935144    
     99960   199.92         284.29121      132529.13     -807631.95     -19338.181      0.3635941      0.056828518    47.669666      0.87480792   
     99970   199.94         293.57933      132955.69     -807632.2      -19410.053      0.36359533     0.057039534    47.596345      0.65610336   
     99980   199.96         292.35506      134077.66     -807631.28     -19460.95       0.36359641     0.057188934    47.537182      0.43740057   
     99990   199.98         297.49519      134497.11     -807631.34     -19508.587      0.36359736     0.057328773    47.552369      0.21869945   
    100000   200            302.17645      135096.82     -807630.75     -19595.113      0.36359816     0.057582916    47.486007      0            
Loop time of 2187 on 64 procs for 100000 steps with 1080 atoms

Performance: 7.901 ns/day, 3.038 hours/ns, 45.725 timesteps/s, 49.383 katom-step/s
90.5% CPU use with 64 MPI tasks x 1 OpenMP threads

MPI task timing breakdown:
Section |  min time  |  avg time  |  max time  |%varavg| %total
---------------------------------------------------------------
Pair    | 1555.5     | 1750.7     | 1923.2     | 241.4 | 80.05
Neigh   | 0.0010827  | 0.0094413  | 0.041942   |  15.7 |  0.00
Comm    | 187.28     | 359.49     | 554.95     | 533.0 | 16.44
Output  | 2.7638     | 3.1374     | 3.4081     |  10.0 |  0.14
Modify  | 65.807     | 66.679     | 67.426     |   5.5 |  3.05
Other   |            | 6.993      |            |       |  0.32

Nlocal:         16.875 ave          22 max          11 min
Histogram: 3 2 4 5 15 11 9 7 4 4
Nghost:        826.188 ave         840 max         814 min
Histogram: 3 8 4 8 10 13 8 4 3 3
Neighs:              0 ave           0 max           0 min
Histogram: 64 0 0 0 0 0 0 0 0 0
FullNghs:      2692.91 ave        3520 max        1724 min
Histogram: 1 3 4 6 15 11 9 8 4 3

Total # of neighbors = 172346
Ave neighs/atom = 159.57963
Neighbor list builds = 3
Dangerous builds = 0

Total wall time: 0:38:56
