
units		metal
atom_style	atomic

read_data ${STRUCTURE}.data
read_data BaTiO3-sc333.data
Reading data file ...
  orthogonal box = (0 0 0) to (11.898253 11.898253 12.912076)
  2 by 4 by 4 MPI processor grid
  reading atoms ...
  135 atoms
  read_data CPU = 0.084 seconds
replicate $L $L $L
replicate 2 $L $L
replicate 2 2 $L
replicate 2 2 2
Replication is creating a 2x2x2 = 8 times larger system...
  orthogonal box = (0 0 0) to (23.796507 23.796507 25.824152)
  2 by 4 by 4 MPI processor grid
  1080 atoms
  replicate CPU = 0.009 seconds

pair_style allegro
pair_coeff	* * ${MODEL}.pth Ba Ti O
pair_coeff	* * BaTiO3-E0.pth Ba Ti O
mass 1 137.3
mass 2 47.9
mass 3 15.9994

timestep 0.002
compute polarization all allegro polarization 3
compute allegro will evaluate the quantity polarization of length 3 (src/compute_allegro.cpp:53)
compute polarizability all allegro polarizability 9
compute allegro will evaluate the quantity polarizability of length 9 (src/compute_allegro.cpp:53)

thermo_style custom pe fmax fnorm spcpu cpuremain

variable efield equal 1e-2*36.36
fix born all addbornforce 0.0 0.0 ${efield}
fix born all addbornforce 0.0 0.0 0.3636

thermo 10
min_style fire
#minimize 0.0 1e-6 100 100
velocity all create ${TEMP} ${SEED} dist gaussian rot yes mom yes
velocity all create 300 ${SEED} dist gaussian rot yes mom yes
velocity all create 300 8860 dist gaussian rot yes mom yes
fix nvt all nvt temp ${TEMP} ${TEMP} $(100*dt)
fix nvt all nvt temp 300 ${TEMP} $(100*dt)
fix nvt all nvt temp 300 300 $(100*dt)
fix nvt all nvt temp 300 300 0.2000000000000000111
run 5000
Neighbor list info ...
  update: every = 1 steps, delay = 0 steps, check = yes
  max neighbors/atom: 2000, page size: 100000
  master list distance cutoff = 8
  ghost atom cutoff = 8
  binsize = 8, bins = 3 3 4
  1 neighbor lists, perpetual/occasional/extra = 1 0 0
  (1) pair allegro/kk, perpetual
      attributes: full, newton on, kokkos_device
      pair build: full/bin/kk/device
      stencil: full/bin/3d
      bin: kk/device
Per MPI rank memory allocation (min/avg/max) = 3.516 | 3.516 | 3.516 Mbytes
    PotEng          Fmax          Fnorm          S/CPU         CPULeft    
-807708.29      1.5954771      37.042857      0              0            
-807646.86      3.3668775      44.948626      2.2908812      2178.2021    
-807637.25      2.7995529      34.877222      25.891066      1183.0907    
-807609.63      3.703312       36.732905      25.896209      851.11665    
-807604.95      4.0209303      49.817296      25.834365      685.05118    
-807567.39      4.1839353      40.848863      25.802535      585.30434    
-807604.16      2.8502491      38.642086      25.925121      518.52639    
-807649.65      3.4575098      33.314116      25.896753      470.7474     
-807683.81      2.6047224      34.114593      25.869849      434.84132    
-807668.69      3.081092       34.148282      25.854998      406.84058    
-807654.65      3.8739363      35.028245      25.915469      384.31841    
-807662.93      2.5915066      27.629184      25.896252      365.83376    
-807627.72      4.0716709      31.622315      25.887997      350.37052    
-807585.6       3.212613       40.492513      25.864194      337.24014    
-807570.18      3.6212567      38.58217       25.912388      325.90532    
-807633.84      3.1429892      34.347862      25.890375      316.04098    
-807654.33      3.7349589      32.065253      25.903307      307.35556    
-807665.75      2.8143202      34.10601       25.91995       299.63949    
-807648.41      4.312076       44.878571      25.917444      292.7389     
-807681.23      2.7456541      36.102599      25.872205      286.54115    
-807643.41      4.4872912      39.275402      25.841074      280.9357     
-807616.73      2.9356124      38.554621      25.919438      275.80056    
-807563.29      4.0008122      45.345087      25.940363      271.09041    
-807607.22      3.995783       48.7996        25.895615      266.77013    
-807615.76      3.8235297      37.86541       25.894514      262.77803    
-807642.04      2.96927        34.823041      25.919865      259.06722    
-807645.11      4.7796924      44.751911      25.91964       255.61225    
-807684.2       2.8738853      37.347642      25.876591      252.39585    
-807665.26      3.2048397      33.988226      25.838719      249.39115    
-807638.67      2.9812427      31.394077      25.909504      246.54981    
-807610.77      3.9777324      32.69511       25.907498      243.87263    
-807606.03      3.5408634      41.297447      25.887248      241.34783    
-807598.89      3.3923098      35.805768      25.798569      238.97611    
-807610.87      3.4440926      31.968998      25.919964      236.69895    
-807645.28      3.346199       29.586756      25.921587      234.53271    
-807675.15      2.8477809      31.092475      25.901784      232.47213    
-807678.45      2.232546       32.341902      25.822689      230.51982    
-807644.88      4.4522869      38.917576      25.920057      228.63391    
-807652.17      2.916102       30.332929      25.930422      226.82507    
-807621.88      3.9842593      34.481033      25.923648      225.09041    
-807602.28      3.9363119      43.781424      25.850013      223.43583    
-807569.27      4.5457184      42.122542      25.897353      221.83519    
-807627.79      3.6312351      35.308416      25.908768      220.2905     
-807649.88      4.6620886      36.40023       25.849579      218.80911    
-807674.44      3.2551696      35.260378      25.877096      217.37321    
-807643.84      5.199946       47.215565      25.917191      215.97791    
-807668.88      2.7529696      35.11793       25.925502      214.62527    
-807646.3       3.5688931      36.932094      25.868447      213.32198    
-807624.53      3.1604623      37.634336      25.86732       212.05705    
-807565.34      4.2699865      43.541746      25.95089       210.81651    
-807603.81      4.2842527      42.607766      25.907516      209.61597    
-807628.35      4.0135671      33.101617      25.88284       208.45063    
-807655.99      2.7956453      31.299365      25.910057      207.31175    
-807646.48      4.3375307      39.07648       25.953594      206.19582    
-807675.26      2.6221678      33.213389      25.912374      205.11201    
-807670.39      2.6019204      30.785105      25.796956      204.06756    
-807642.62      3.1019656      29.78167       25.917871      203.03222    
-807603.63      3.6025726      33.677618      25.923483      202.01902    
-807598.04      3.5656311      37.216135      25.922446      201.02757    
-807608.41      3.8083185      38.936072      25.858986      200.06373    
-807619.43      3.6688497      31.992278      25.917031      199.11278    
-807641.19      3.5223875      32.222013      25.910573      198.18105    
-807664.96      3.4891768      34.074614      25.88335       197.26979    
-807677.24      2.7046917      35.644159      25.820198      196.38175    
-807647.06      4.6068248      39.114465      25.877606      195.50351    
-807635.84      3.4981951      33.528781      25.933264      194.63485    
-807614.63      3.5864573      35.775529      25.916093      193.7825     
-807604.22      3.6730505      45.174308      25.856567      192.94983    
-807580.31      3.7351139      40.952165      25.901592      192.12599    
-807619.51      3.2748288      35.974157      25.923267      191.31283    
-807647.1       3.9475525      36.8131        25.936496      190.51067    
-807675.38      2.9344333      36.132023      25.881128      189.72523    
-807650.23      4.3160351      41.947442      25.836486      188.95485    
-807656.39      3.4236283      34.834652      25.905037      188.18897    
-807644.28      4.3332836      34.049207      25.900449      187.43376    
-807624.14      3.5348774      37.510644      25.907948      186.68775    
-807577.54      3.3860697      38.941164      25.889771      185.95273    
-807592.97      3.0063437      39.037266      25.928811      185.22358    
-807631.9       3.0219201      31.283516      25.857496      184.50899    
-807660.27      3.4222754      30.936445      25.905102      183.79891    
-807652.58      3.0908862      35.662143      23.398542      183.31403    
-807660.76      4.6587733      35.357216      25.464664      182.6512     
-807666.9       2.9497909      32.114771      25.904685      181.96096    
-807643.1       3.9513594      32.670938      25.922944      181.27668    
-807603.77      3.1328164      36.236895      25.945171      180.59787    
-807586.49      4.7492595      38.804528      25.942191      179.92618    
-807610.1       4.0445571      39.482377      25.949892      179.26059    
-807628.91      4.3882373      32.981158      25.939677      178.60217    
-807643.76      2.7637332      33.086255      25.96983       177.94785    
-807654.85      3.9669411      36.408587      25.905369      177.30401    
-807674.13      2.6990213      35.059155      25.821846      176.67159    
-807653.13      3.1721501      34.627371      25.860448      176.04196    
-807631.48      2.8200451      33.229826      25.984171      175.40944    
-807605.93      3.5467506      35.467397      26.001162      174.78115    
-807606.69      3.978276       42.485463      25.970309      174.16002    
-807598.16      3.2530676      37.307633      25.95979       173.54452    
-807620.02      3.3673786      34.228576      25.971911      172.93306    
-807644.33      3.3940404      34.810735      25.975708      172.32604    
-807671.94      3.0201039      35.239554      18.121126      172.40805    
-807659.09      3.8119282      36.079476      25.8967        171.80611    
-807647.34      3.4341786      33.982347      25.952845      171.20514    
-807636.92      3.8487657      32.449882      25.93827       170.60931    
-807622.69      3.7942461      35.826661      25.927077      170.01824    
-807593.17      3.174765       37.154652      25.938782      169.43049    
-807594.1       2.7995383      36.580862      25.958345      168.84553    
-807631.2       3.5034768      30.930618      25.930505      168.26592    
-807659.36      2.6761425      31.768305      25.940263      167.68944    
-807660.35      2.7302316      33.809999      25.924557      167.11738    
-807652.88      4.0847733      35.8653        25.932572      166.54834    
-807657.82      2.9405958      31.994754      25.91143       165.98379    
-807641.57      2.9940749      31.578364      25.915594      165.42228    
-807610.96      3.388613       35.200703      25.944568      164.86241    
-807582.57      4.0782918      37.929762      25.962864      164.30472    
-807611.37      2.9955891      36.289232      25.933591      163.75158    
-807636.3       3.0615363      31.724252      25.942415      163.20093    
-807652.33      4.2875578      32.365574      25.921276      162.6542     
-807648.92      3.8209386      37.81155       25.92781       162.10993    
-807668.28      4.4248629      34.186608      25.896466      161.56989    
-807652.8       2.9467143      33.764219      25.858275      161.03431    
-807633.03      3.7099422      32.467723      25.92084       160.49825    
-807596.4       3.62208        36.215452      25.939196      159.96382    
-807603.7       3.648423       40.354544      25.898958      159.43373    
-807609.2       3.5945407      35.843048      25.911453      158.90542    
-807632.01      3.1447943      32.619046      25.959931      158.37722    
-807640.35      4.3642423      36.481402      25.885576      157.85469    
-807667.44      3.0495834      34.193884      25.866936      157.33516    
-807660.06      3.9940448      35.430463      25.843256      156.8188     
-807647.47      3.5211393      32.921394      25.884303      156.30268    
-807622.6       4.1482501      34.156843      25.940145      155.78616    
-807616.41      3.1405372      36.015507      25.947342      155.27137    
-807600.65      3.3302106      37.628553      25.904628      154.76038    
-807605.42      3.7105043      35.020131      25.941729      154.24974    
-807628.31      3.2442494      31.716723      25.963975      153.74007    
-807658.16      2.9863648      32.21536       25.918906      153.23413    
-807663.65      2.8667081      32.806399      25.797378      152.73494    
-807651.48      3.2000794      34.780411      25.862833      152.23476    
-807645.99      3.2130223      32.358477      25.914905      151.73416    
-807634.22      3.23861        31.910053      25.921116      151.23499    
-807612.95      3.2242586      36.701531      25.939774      150.73674    
-807587.23      3.6248278      38.037545      25.962374      150.23924    
-807610.81      3.8033808      35.423362      25.927453      149.74468    
-807637.26      3.6835201      33.307203      25.953837      149.25067    
-807659.59      3.1362119      32.775074      25.929289      148.7591     
-807648.61      3.7832378      37.585629      25.920352      148.26935    
-807658.7       3.0658381      33.635667      25.928265      147.78075    
-807648.66      3.4087617      33.849496      25.892054      147.29489    
-807633.17      2.9393026      33.457274      25.934004      146.80888    
-807592.45      4.2430504      37.768062      25.966753      146.32307    
-807600.05      3.6349762      38.466411      25.980162      145.83815    
-807615.6       4.3211304      35.667065      25.861469      145.35873    
-807642.46      2.7813888      32.236275      25.881926      144.87984    
-807641.62      4.7056044      36.915173      25.905795      144.40135    
-807661.55      3.4398609      33.937688      25.915008      143.92376    
-807659.03      3.2201976      34.035031      25.857238      143.44932    
-807647.21      3.2226459      31.718274      25.867917      142.97567    
-807615.66      3.3455263      33.945574      25.93074       142.50105    
-807607.01      3.0268446      35.002174      25.896339      142.0287     
-807607.19      3.2993849      36.337065      25.840896      141.55927    
-807618.38      3.3485254      33.07068       25.88881       141.08932    
-807632.02      3.432572       32.370781      26.260137      140.60871    
-807653.42      3.3324944      33.341791      26.295362      140.12827    
-807664.71      2.9143453      34.106238      26.234804      139.65092    
-807650.38      3.3906305      35.313465      26.271812      139.17364    
-807637.8       3.4400752      33.443898      26.300361      138.69669    
-807622.03      3.9399814      34.688804      26.296917      138.22102    
-807611.57      3.4955557      38.561564      26.271744      137.74725    
-807596.61      3.5074222      37.1237        26.275688      137.27448    
-807615.15      3.199365       34.498611      26.316569      136.80164    
-807638.29      3.1859264      33.000909      26.292431      136.33059    
-807661.98      3.0140124      33.483714      26.237333      135.86218    
-807650.57      3.8322671      35.778425      26.207275      135.39565    
-807652.23      2.9291368      32.749261      26.254681      134.92879    
-807640.66      3.2853097      32.4924        26.301245      134.46163    
-807629.97      2.9598836      33.432094      26.267242      133.99642    
-807596.88      2.9369252      36.152075      26.249165      133.53267    
-807601.71      3.3515433      36.806794      26.27751       133.06909    
-807622.27      3.3912809      33.21255       26.272524      132.6066     
-807649.97      3.309166       31.962471      26.256269      132.14546    
-807650.07      4.5765783      34.25011       26.280187      131.6846     
-807656.06      2.658242       33.299264      26.293835      131.22428    
-807654.79      2.5035556      32.821531      26.253722      130.76588    
-807644.61      2.8643143      31.857111      26.252452      130.30837    
-807614.43      3.1568006      33.907901      26.259308      129.85153    
-807599.22      3.4599662      36.875593      26.299037      129.39452    
-807610.35      3.5166445      36.231911      26.245618      128.93968    
-807626.95      2.7374149      33.363246      26.289244      128.48456    
-807640.46      3.5878078      32.47719       26.300205      128.02997    
-807650.29      3.4559916      34.006568      26.295936      127.57628    
-807664.06      2.4268914      32.442344      26.281012      127.12373    
-807650.43      3.1757205      33.291959      26.252168      126.67264    
-807635.78      2.3341695      30.865949      26.233755      126.22271    
-807614.97      2.7590383      32.436102      26.292942      125.77212    
-807611.62      3.2429143      35.567715      26.291749      125.32229    
-807608.88      2.8147394      34.061683      26.306511      124.87284    
-807624.25      2.969848       32.471643      26.293091      124.42441    
-807639.9       3.1554605      32.972668      26.30007       123.97652    
-807659.02      2.8706603      33.043228      26.25702       123.53028    
-807653.48      3.4722245      34.333669      26.210642      123.08575    
-807646.26      3.3406646      33.598648      26.269608      122.64055    
-807632.69      3.0287428      32.990697      26.304786      122.19522    
-807622.64      3.0250394      35.423039      26.316447      121.7503     
-807604.24      3.0705048      35.839774      26.27818       121.30684    
-807605.43      2.7477326      35.670897      26.293961      120.86367    
-807625.61      2.8655589      32.793587      26.289934      120.42121    
-807648.99      3.0975459      32.341168      26.271223      119.97975    
-807651.66      3.521455       34.331678      26.251417      119.53929    
-807649.56      2.8727076      34.53758       26.277042      119.09888    
-807645.76      2.5503611      32.854011      26.258239      118.65944    
-807637         2.8172888      32.21327       26.297235      118.21976    
-807614.31      2.9707152      34.633106      26.290856      117.78078    
-807598.01      3.0646569      36.383714      26.276406      117.34265    
-807611.29      3.4397499      35.414726      26.234452      116.9059     
-807631.59      2.6481365      33.190593      26.233659      116.46969    
-807645.97      3.7911617      32.929878      26.250156      116.03368    
-807647.91      3.0996841      35.2074        26.244098      115.59829    
-807655.13      3.2235957      33.896366      26.257001      115.16316    
-807648.33      2.8687159      33.007946      26.274115      114.72821    
-807631.71      2.6912626      32.776767      26.28603       114.29354    
-807604.1       3.5993735      35.645879      26.313372      113.85885    
-807606.17      3.4219517      37.583302      26.271806      113.42543    
-807612.53      3.410852       35.953421      26.281465      112.99231    
-807632.01      3.1071657      33.209645      26.306178      112.55922    
-807640.76      4.2356843      34.491506      26.280766      112.12707    
-807658.61      2.5737228      32.851193      26.258292      111.69578    
-807653.66      3.3215866      33.873488      26.23179       111.26542    
-807646.06      3.6841491      32.063102      26.292073      110.83443    
-807622.63      3.8491703      33.423087      26.297863      110.40378    
-807614.03      3.5101959      35.598107      26.251893      109.97438    
-807607.32      3.2257679      35.59088       26.182076      109.54661    
-807613.76      2.4686044      34.74694       26.19707       109.11899    
-807628.62      3.7413727      33.21377       26.204439      108.69164    
-807650.41      3.4640211      32.681973      26.193035      108.26488    
-807657.48      2.9268403      33.269573      26.197041      107.83844    
-807649.53      2.8858487      33.153186      26.237995      107.4117     
-807639.2       2.948785       33.035919      26.290412      106.98448    
-807630.77      3.1388229      32.577703      26.292391      106.55764    
-807616.32      3.062558       35.074299      26.24456       106.13196    
-807603.04      3.4088723      35.535573      26.247413      105.70661    
-807614.62      2.8932269      34.876626      26.266929      105.28133    
-807637.12      3.449685       32.836251      26.247192      104.85673    
-807652.44      3.5689036      32.976924      26.20021       104.43323    
-807647.09      3.8594052      35.218927      26.204516      104.01001    
-807649.68      2.411301       32.983663      26.215494      103.58697    
-807642.9       2.7078974      32.503691      26.2082        103.16438    
-807630.2       2.5815086      32.748162      26.215278      102.74202    
-807605.43      3.1129888      35.298835      26.266673      102.31922    
-807608.92      2.964262       35.607017      26.274993      101.89663    
-807622.09      3.0989557      33.487842      26.223032      101.47516    
-807640.66      2.8847677      32.4791        26.225058      101.05398    
-807643.41      3.0462399      34.005264      26.268746      100.63248    
-807653.61      3.0351984      33.42868       26.287835      100.21103    
-807650.49      2.5731478      33.751781      26.281832      99.789999    
-807643.48      2.8642525      31.419456      26.264038      99.369539    
-807618.11      3.1604654      34.297706      26.296926      98.948929    
-807611.36      3.9851244      35.494304      26.280582      98.528865    
-807610.69      3.1287831      36.694697      26.262034      98.109369    
-807623.93      2.9599405      33.800435      26.220174      97.690755    
-807632.9       3.0451694      32.802526      26.280351      97.271606    
-807649.46      2.8038954      32.54608       26.276049      96.852814    
-807655.6       2.5634934      33.196401      26.207231      96.435248    
-807648.98      3.2191742      33.20854       26.188599      96.018208    
-807634.38      3.6951075      32.762071      26.255277      95.600551    
-807623.22      2.9333039      33.333864      26.274434      95.182922    
-807614.42      3.1985589      35.876341      26.200215      94.766546    
-807608.64      2.8529619      36.282879      26.256086      94.349707    
-807619.59      3.5932144      34.552066      26.235         93.933411    
-807638.82      3.7208643      33.387563      26.284408      93.516749    
-807652.95      2.9115786      33.554678      26.281205      93.100398    
-807651.38      3.8492075      33.986902      26.30569       92.684008    
-807645.01      4.3252376      33.74875       26.290595      92.268076    
-807635.7       4.0842276      33.356352      26.274887      91.8526      
-807627.28      4.0788199      34.090355      26.280124      91.437318    
-807608.03      3.4024455      34.697962      26.290571      91.022165    
-807606.73      4.1093948      35.829353      26.233246      90.607957    
-807624.02      3.6759764      33.22815       26.207749      90.194297    
-807645.28      3.2849519      32.627293      26.191162      89.781068    
-807646.3       3.132174       34.850407      26.215402      89.367779    
-807650.58      3.9348445      34.005154      26.238471      88.954458    
-807645.52      4.0516356      33.982904      26.240717      88.541329    
-807639.59      3.4103871      33.224777      26.256717      88.128252    
-807617.84      3.0200771      34.121176      26.270495      87.715248    
-807605.44      2.8813333      36.194853      26.305371      87.302081    
-807612.05      3.5092692      35.19926       26.299553      86.889213    
-807630.83      3.1077848      33.307321      26.274872      86.47685     
-807640.05      3.6191101      32.919804      26.289619      86.064548    
-807646.76      2.7644555      34.24285       26.271291      85.652671    
-807652.48      3.1061838      34.168429      26.275553      85.240965    
-807647.62      3.2115423      34.189887      26.209491      84.830189    
-807629.75      3.0723026      33.598447      26.243392      84.419253    
-807613.4       4.389976       34.352155      26.287174      84.00806     
-807611.38      4.16647        36.466112      26.251769      83.597451    
-807615.32      3.854288       35.221279      26.208277      83.1875      
-807627.42      3.1359459      32.953078      26.183729      82.777998    
-807638.22      3.8637514      33.742528      26.221909      82.368292    
-807654.51      3.4713965      32.886001      26.209141      81.958909    
-807649.15      3.8419326      34.770139      26.176606      81.550043    
-807641.52      3.3292443      33.951914      26.176745      81.141358    
-807625.69      3.3209603      33.70363       26.262512      80.732       
-807621.73      3.281591       35.092859      26.246562      80.322991    
-807607.97      3.0460688      36.232459      26.242935      79.914204    
-807614.95      3.1580245      35.430016      26.258909      79.505447    
-807626.73      4.6074606      34.489982      26.273461      79.096737    
-807648.2       3.0254043      33.590968      26.278823      78.688162    
-807648.61      4.1530391      35.466139      26.25432       78.280003    
-807647.74      4.0055056      34.393553      26.252265      77.872042    
-807638.01      4.0380784      34.091392      26.265561      77.464136    
-807632.18      3.2008516      33.63408       26.250965      77.056541    
-807617.13      3.264485       34.265222      26.242829      76.649195    
-807607.9       2.9056732      34.698421      26.224968      76.24218     
-807615.19      3.1158052      33.779704      26.274666      75.834887    
-807636.93      2.9226476      32.620235      26.235165      75.428117    
-807646.24      3.8067786      33.515341      26.198001      75.02184     
-807646.91      2.6783383      33.92062       26.1941        74.615754    
-807648.23      3.1788232      33.938157      26.177243      74.209972    
-807643.88      3.1649139      33.315258      26.201151      73.804134    
-807630.04      3.1392573      33.681216      26.239208      73.398124    
-807610.48      4.0614524      35.589553      26.271378      72.992       
-807611.81      3.4964692      35.314711      26.3089        72.585724    
-807622.66      2.9286915      34.194838      26.290495      72.179764    
-807636.71      3.8816788      32.870856      26.283676      71.774021    
-807639.95      3.6505601      34.138163      26.251355      71.3687      
-807651.06      2.623536       33.437999      26.236309      70.963652    
-807650.12      2.5239973      33.234833      26.247626      70.558662    
-807641.13      3.8926757      32.78364       26.281596      70.15355     
-807620.93      3.6381397      34.191025      26.287662      69.748543    
-807615.5       3.2111764      35.267282      26.257551      69.343923    
-807613.62      3.5598683      35.856509      26.264545      68.939393    
-807624.59      3.0961811      33.945291      26.239468      68.535202    
-807630.83      3.27848        33.738848      26.253386      68.131046    
-807646.99      3.1828994      33.851414      26.236775      67.727156    
-807651.64      2.9889441      34.176662      26.204488      67.323647    
-807646.77      3.0077632      33.494222      26.182647      66.920432    
-807632.79      3.1807654      33.551197      26.239093      66.516929    
-807625.03      3.1582088      33.095716      26.292808      66.113171    
-807615.42      3.4748962      35.896817      26.302733      65.709481    
-807611.89      2.8308366      35.381885      26.270448      65.306162    
-807618.76      3.4867688      34.466556      26.28205       64.902896    
-807639.07      3.1294724      33.488148      26.274989      64.499814    
-807648.71      3.2878187      34.089431      26.236304      64.097134    
-807647.57      3.1335136      34.297261      26.20728       63.694782    
-807641.14      4.054559       34.165138      26.223954      63.292438    
-807635.71      3.1376069      33.718392      26.244691      62.890077    
-807624.13      2.8024708      34.960671      26.25785       62.487752    
-807607.95      3.5536773      35.337093      26.264625      62.085508    
-807610.33      3.5407893      36.166123      26.282141      61.683274    
-807626.28      3.2519783      33.316884      26.293149      61.281094    
-807641.25      3.6990656      33.89678       26.257324      60.879271    
-807643.88      3.5048012      34.578731      26.253472      60.477594    
-807647.23      3.6758678      34.627217      26.272876      60.075913    
-807645.49      3.1015969      34.016441      26.2657        59.674398    
-807635.48      3.3380677      34.303958      26.264881      59.273007    
-807616.65      3.8077779      35.068319      26.234837      58.871919    
-807610.21      3.560088       35.932054      26.251123      58.470844    
-807614.57      3.011715       34.927011      26.233981      58.069988    
-807629.79      2.8091237      34.1396        26.210152      57.669385    
-807636.99      3.525537       34.335258      26.20643       57.268912    
-807645.8       3.8048844      34.392602      26.180568      56.868697    
-807650.1       3.9018962      34.370346      26.16928       56.468651    
-807644.97      3.1678276      33.637802      26.160292      56.068757    
-807629.72      3.8842342      34.049352      26.24252       55.668491    
-807616.2       3.7630587      35.719414      26.246831      55.268307    
-807614.14      3.6308963      35.267872      26.19476       54.868521    
-807616.27      4.3002454      36.047711      26.194904      54.468833    
-807626.24      3.1384926      33.94448       26.260849      54.068883    
-807639.28      3.2734373      33.540725      26.283564      53.668915    
-807650.8       3.0771213      33.778701      26.255041      53.269207    
-807649.13      3.3385378      34.358388      26.209188      52.869846    
-807640.78      3.7524596      33.641095      26.168989      52.470794    
-807629.49      3.1611561      33.285884      26.26649       52.071325    
-807623.13      3.6411518      33.664401      26.266827      51.671956    
-807613.38      3.0216978      35.101723      26.271845      51.272663    
-807616.9       3.1682812      34.186516      26.269748      50.873481    
-807628.64      3.0982136      33.891466      26.304554      50.474225    
-807644.64      3.7217687      33.31762       26.27751       50.075204    
-807647.62      2.8295628      34.282136      26.214279      49.676592    
-807646.22      3.7028816      34.397103      26.217289      49.278056    
-807638.25      3.238507       34.511151      26.210258      48.879645    
-807631.71      3.6124017      33.993836      26.180635      48.481464    
-807617.49      3.5356376      34.72481       26.214663      48.08321     
-807611.36      3.0899394      35.316688      26.211774      47.685057    
-807618.79      2.6630951      33.363791      26.201807      47.287038    
-807635.15      2.9302335      32.925908      26.214687      46.889046    
-807643.49      3.126722       32.334379      26.233265      46.491057    
-807646.88      2.7233269      33.093988      26.237577      46.093137    
-807646.32      3.4601273      34.063533      26.223464      45.695366    
-807642.27      3.4400155      32.700158      26.223632      45.29768     
-807626.97      3.6391383      33.198671      26.272071      44.89987     
-807615.16      2.9146417      34.12142       26.27251       44.502148    
-807612.86      3.5289506      35.872265      26.251932      44.1046      
-807623.82      2.9514249      34.060873      26.241034      43.707183    
-807631.94      3.249446       33.505522      26.25057       43.30981     
-807642.3       2.7233539      32.675119      26.251662      42.912517    
-807648.23      3.6904918      33.644509      26.225846      42.515411    
-807647.58      4.0333958      33.443526      26.177419      42.118577    
-807637.66      3.1739379      32.867774      26.162978      41.721875    
-807625.21      2.8744669      33.028216      26.178452      41.325186    
-807616.62      2.9271794      34.569157      26.273773      40.928208    
-807613.91      3.452987       36.261871      26.271483      40.531321    
-807623.28      3.4517947      34.652408      26.260189      40.134557    
-807631.18      3.8792088      34.562666      26.275788      39.737817    
-807644.7       3.0743151      33.331358      26.22759       39.341331    
-807647.94      2.6402713      33.696722      26.21799       38.944956    
-807644.93      3.5656574      34.128222      26.266476      38.548484    
-807632.85      3.2312411      34.151745      26.255638      38.152128    
-807626.04      3.0209463      33.634728      26.221288      37.755967    
-807615.74      3.5921861      35.36429       26.280679      37.359678    
-807614.28      3.8910071      36.017558      26.238683      36.963606    
-807622.35      4.1780994      34.395226      26.224491      36.567656    
-807636.23      3.0585731      33.810688      26.219391      36.171793    
-807645.39      3.8432313      33.193108      26.237356      35.775944    
-807647.32      2.6913254      34.270163      26.180626      35.380347    
-807640.67      3.6133597      33.78124       26.211976      34.984718    
-807634.2       3.0607549      32.984758      26.251306      34.589036    
-807624.41      3.0347506      34.065694      26.2565        34.193409    
-807614.12      2.8302631      34.751635      26.233919      33.797921    
-807616.11      2.9145593      34.76902       26.242612      33.402477    
-807625.49      3.5134431      33.128297      26.224539      33.007154    
-807639.02      3.6044088      33.458062      26.230799      32.611881    
-807644.34      2.9580753      32.749529      26.206166      32.216745    
-807645.05      3.2026461      33.623382      26.177261      31.821756    
-807641.36      3.437832       34.08381       26.192551      31.426785    
-807633.57      3.1104616      33.983229      26.220664      31.031801    
-807620.51      3.0708268      34.287182      26.234183      30.636844    
-807612.36      3.2505344      35.518913      26.258754      30.241888    
-807616.64      3.5190987      35.171434      26.2565        29.847004    
-807627.61      2.9115746      33.775233      26.26332       29.452169    
-807636.44      3.1016732      33.745753      26.300061      29.057308    
-807644.98      2.7130758      33.5324        26.278388      28.662569    
-807644.95      3.556772       34.405432      26.2653        28.267927    
-807641.82      3.5196406      33.556853      26.238943      27.873415    
-807630.77      2.7217512      33.55946       26.241405      27.478958    
-807619.42      2.6122912      34.446264      26.248962      27.084546    
-807614.54      3.5186768      34.552263      26.278537      26.690129    
-807619.61      3.1979954      34.309998      26.283713      26.295765    
-807627.9       3.6555254      33.241997      26.309929      25.901406    
-807637.86      2.7780232      33.235677      26.305511      25.507123    
-807644.57      3.3256057      34.22165       26.260175      25.113001    
-807644.96      2.926991       34.155133      26.218239      24.719028    
-807637.6       3.9131398      34.158349      26.203696      24.325143    
-807629.85      3.2494732      33.929608      26.242737      23.931234    
-807619.73      2.9718064      34.793667      26.248678      23.537372    
-807615.85      3.1909968      34.775022      26.213578      23.143636    
-807619.55      3.1280822      34.139184      26.214807      22.749954    
-807629.71      3.1552704      32.642162      26.259269      22.356243    
-807640.03      3.1836101      32.869656      26.249131      21.96261     
-807644.62      3.6955627      33.750093      26.248765      21.569034    
-807644.39      3.1473123      33.06545       26.234822      21.175539    
-807637.61      3.6392596      33.052772      26.248847      20.782074    
-807630.06      2.6165844      32.735184      26.234241      20.388691    
-807620.73      3.1271835      34.044098      26.247249      19.99534     
-807617.26      2.9266132      34.397225      26.286169      19.601981    
-807619.92      2.692949       34.338621      26.2838        19.208684    
-807632.49      2.4767649      33.325796      26.252524      18.815492    
-807640.35      2.8113634      33.160747      26.230761      18.422386    
-807644.42      3.4227111      33.086157      26.278537      18.029263    
-807643.43      2.5013216      32.42333       26.278204      17.636195    
-807639.23      2.8390377      32.136309      26.257969      17.24321     
-807628.57      3.0357043      32.503124      26.266524      16.850267    
-807621.49      2.7849859      32.961137      26.293801      16.457342    
-807616.49      2.9528809      33.60966       26.2552        16.064521    
-807626.43      2.7455791      32.567004      26.208123      15.671811    
-807632.77      2.7322409      32.780078      26.236144      15.279116    
-807640.57      3.116128       32.48274       26.223363      14.886486    
-807644.59      3.678159       32.927357      26.22294       14.493904    
-807643.68      3.1002253      33.219787      26.255942      14.101335    
-807637.25      3.5950064      32.697242      26.28093       13.708788    
-807627.46      3.1918054      32.613979      26.296085      13.316277    
-807619.04      3.1505819      33.720919      26.299186      12.923815    
-807619.5       2.8740138      33.85758       26.249655      12.531454    
-807624.76      2.5696412      33.506908      26.243035      12.139149    
-807634.25      3.0880023      32.717347      26.25083       11.746884    
-807640.69      3.058057       33.330758      26.263797      11.354656    
-807645.02      3.1529221      32.952735      26.175433      10.962552    
-807642.2       3.1768224      32.95114       26.194214      10.570475    
-807633.41      2.9818837      33.229547      26.265546      10.178385    
-807626.33      2.7827969      33.611664      26.269936      9.78634      
-807617.51      3.2632312      34.984284      26.285185      9.3943312    
-807618.47      3.193198       34.78779       26.24635       9.002398     
-807623.59      3.9510694      34.182923      26.229541      8.6105218    
-807635.19      2.9462623      33.112043      26.241087      8.2186827    
-807638.74      3.8683057      35.271952      26.233395      7.826893     
-807644.99      2.8981274      33.015113      26.200517      7.4351663    
-807637.95      3.7813707      34.486053      26.22466       7.0434681    
-807633.31      2.8058364      33.27082       26.276097      6.6517867    
-807623.58      4.0529795      33.892756      26.302737      6.2601384    
-807618.26      3.9591363      34.573353      26.288182      5.8685439    
-807618.08      3.9732178      35.311783      26.247625      5.4770124    
-807627.72      2.8258617      33.252243      26.251008      5.0855229    
-807634.76      3.4490167      33.380075      26.286609      4.6940639    
-807641.06      2.7803319      33.735621      26.293371      4.3026479    
-807642.29      2.8374611      33.598185      26.286498      3.9112792    
-807639.25      3.5279386      33.627825      26.293917      3.5199531    
-807631.87      2.5708125      32.756863      26.244445      3.1286834    
-807623.24      3.5410087      34.124427      26.239895      2.7374562    
-807618         3.182756       34.568961      26.219809      2.3462735    
-807619.03      3.6089075      35.544601      26.236851      1.9551279    
-807626.84      3.9864789      34.842371      26.233621      1.564023     
-807635.43      3.2409436      33.802705      26.23425       1.1729579    
-807640.42      3.8649379      34.201957      26.192858      0.78193501   
-807640.93      3.5147635      34.0326        26.183757      0.39094937   
-807638.5       3.8349139      33.681606      26.196155      0            
Loop time of 195.467 on 32 procs for 5000 steps with 1080 atoms

Performance: 4.420 ns/day, 5.430 hours/ns, 25.580 timesteps/s, 27.626 katom-step/s
79.3% CPU use with 32 MPI tasks x 1 OpenMP threads

MPI task timing breakdown:
Section |  min time  |  avg time  |  max time  |%varavg| %total
---------------------------------------------------------------
Pair    | 101.33     | 144.73     | 191.36     | 306.4 | 74.04
Neigh   | 0          | 0          | 0          |   0.0 |  0.00
Comm    | 1.7998     | 48.432     | 91.831     | 529.6 | 24.78
Output  | 0.02781    | 0.029062   | 0.036256   |   0.8 |  0.01
Modify  | 1.9337     | 1.9472     | 1.9574     |   0.4 |  1.00
Other   |            | 0.3291     |            |       |  0.17

Nlocal:          33.75 ave          48 max          21 min
Histogram: 8 8 0 0 0 0 0 8 0 8
Nghost:        1106.25 ave        1119 max        1092 min
Histogram: 8 0 8 0 0 0 0 0 8 8
Neighs:              0 ave           0 max           0 min
Histogram: 32 0 0 0 0 0 0 0 0 0
FullNghs:       5494.5 ave        7896 max        3378 min
Histogram: 8 8 0 0 0 0 0 8 0 8

Total # of neighbors = 175824
Ave neighs/atom = 162.8
Neighbor list builds = 0
Dangerous builds = 0

reset_timestep 0


variable interval equal 1000
thermo 10

variable nintervals equal $(v_PERIOD/v_interval)
variable nintervals equal 100
variable efield equal 1e-2*36.36*cos((step/${PERIOD})*2*3.14)
variable efield equal 1e-2*36.36*cos((step/100000)*2*3.14)
fix born all addbornforce 0.0 0.0 v_efield

variable Px equal f_born[1]+c_polarization[1]
variable Py equal f_born[2]+c_polarization[2]
variable Pz equal (f_born[3]+c_polarization[3])/vol
variable pe equal pe

fix aveP all ave/time 1 $(v_interval/2) ${interval} v_efield v_Pz v_pe f_born file Pz.${MODEL}.${STRUCTURE}.${TEMP}.$L.${ITER}
fix aveP all ave/time 1 500 ${interval} v_efield v_Pz v_pe f_born file Pz.${MODEL}.${STRUCTURE}.${TEMP}.$L.${ITER}
fix aveP all ave/time 1 500 1000 v_efield v_Pz v_pe f_born file Pz.${MODEL}.${STRUCTURE}.${TEMP}.$L.${ITER}
fix aveP all ave/time 1 500 1000 v_efield v_Pz v_pe f_born file Pz.BaTiO3-E0.${STRUCTURE}.${TEMP}.$L.${ITER}
fix aveP all ave/time 1 500 1000 v_efield v_Pz v_pe f_born file Pz.BaTiO3-E0.BaTiO3-sc333.${TEMP}.$L.${ITER}
fix aveP all ave/time 1 500 1000 v_efield v_Pz v_pe f_born file Pz.BaTiO3-E0.BaTiO3-sc333.300.$L.${ITER}
fix aveP all ave/time 1 500 1000 v_efield v_Pz v_pe f_born file Pz.BaTiO3-E0.BaTiO3-sc333.300.2.${ITER}
fix aveP all ave/time 1 500 1000 v_efield v_Pz v_pe f_born file Pz.BaTiO3-E0.BaTiO3-sc333.300.2.8

thermo_style custom step time temp press pe f_born v_efield v_Pz spcpu cpuremain

# dump 4a all custom 1000 dump.hyst.${MODEL}.${STRUCTURE}.${TEMP}.$L.${ITER}.bin id type xu yu zu fx fy fz
# dump_modify 4a sort id

fix nvt all nvt temp ${TEMP} ${TEMP} $(100*dt)
fix nvt all nvt temp 300 ${TEMP} $(100*dt)
fix nvt all nvt temp 300 300 $(100*dt)
fix nvt all nvt temp 300 300 0.2000000000000000111

run $(v_PERIOD)
run 100000
WARNING: non-constant efield is experimental, strongly distrust scalar/vector output (src/fix_addbornforce.cpp:193)
Per MPI rank memory allocation (min/avg/max) = 3.516 | 3.516 | 3.516 Mbytes
   Step          Time           Temp          Press          PotEng         f_born        v_efield         v_Pz          S/CPU         CPULeft    
         0   0              297.21096      127303.62     -807638.5      -295.75976      0.3636         0.055624065    0              0            
        10   0.02           300.13995      134869.57     -807629.8      -304.86548      0.36359993     0.057336605    29.35464       3406.294     
        20   0.04           313.54523      139701.45     -807624.02     -312.59177      0.36359971     0.058789739    29.358636      3405.7128    
        30   0.06           300.43851      144598.2      -807618.23     -316.52871      0.36359935     0.059530225    29.393267      3403.9547    
        40   0.08           302.08703      140099.18     -807622.83     -312.26499      0.36359885     0.058728418    29.376285      3403.3968    
        50   0.1            308.90962      135981.22     -807629.51     -306.50915      0.36359821     0.057646006    29.360695      3403.2871    
        60   0.12           295.59818      127899.06     -807636.83     -297.46892      0.36359742     0.055945908    29.385015      3402.6311    
        70   0.14           295.3301       125211.87     -807641.42     -292.75487      0.36359649     0.055059463    29.402804      3401.7718    
        80   0.16           287.24563      123726.84     -807642.24     -290.89613      0.36359541     0.054710045    29.382145      3401.3402    
        90   0.18           298.21553      129515.36     -807636.55     -298.14876      0.36359419     0.056074265    29.353881      3401.2919    
       100   0.2            306.45315      134566.29     -807629.96     -306.04439      0.36359283     0.05755945     29.358107      3401.138     
       110   0.22           309.6702       141521.3      -807622.42     -314.04166      0.36359132     0.059063784    29.283689      3401.7355    
       120   0.24           292.15598      143171.18     -807619.44     -314.71151      0.36358968     0.059190035    29.276257      3402.2485    
       130   0.26           299.92355      140066.34     -807623.53     -311.72998      0.36358788     0.058629567    29.305054      3402.3723    
       140   0.28           308.02733      133858.51     -807631.08     -305.42191      0.36358595     0.057443464    29.328945      3402.2313    
       150   0.3            292.75729      128245.43     -807636.99     -297.47988      0.36358387     0.055950054    29.372733      3401.7256    
       160   0.32           291.40452      124827.36     -807642.65     -291.71458      0.36358165     0.054866052    29.367986      3401.2744    
       170   0.34           287.84935      124487.72     -807642.04     -292.03979      0.36357928     0.054927574    29.414653      3400.5188    
       180   0.36           298.55823      130596.41     -807635.3      -300.40845      0.36357677     0.056501963    29.402832      3399.8859    
       190   0.38           298.92053      135580.92     -807628.59     -307.48411      0.36357412     0.057833202    29.373999      3399.4586    
       200   0.4            293.32519      141838.22     -807622.03     -313.41728      0.36357132     0.058949596    29.340237      3399.2362    
       210   0.42           295.22391      141349.27     -807621.89     -314.07069      0.36356838     0.059072972    29.351045      3398.9422    
       220   0.44           289.8215       140252.53     -807622.62     -312.78722      0.3635653      0.058832066    29.399849      3398.3878    
       230   0.46           296.84033      132560.5      -807632.85     -303.77277      0.36356207     0.057137047    29.415825      3397.7714    
       240   0.48           292.30527      127951.66     -807639.79     -296.2385       0.3635587      0.055720432    29.401691      3397.2467    
       250   0.5            280.47027      123118.95     -807644.23     -290.39578      0.36355519     0.054621985    29.402035      3396.7346    
       260   0.52           282.70376      126869.67     -807640.73     -294.30135      0.36355153     0.055357159    29.441592      3396.0607    
       270   0.54           284.68333      128626.7      -807636.22     -299.35293      0.36354773     0.056307934    29.38541       3395.6511    
       280   0.56           300.24423      137003.75     -807629.92     -307.8639       0.36354379     0.057909465    29.388263      3395.2351    
       290   0.58           291.16876      140401.31     -807623.45     -313.2808       0.3635397      0.058929051    29.344988      3394.9967    
       300   0.6            293.96086      143782.54     -807620.66     -316.46979      0.36353547     0.059529603    29.377416      3394.6265    
       310   0.62           289.71426      138140.98     -807626.06     -310.58278      0.3635311      0.058422928    29.409698      3394.138     
       320   0.64           293.61939      133462.94     -807633.79     -303.31953      0.36352658     0.057057366    29.422172      3393.6139    
       330   0.66           285.98934      125554.37     -807641.11     -294.97602      0.36352192     0.055488582    29.40535       3393.1598    
       340   0.68           275.36714      124568.28     -807641.58     -292.96343      0.36351712     0.055110716    29.363276      3392.855     
       350   0.7            281.12263      125037.84     -807641.95     -293.37221      0.36351217     0.055188366    29.336636      3392.6362    
       360   0.72           298.88169      131120.07     -807637.42     -300.28222      0.36350708     0.056489049    29.340772      3392.3976    
       370   0.74           300.32615      136951.63     -807629.1      -308.71008      0.36350185     0.058075332    29.341752      3392.1502    
       380   0.76           295.49492      142133.11     -807621.61     -315.36413      0.36349647     0.059327987    29.386786      3391.7612    
       390   0.78           289.22104      142108.24     -807621.23     -314.58044      0.36349095     0.059181454    29.381835      3391.389     
       400   0.8            304.05324      137374.19     -807628.33     -309.2996       0.36348529     0.058188885    29.390507      3390.9936    
       410   0.82           295.89557      131647.7      -807633.7      -302.48493      0.36347948     0.056907742    29.38213       3390.6244    
       420   0.84           290.69546      126685.26     -807639.22     -295.85883      0.36347353     0.055662059    29.289647      3390.5113    
       430   0.86           284.84768      125353.77     -807642.48     -291.38023      0.36346744     0.054820387    29.32501       3390.2925    
       440   0.88           292.18167      125650.06     -807641.73     -292.846        0.3634612      0.055097103    29.34062       3390.0269    
       450   0.9            309.95758      132241.51     -807634.68     -302.0788       0.36345482     0.056835192    29.32155       3389.8069    
       460   0.92           296.43819      137697.71     -807624.39     -310.30944      0.3634483      0.05838481     29.349997      3389.5102    
       470   0.94           293.97442      143493.43     -807619.71     -314.29194      0.36344163     0.059135202    29.363034      3389.1797    
       480   0.96           303.57663      140692.81     -807623.1      -312.12961      0.36343482     0.058729454    29.364708      3388.8447    
       490   0.98           310.163        138936.76     -807625.66     -310.241        0.36342786     0.058375215    29.369949      3388.4971    
       500   1              302.00672      130508.06     -807633.17     -301.55479      0.36342077     0.056741918    29.335758      3388.2287    
       510   1.02           301.09123      128740.98     -807639.91     -9420.9569      0.36341353     0.055397666    29.261781      3388.1256    
       520   1.04           294.28858      122751.55     -807643.53     -9275.4859      0.36340614     0.054543367    29.267996      3387.9994    
       530   1.06           295.58172      129953.89     -807636.49     -9502.4952      0.36339862     0.055879425    29.280368      3387.8381    
       540   1.08           302.58394      130612.21     -807632.8      -9657.5552      0.36339095     0.056792454    29.290658      3387.6479    
       550   1.1            304.3372       141497.79     -807623.4      -9958.2682      0.36338313     0.058562093    29.276129      3387.4829    
       560   1.12           309.66328      139202.45     -807623.86     -9971.1555      0.36337518     0.058639165    29.224978      3387.4178    
       570   1.14           301.2219       144885.05     -807618.5      -10097.985      0.36336707     0.059386357    29.2295        3387.3337    
       580   1.16           317.17289      133865.25     -807630        -9807.9176      0.36335883     0.057681777    29.249073      3387.2014    
       590   1.18           306.72394      132983.32     -807633.81     -9629.8687      0.36335044     0.056635952    29.246265      3387.0676    
       600   1.2            300.64342      122973.29     -807644        -9281.9103      0.36334191     0.054590794    29.271155      3386.8787    
       610   1.22           285.58271      128323.95     -807637.88     -9405.228       0.36333324     0.055317397    29.302875      3386.6245    
       620   1.24           296.55403      125550.08     -807638.71     -9435.486       0.36332442     0.055496708    29.300962      3386.3711    
       630   1.26           308.76442      136222.11     -807630.63     -9742.8991      0.36331546     0.057306233    29.292121      3386.1312    
       640   1.28           304.43565      138074.63     -807625.8      -9883.7399      0.36330636     0.058136094    29.263582      3385.9397    
       650   1.3            303.7181       145560.12     -807618        -10127.314      0.36329711     0.05957031     29.313554      3385.6546    
       660   1.32           300.04594      139971.63     -807622.15     -9983.562       0.36328772     0.058726259    29.290029      3385.409     
       670   1.34           318.54758      136911.4      -807630.09     -9808.2922      0.36327819     0.057696784    29.308322      3385.129     
       680   1.36           300.15253      128238.3      -807636.57     -9523.1578      0.36326851     0.056020988    29.303187      3384.8559    
       690   1.38           298.40075      126601.43     -807640.03     -9405.4394      0.36325869     0.055329993    29.307002      3384.5744    
       700   1.4            286.52585      125068.65     -807640.2      -9352.1725      0.36324873     0.055018145    29.301286      3384.3007    
       710   1.42           301.67391      129043.29     -807637.78     -9500.1356      0.36323863     0.055890156    29.284805      3384.0519    
       720   1.44           304.97945      135903.57     -807630.3      -9760.0791      0.36322838     0.057421047    29.237683      3383.8765    
       730   1.46           298.7638       140011.46     -807622.91     -9974.4797      0.36321798     0.0586841      29.217404      3383.7288    
       740   1.48           299.90755      143878.41     -807619.42     -10090.94       0.36320745     0.059371008    29.165371      3383.6577    
       750   1.5            295.70831      138751.14     -807624.77     -9908.3705      0.36319677     0.058298556    29.160132      3383.5875    
       760   1.52           308.60569      135445.73     -807630.92     -9769.4957      0.36318595     0.057483162    29.219485      3383.4192    
       770   1.54           296.49898      127563.41     -807637.12     -9525.6005      0.36317498     0.056049789    29.261178      3383.1836    
       780   1.56           291.17048      128181.6      -807639.33     -9430.7769      0.36316387     0.055493533    29.296921      3382.892     
       790   1.58           289.41645      124096        -807643.55     -9297.1247      0.36315262     0.054708778    29.315102      3382.5728    
       800   1.6            300.03851      131463.62     -807636.04     -9586.4095      0.36314122     0.05641284     29.311339      3382.2584    
       810   1.62           300.28941      132748.91     -807630.94     -9764.2389      0.36312968     0.057461133    29.292995      3381.9695    
       820   1.64           297.81295      142294.37     -807622.33     -10028.326      0.363118       0.059017146    29.275351      3381.7042    
       830   1.66           289.59514      138896.15     -807624.4      -9935.1356      0.36310618     0.05847062     29.257883      3381.4615    
       840   1.68           295.18161      141729.71     -807623.89     -9977.5766      0.36309421     0.058722331    29.324739      3381.1243    
       850   1.7            298.08041      131870.75     -807632.01     -9740.2563      0.3630821      0.057327511    29.376541      3380.7169    
       860   1.72           285.38341      131002.09     -807635.6      -9568.8458      0.36306984     0.056320554    29.314874      3380.3937    
       870   1.74           283.63638      123144.9      -807644.43     -9285.2708      0.36305745     0.054653347    29.306132      3380.0817    
       880   1.76           286.33171      127670.54     -807640.17     -9433.7925      0.3630449      0.055529468    29.301106      3379.7756    
       890   1.78           294.2517       128108.28     -807637.15     -9575.9089      0.36303222     0.056367967    29.296346      3379.4748    
       900   1.8            294.50366      136693.2      -807629.35     -9826.1343      0.36301939     0.057842947    29.324474      3379.1371    
       910   1.82           291.23233      137834.08     -807626.9      -9893.9343      0.36300642     0.058244142    29.290029      3378.8431    
       920   1.84           286.96057      142572.12     -807622.42     -10018.447      0.36299331     0.05897926     29.297575      3378.5384    
       930   1.86           293.97806      137877.46     -807626.51     -9923.7454      0.36298005     0.05842388     29.27185       3378.265     
       940   1.88           292.46753      134433.37     -807632.25     -9730.1049      0.36296665     0.057285979    29.301322      3377.9539    
       950   1.9            283.07884      127669.67     -807640.05     -9437.0771      0.36295311     0.055562851    29.295717      3377.649     
       960   1.92           289.12393      125778.21     -807642.25     -9392.2943      0.36293942     0.055301268    29.290311      3377.3498    
       970   1.94           277.64712      126920        -807637.97     -9477.4497      0.36292559     0.055804784    29.323021      3377.0108    
       980   1.96           293.64201      130013.22     -807636.48     -9593.141       0.36291162     0.056488168    29.238203      3376.7719    
       990   1.98           292.57331      136005.56     -807630.28     -9780.3003      0.3628975      0.057592475    29.265717      3376.4986    
      1000   2              291.58599      139925.83     -807624.97     -9940.9031      0.36288325     0.058540505    29.11605       3376.3978    
      1010   2.02           287.92085      142175.8      -807620.19     -314.5398       0.36286884     0.059275256    29.345708      3376.0288    
      1020   2.04           303.30752      136725.12     -807629.39     -307.13751      0.3628543      0.057882609    29.342166      3375.6644    
      1030   2.06           301.64848      133214.24     -807634.62     -301.13013      0.36283961     0.056752766    29.347904      3375.294     
      1040   2.08           297.56208      126770.29     -807638.78     -296.10921      0.36282478     0.055808776    29.365497      3374.9048    
      1050   2.1            293.44543      127140.89     -807638.72     -295.1577       0.3628098      0.055631737    29.37551       3374.5056    
      1060   2.12           296.77136      126258.13     -807640.52     -293.54813      0.36279469     0.055330669    29.378699      3374.104     
      1070   2.14           304.31611      132748.77     -807634.72     -299.97868      0.36277943     0.056545137    29.373383      3373.7092    
      1080   2.16           307.20052      135521.59     -807627.99     -307.03596      0.36276402     0.057877872    29.375637      3373.3132    
      1090   2.18           291.76545      143240        -807618.76     -313.76742      0.36274848     0.059149321    29.373811      3372.9199    
      1100   2.2            298.23737      139383.69     -807623.71     -309.66838      0.36273279     0.058379123    29.37733       3372.524     
      1110   2.22           309.01273      137872.96     -807627.42     -307.15189      0.36271695     0.057907238    29.393807      3372.1122    
      1120   2.24           304.84624      130587.89     -807632.96     -301.03722      0.36270098     0.056756942    29.359241      3371.7369    
      1130   2.26           299.22308      129913.73     -807634.85     -298.09902      0.36268486     0.056205478    29.427438      3371.2932    
      1140   2.28           295.95711      125198.22     -807641.24     -291.17197      0.3626686      0.054901868    29.397609      3370.8812    
      1150   2.3            308.02779      128524.44     -807639.36     -294.56531      0.36265219     0.055544213    29.337398      3370.5305    
      1160   2.32           306.49608      131924.31     -807631.82     -301.96937      0.36263564     0.056942945    29.329826      3370.1875    
      1170   2.34           306.16072      138687.05     -807624.31     -309.29841      0.36261895     0.058327681    29.345696      3369.8289    
      1180   2.36           307.07249      138644.29     -807624.99     -308.7618       0.36260212     0.05822919     29.369039      3369.4479    
      1190   2.38           302.77235      140650.42     -807623.69     -309.35932      0.36258514     0.058344607    29.322751      3369.1122    
      1200   2.4            302.35231      136561.81     -807625.03     -308.01488      0.36256802     0.058093791    29.359235      3368.7416    
      1210   2.42           314.54049      132777.24     -807632.29     -302.35911      0.36255076     0.057029788    29.377288      3368.3543    
      1220   2.44           299.62393      127484.16     -807638.92     -293.62987      0.36253335     0.055385971    29.356021      3367.9879    
      1230   2.46           295.73356      127444.63     -807639.15     -292.814        0.3625158      0.055234751    29.266722      3367.7052    
      1240   2.48           303.01933      128796.88     -807635.43     -297.70492      0.36249811     0.056160087    29.303559      3367.3875    
      1250   2.5            313.27457      132502.83     -807632.04     -302.56698      0.36248028     0.057080093    29.285261      3367.0861    
      1260   2.52           301.36331      137666.62     -807627.11     -305.84416      0.3624623      0.057701203    29.349919      3366.7252    
      1270   2.54           298.9729       140606.01     -807623.01     -309.70005      0.36244418     0.058431585    29.277991      3366.4297    
      1280   2.56           315.93871      140445.27     -807622.67     -312.54507      0.36242592     0.058971331    29.326144      3366.0902    
      1290   2.58           303.50585      135705.41     -807626.94     -306.6413       0.36240751     0.057860339    29.349504      3365.7299    
      1300   2.6            305.20455      131282.78     -807635.93     -297.9252       0.36238896     0.056218571    29.315906      3365.3996    
      1310   2.62           289.46555      127267.35     -807637.92     -293.94942      0.36237027     0.055471201    29.302863      3365.0806    
      1320   2.64           296.67866      127616.6      -807637.42     -295.56687      0.36235143     0.055779329    29.367641      3364.7049    
      1330   2.66           302.13223      128268.92     -807637.84     -296.14945      0.36233245     0.055892202    29.377837      3364.321     
      1340   2.68           294.04807      134476.94     -807632.44     -300.57003      0.36231333     0.05672949     29.325087      3363.9828    
      1350   2.7            302.3641       137250.83     -807627.07     -307.32408      0.36229407     0.058007331    29.309251      3363.6581    
      1360   2.72           301.04444      140687.53     -807621.83     -312.49671      0.36227466     0.058986823    29.360247      3363.2901    
      1370   2.74           300.52064      138599.01     -807625        -309.47525      0.36225511     0.058419647    29.405784      3362.8846    
      1380   2.76           305.76954      134871.54     -807632.23     -303.08387      0.36223542     0.057216255    29.364991      3362.5137    
      1390   2.78           300.32847      129852.64     -807635.89     -298.85006      0.36221558     0.056420085    29.290335      3362.2049    
      1400   2.8            294.43806      128230.6      -807637.81     -296.23312      0.3621956      0.055929116    29.286501      3361.8988    
      1410   2.82           290.01677      126847.14     -807640.34     -293.27163      0.36217548     0.055373059    29.329598      3361.5571    
      1420   2.84           293.86996      129222.96     -807638.45     -295.80814      0.36215522     0.055855107    29.339058      3361.2077    
      1430   2.86           296.40557      133653.94     -807632.36     -302.47269      0.36213481     0.057116741    29.369461      3360.8342    
      1440   2.88           289.09319      138939.74     -807623.55     -310.3913       0.36211426     0.058615358    29.304105      3360.5131    
      1450   2.9            291.14598      138444.42     -807625.26     -309.06145      0.36209357     0.05836756     29.318716      3360.1801    
      1460   2.92           295.19813      138128.92     -807628.22     -306.65272      0.36207273     0.057915995    29.313044      3359.8515    
      1470   2.94           300.79136      132935.4      -807631.99     -303.82901      0.36205176     0.05738602     29.341739      3359.5004    
      1480   2.96           289.05854      130983.15     -807633.73     -300.42616      0.36203064     0.056746613    29.391713      3359.1108    
      1490   2.98           284.66037      126711.5      -807639.84     -293.71186      0.36200937     0.055481627    29.403845      3358.7126    
      1500   3              284.51212      127538.97     -807640.1      -293.29002      0.36198796     0.055405218    29.347332      3358.3582    
      1510   3.02           298.22373      129385.56     -807637.01     -9548.2204      0.36196642     0.056370475    29.296148      3358.0428    
      1520   3.04           290.54957      134819.32     -807628.34     -9788.9283      0.36194472     0.057795023    29.344         3357.691     
      1530   3.06           302.01316      137317.58     -807628.66     -9826.7499      0.36192289     0.058021826    29.313608      3357.3621    
      1540   3.08           294.51615      139420.09     -807626.48     -9858.3486      0.36190091     0.058211935    29.276003      3357.061     
      1550   3.1            299.44235      137183.04     -807626.64     -9872.9306      0.36187879     0.058301603    29.283116      3356.7542    
      1560   3.12           300.40055      134400.78     -807630.56     -9743.6933      0.36185653     0.057541971    29.328679      3356.4134    
      1570   3.14           298.84909      128701.48     -807638.28     -9482.0179      0.36183412     0.056000098    29.275824      3356.1112    
      1580   3.16           289.67987      127555.43     -807639.91     -9377.5979      0.36181157     0.055386853    29.282829      3355.8034    
      1590   3.18           283.69617      128255.04     -807635.9      -9469.6817      0.36178888     0.055934235    29.240896      3355.5256    
      1600   3.2            300.52061      130861.81     -807634        -9594.2233      0.36176605     0.056673438    29.271461      3355.2249    
      1610   3.22           300.04737      135177.32     -807629.83     -9705.9115      0.36174307     0.057336825    29.279158      3354.9182    
      1620   3.24           304.59064      137521.65     -807627.34     -9790.7174      0.36171995     0.057841505    29.245566      3354.635     
      1630   3.26           310.03202      140174.05     -807622.83     -9944.376       0.36169669     0.058753066    29.281589      3354.3256    
      1640   3.28           305.42639      136855.38     -807625.42     -9830.4122      0.36167329     0.058083508    29.281344      3354.016     
      1650   3.3            314.99829      133697.73     -807632.45     -9636.5253      0.36164974     0.056941624    29.252198      3353.7263    
      1660   3.32           306.62231      128649.75     -807637.22     -9437.924       0.36162605     0.055771755    29.210365      3353.465     
      1670   3.34           309.0976       128101.88     -807637.1      -9450.0985      0.36160222     0.055847378    29.263223      3353.1663    
      1680   3.36           295.88489      128943.55     -807634.89     -9459.0988      0.36157824     0.055904273    29.231947      3352.8885    
      1690   3.38           309.49438      132029.54     -807633.85     -9547.3628      0.36155413     0.056429687    29.282194      3352.5758    
      1700   3.4            308.53479      134920.27     -807629.39     -9687.3852      0.36152987     0.057261132    29.251696      3352.2834    
      1710   3.42           304.4281       139925.59     -807622.09     -9899.7816      0.36150546     0.058520535    29.241224      3351.9973    
      1720   3.44           317.76192      139057.79     -807624.07     -9897.4224      0.36148092     0.058510562    29.219718      3351.725     
      1730   3.46           304.85668      136983.95     -807626.64     -9757.1637      0.36145623     0.057685334    29.199541      3351.4654    
      1740   3.48           318.20759      132398.05     -807633.39     -9600.2155      0.3614314      0.05676134     29.227854      3351.1861    
      1750   3.5            304.06402      130896.31     -807634.04     -9518.172       0.36140643     0.056280146    29.276165      3350.8743    
      1760   3.52           297.88559      127926.85     -807636.28     -9421.5267      0.36138131     0.055712562    29.297119      3350.5486    
      1770   3.54           304.58604      127982.36     -807637.98     -9398.1571      0.36135605     0.055578255    29.299517      3350.2211    
      1780   3.56           312.38348      131504.19     -807634.82     -9540.0478      0.36133065     0.056421325    29.30447       3349.8903    
      1790   3.58           310.20669      136607.26     -807626.95     -9787.8337      0.36130511     0.057890862    29.337254      3349.5385    
      1800   3.6            309.87117      139074.42     -807624.08     -9881.2211      0.36127942     0.058447364    29.336749      3349.1871    
      1810   3.62           310.12839      137775.21     -807626.41     -9812.364       0.3612536      0.058044224    29.227937      3348.9047    
      1820   3.64           295.07502      137517.79     -807627.04     -9731.1751      0.36122763     0.057568096    29.236071      3348.6165    
      1830   3.66           311.21034      132101.6      -807632.04     -9650.7727      0.36120151     0.057096576    29.231201      3348.3307    
      1840   3.68           300.39644      129236.45     -807635.12     -9508.7495      0.36117526     0.056260418    29.296112      3348.0039    
      1850   3.7            297.52662      127412.09     -807639.55     -9357.5116      0.36114886     0.055369635    29.227621      3347.7194    
      1860   3.72           291.02443      130194.94     -807635.6      -9459.1339      0.36112232     0.055975062    29.241075      3347.4259    
      1870   3.74           308.03739      131674.69     -807632.42     -9645.9642      0.36109564     0.05708486     29.226762      3347.1407    
      1880   3.76           300.64531      136213.7      -807627.02     -9788.9304      0.36106881     0.057935239    29.24439       3346.8442    
      1890   3.78           298.51999      137295.77     -807627.94     -9755.0434      0.36104184     0.057738993    29.285626      3346.5221    
      1900   3.8            302.22613      137962.2      -807627.34     -9794.0917      0.36101474     0.057974469    29.246152      3346.2237    
      1910   3.82           303.49714      134804.14     -807628.6      -9765.7223      0.36098748     0.057810905    29.233684      3345.9323    
      1920   3.84           299.94954      132304.3      -807633.14     -9606.1053      0.36096009     0.056870323    29.268212      3345.6198    
      1930   3.86           294.76785      128049.73     -807639.25     -9390.5165      0.36093255     0.05559823     29.27938       3345.3003    
      1940   3.88           297.04077      128072.17     -807639.21     -9404.5245      0.36090487     0.055685437    29.22888       3345.0104    
      1950   3.9            291.85974      130008.55     -807634.08     -9549.4796      0.36087705     0.056548095    29.268409      3344.6968    
      1960   3.92           284.68546      132528.42     -807630.32     -9639.545       0.36084909     0.057085849    29.24034       3344.3993    
      1970   3.94           303.85234      136155.39     -807630.36     -9721.5273      0.36082098     0.057575837    29.204442      3344.1222    
      1980   3.96           301.48861      136914.38     -807627.81     -9796.161       0.36079273     0.058022398    29.261865      3343.8113    
      1990   3.98           302.15769      138107.33     -807625.57     -9870.7197      0.36076434     0.058468608    29.287597      3343.4852    
      2000   4              303.38138      132775.8      -807631.49     -9687.021       0.36073581     0.057385019    29.330385      3343.1346    
      2010   4.02           300.85668      131643        -807636.61     -297.08452      0.36070713     0.056321318    29.401366      3342.7439    
      2020   4.04           281.17482      127678.67     -807637.49     -293.56526      0.36067831     0.055658584    29.361555      3342.3761    
      2030   4.06           291.12054      128617.33     -807636.09     -296.29991      0.36064935     0.05618157     29.295563      3342.0456    
      2040   4.08           290.61436      128874.89     -807635.46     -296.81629      0.36062025     0.056284024    29.351028      3341.684     
      2050   4.1            296.0378       134086.51     -807632.42     -300.45713      0.36059101     0.056979042    29.332382      3341.333     
      2060   4.12           301.05862      135013.5      -807629.76     -303.78306      0.36056162     0.057614471    29.358786      3340.9675    
      2070   4.14           309.80924      138747.91     -807626.36     -308.23496      0.36053209     0.058463591    29.334991      3340.6153    
      2080   4.16           292.05324      136192.38     -807627.04     -304.99446      0.36050242     0.057853719    29.364145      3340.2473    
      2090   4.18           308.12726      134515.04     -807633.23     -300.7749       0.36047261     0.057058039    29.349488      3339.8875    
      2100   4.2            289.7341       129504.85     -807634.66     -296.66978      0.36044265     0.056283961    29.317241      3339.5453    
      2110   4.22           292.98808      130341.01     -807635.2      -296.33732      0.36041256     0.056225581    29.31753       3339.203     
      2120   4.24           298.0187       127262.99     -807638.37     -293.67986      0.36038232     0.055726043    29.312236      3338.8636    
      2130   4.26           307.75282      131453.44     -807636.04     -296.96701      0.36035193     0.056354534    29.339727      3338.5095    
      2140   4.28           295.63428      133191.19     -807630.93     -300.1471       0.36032141     0.056962835    29.358015      3338.1458    
      2150   4.3            311.54039      137573.75     -807626.11     -306.78764      0.36029075     0.058228054    29.386479      3337.7672    
      2160   4.32           311.6281       137471.18     -807627.19     -305.34434      0.36025994     0.057959073    29.354422      3337.4059    
      2170   4.34           301.55026      137311.74     -807627.64     -303.0702       0.36022899     0.057532348    29.28715       3337.08      
      2180   4.36           312.56312      132996.61     -807631.23     -300.65525      0.36019789     0.057078841    29.319144      3336.7373    
      2190   4.38           301.84953      131044.74     -807631.96     -298.11995      0.36016666     0.056602426    29.28152       3336.4142    
      2200   4.4            307.29934      129455.09     -807636.08     -294.46067      0.36013528     0.055912529    29.280891      3336.0912    
      2210   4.42           301.7033       129307.01     -807635.81     -293.69395      0.36010377     0.055771825    29.313748      3335.7511    
      2220   4.44           312.07335      132377.06     -807633.15     -297.65277      0.36007211     0.056528566    29.288204      3335.4241    
      2230   4.46           311.70444      134545.22     -807628.36     -302.26524      0.3600403      0.057409611    29.288564      3335.0968    
      2240   4.48           317.91824      137502.52     -807627.23     -304.1238       0.36000836     0.057767735    29.280167      3334.7737    
      2250   4.5            320.66812      136744.02     -807629.12     -302.56461      0.35997627     0.057476693    29.307478      3334.4365    
      2260   4.52           320.45664      136301.87     -807628.23     -303.41373      0.35994404     0.057643157    29.326849      3334.0896    
      2270   4.54           312.23513      133638.43     -807630.17     -300.38901      0.35991167     0.057073647    29.38344       3333.7145    
      2280   4.56           310.02931      130883.4      -807633.85     -296.42691      0.35987916     0.056325939    29.370282      3333.3461    
      2290   4.58           313.69837      128975.56     -807637.63     -293.14418      0.35984651     0.055707221    29.377116      3332.9747    
      2300   4.6            305.09545      129910.22     -807633.89     -295.79955      0.35981371     0.056216954    29.350463      3332.6167    
      2310   4.62           306.9139       132340.76     -807630.96     -299.08335      0.35978077     0.056846248    29.36912       3332.2496    
      2320   4.64           296.93833      135376.8      -807627.72     -301.01652      0.35974769     0.057218942    29.340629      3331.8967    
      2330   4.66           313.1008       135513.41     -807629        -302.10456      0.35971447     0.057431068    29.311132      3331.5583    
      2340   4.68           309.18025      137332.42     -807626.06     -304.5593       0.35968111     0.057903091    29.342054      3331.2048    
      2350   4.7            309.39981      134715.27     -807628.75     -302.04004      0.3596476      0.057429478    29.395306      3330.8258    
      2360   4.72           315.20525      133071.82     -807633.16     -298.49504      0.35961396     0.056760747    29.379648      3330.4547    
      2370   4.74           306.84164      128929.73     -807636.17     -294.48057      0.35958017     0.056002631    29.453688      3330.0485    
      2380   4.76           300.29969      130810.25     -807634.42     -295.44513      0.35954624     0.056191369    29.430864      3329.6537    
      2390   4.78           297.24137      129720.17     -807633.58     -296.07052      0.35951216     0.056315649    29.357323      3329.2941    
      2400   4.8            303.29999      133503.23     -807631.44     -299.10011      0.35947795     0.056897323    29.334552      3328.9455    
      2410   4.82           300.29186      133757.69     -807629.94     -300.36936      0.35944359     0.057144233    29.318058      3328.6047    
      2420   4.84           305.94702      137296.33     -807626.86     -304.27598      0.35940909     0.057893009    29.354013      3328.247     
      2430   4.86           307.31864      135799.2      -807628.58     -302.97701      0.35937446     0.057651418    29.361062      3327.8862    
      2440   4.88           301.10764      135737.7      -807629.81     -300.90041      0.35933967     0.057261817    29.34529       3327.5328    
      2450   4.9            307.66601      131118.7      -807635.15     -296.65037      0.35930475     0.056458516    29.320231      3327.1912    
      2460   4.92           295.10009      130780.97     -807634.78     -295.31707      0.35926969     0.056210248    29.386455      3326.8191    
      2470   4.94           293.08727      129872.31     -807634.71     -295.22315      0.35923448     0.056197878    29.333476      3326.4715    
      2480   4.96           297.86041      130546.28     -807634.96     -295.70555      0.35919913     0.056295245    29.320976      3326.1297    
      2490   4.98           300.84032      132806.27     -807633.18     -297.98638      0.35916364     0.056735066    29.287521      3325.8031    
      2500   5              295.96947      135077.77     -807628.93     -301.67989      0.35912801     0.057443991    29.334185      3325.4553    
[...]
     98740   197.48         303.01252      135831.82     -807630.31     -9722.8716      0.36236891     0.057337818    26.906486      44.99134     
     98750   197.5          291.84395      133564.4      -807629.68     -9693.7413      0.36238762     0.05716308     26.920145      44.634448    
     98760   197.52         291.75136      135287.5      -807629.19     -9702.8638      0.36240618     0.057213944    26.977135      44.277543    
     98770   197.54         306.06829      132184.83     -807633.42     -9628.9351      0.36242459     0.05677513     26.977567      43.920635    
     98780   197.56         308.01154      134326.24     -807631.74     -9687.2823      0.36244287     0.057116283    26.990138      43.563723    
     98790   197.58         303.86772      133011.02     -807632.06     -9659.2552      0.362461       0.056948186    26.974904      43.20681     
     98800   197.6          315.2103       134142.65     -807632.93     -9676.9167      0.36247899     0.057049482    27.014428      42.849888    
     98810   197.62         304.79949      133588.76     -807631.99     -9661.0571      0.36249683     0.05695318     27.064194      42.492955    
     98820   197.64         293.80071      135361.91     -807627.96     -9740.0134      0.36251453     0.057415833    27.026105      42.136026    
     98830   197.66         296.11806      133782        -807629.58     -9699.4933      0.36253209     0.057174204    26.983576      41.779101    
     98840   197.68         293.02628      134569.08     -807629.34     -9691.2447      0.36254951     0.057122838    26.999813      41.422171    
     98850   197.7          308.47233      133469.64     -807632.12     -9671.6993      0.36256678     0.057004916    26.997074      41.065238    
     98860   197.72         308.92232      134015.96     -807631.28     -9699.6601      0.36258391     0.057167016    27.03257       40.708297    
     98870   197.74         306.11969      133790.62     -807632.03     -9664.1748      0.3626009      0.056955207    27.014087      40.351356    
     98880   197.76         309.72573      133684.77     -807632.92     -9653.1018      0.36261774     0.056887307    27.011951      39.994413    
     98890   197.78         310.8497       133185.8      -807632.55     -9672.6293      0.36263445     0.05699976     27.021576      39.637466    
     98900   197.8          296.02215      134034.45     -807629.74     -9697.1934      0.362651       0.057141905    27.03891       39.280513    
     98910   197.82         295.00689      134378.59     -807629.18     -9710.9985      0.36266742     0.057220663    27.002995      38.923563    
     98920   197.84         306.12976      134427.47     -807632.2      -9664.892       0.36268369     0.056946432    27.006408      38.56661     
     98930   197.86         312.40888      134017.08     -807632.08     -9699.4774      0.36269982     0.057147671    26.97563       38.209659    
     98940   197.88         307.00998      133946.27     -807630.46     -9731.9349      0.36271581     0.057336378    26.959377      37.852708    
     98950   197.9          297.87723      134648.32     -807630.54     -9690.5094      0.36273165     0.057089823    26.936868      37.495757    
     98960   197.92         304.06472      132736.39     -807632.06     -9673.6129      0.36274735     0.056987814    27.008471      37.138793    
     98970   197.94         298.23962      134704.58     -807630.26     -9710.3825      0.36276291     0.057201973    27.069725      36.781817    
     98980   197.96         287.455        134192.27     -807629.06     -9707.0303      0.36277832     0.057179796    27.036541      36.424844    
     98990   197.98         303.25996      134225.28     -807631.73     -9694.4445      0.36279359     0.057103255    26.950314      36.06788     
     99000   198            310.15413      132454.85     -807634.72     -9636.1969      0.36280872     0.056757791    26.933752      35.710915    
     99010   198.02         301.12766      134201.4      -807631.08     -303.71064      0.3628237      0.057241614    27.058619      35.35393     
     99020   198.04         300.46507      133350.59     -807631.79     -303.18891      0.36283855     0.057140945    27.060368      34.996943    
     99030   198.06         291.78861      134511.96     -807630.24     -303.75058      0.36285324     0.057244481    27.11743       34.639946    
     99040   198.08         291.19568      133205.11     -807631.83     -302.3771       0.3628678      0.056983351    27.110678      34.282947    
     99050   198.1          287.12948      134279.76     -807630.34     -303.57009      0.36288221     0.0572059      27.108573      33.925945    
     99060   198.12         291.4622       133638.26     -807631.27     -303.58479      0.36289648     0.05720642     27.073344      33.568947    
     99070   198.14         298.93509      132643.46     -807633.3      -302.82856      0.36291061     0.057061697    27.076861      33.211945    
     99080   198.16         291.56796      132549.1      -807633.47     -301.87363      0.36292459     0.05687957     27.091811      32.854938    
     99090   198.18         296.04731      133764.07     -807633.21     -303.01236      0.36293843     0.057091954    27.121077      32.497926    
     99100   198.2          297.82843      132889.3      -807633.03     -303.69458      0.36295213     0.057218335    27.117152      32.140912    
     99110   198.22         291.91994      134101.55     -807632.86     -303.20549      0.36296568     0.057124054    27.052198      31.783903    
     99120   198.24         289.95472      133644.97     -807632.97     -303.05277      0.36297909     0.057093171    27.058092      31.426891    
     99130   198.26         288.75659      133131.9      -807632.41     -303.57334      0.36299236     0.057189154    27.024513      31.069881    
     99140   198.28         293.56482      133370.47     -807632.85     -303.8507       0.36300548     0.057239336    27.094918      30.712859    
     99150   198.3          281.89749      132371.26     -807632.65     -302.54752      0.36301846     0.056991803    27.091026      30.355836    
     99160   198.32         293.90003      132946.2      -807633.59     -303.27262      0.3630313      0.057126372    27.11268       29.998807    
     99170   198.34         284.77411      133019.97     -807632.48     -303.17393      0.36304399     0.057105787    27.109754      29.641777    
     99180   198.36         284.92199      134018.67     -807631.57     -303.99353      0.36305655     0.057258187    27.114364      29.284744    
     99190   198.38         296.96802      132642.13     -807634.78     -302.43403      0.36306895     0.056962502    27.062281      28.927714    
     99200   198.4          298.39446      133850.69     -807633.59     -303.72496      0.36308122     0.057203713    27.092708      28.570678    
     99210   198.42         287.311        133481.98     -807632.4      -303.29333      0.36309334     0.057120513    27.103124      28.213639    
     99220   198.44         290.66933      133650.52     -807632.6      -303.4229       0.36310532     0.057143029    27.14073       27.856593    
     99230   198.46         288.24021      132265.62     -807633.35     -302.23093      0.36311715     0.056916692    27.133489      27.499546    
     99240   198.48         281.19322      133479.41     -807630.76     -303.5792       0.36312885     0.057168762    27.117204      27.142498    
     99250   198.5          295.68953      132356.1      -807633.16     -303.0729       0.3631404      0.057071602    27.112962      26.785448    
     99260   198.52         290.06272      134261.56     -807631.3      -303.86829      0.3631518      0.057219583    27.119551      26.428395    
     99270   198.54         294.78995      132735.33     -807632.26     -303.43006      0.36316306     0.057135291    27.143411      26.071338    
     99280   198.56         298.73954      134097.49     -807632.03     -303.92589      0.36317418     0.057226903    27.127957      25.714279    
     99290   198.58         286.14412      133656.84     -807630.23     -303.90045      0.36318516     0.057220384    27.122828      25.357219    
     99300   198.6          304.91883      132637.94     -807633.41     -303.18168      0.36319599     0.057083346    27.112803      25.000158    
     99310   198.62         287.22812      133821.15     -807630.74     -303.25601      0.36320668     0.05709566     27.092159      24.643096    
     99320   198.64         296.3755       133618.67     -807632.07     -303.10334      0.36321723     0.057065259    27.102016      24.28603     
     99330   198.66         304.90248      132919.64     -807633.38     -302.93991      0.36322763     0.057032857    27.103878      23.928963    
     99340   198.68         297.06206      133147.37     -807631.67     -303.49679      0.36323789     0.057136085    27.081593      23.571894    
     99350   198.7          301.09799      133530.35     -807632.4      -303.30105      0.36324801     0.057097644    26.96289       23.214834    
     99360   198.72         292.03142      134206.12     -807630.47     -303.89254      0.36325798     0.057207424    26.982666      22.85777     
     99370   198.74         299.36402      134144.67     -807631.83     -303.49755      0.36326781     0.057131521    27.04999       22.500696    
     99380   198.76         298.18014      133321.08     -807631.96     -303.16216      0.3632775      0.057066864    27.05179       22.143621    
     99390   198.78         294.39466      133432.89     -807631.03     -303.45523      0.36328704     0.057120531    27.048597      21.786542    
     99400   198.8          304.51974      132462.32     -807633.06     -302.76026      0.36329644     0.05698824     27.065603      21.42946     
     99410   198.82         293.95438      133188.95     -807630.68     -303.58715      0.3633057      0.057142429    27.093936      21.072373    
     99420   198.84         304.74495      132655.32     -807632.9      -302.86899      0.36331481     0.057005824    27.069656      20.715286    
     99430   198.86         299.94614      134785.52     -807630.47     -304.49699      0.36332378     0.05731083     27.025827      20.3582      
     99440   198.88         302.38815      133559.28     -807631.31     -303.96809      0.36333261     0.057209892    27.052124      20.001109    
     99450   198.9          295.16094      135046.35     -807629.76     -304.41085      0.36334129     0.057291855    27.076111      19.644013    
     99460   198.92         297.54933      133842.16     -807631.36     -303.0791       0.36334983     0.057039872    27.127004      19.286912    
     99470   198.94         299.56137      133558.4      -807630.74     -303.87049      0.36335823     0.057187491    27.151186      18.929806    
     99480   198.96         304.98487      132862.59     -807632.73     -302.61238      0.36336648     0.056949424    27.127004      18.5727      
     99490   198.98         299.176        133455.84     -807631.78     -302.66834      0.3633746      0.056958685    27.11698       18.215592    
     99500   199            296.6699       132999.12     -807630.91     -303.10849      0.36338256     0.057040265    27.14907       17.85848     
     99510   199.02         308.25156      132487.61     -807633.14     -9676.6312      0.36339039     0.056904721    27.141602      17.501366    
     99520   199.04         312.33772      133538.46     -807632.46     -9716.1545      0.36339807     0.057135935    27.069405      17.144254    
     99530   199.06         296.28138      134469.63     -807630.09     -9718.7502      0.3634056      0.057150013    27.017785      16.787143    
     99540   199.08         304.32175      135309.84     -807630.22     -9746.8422      0.363413       0.057314039    27.015419      16.43003     
     99550   199.1          304.55108      133084.58     -807631.58     -9704.9511      0.36342025     0.05706657     27.024842      16.072913    
     99560   199.12         301.11272      135085.78     -807629.96     -9736.1125      0.36342736     0.057248684    27.017586      15.715795    
     99570   199.14         304.76213      132514.8      -807631.56     -9700.6984      0.36343432     0.057039355    27.029363      15.358673    
     99580   199.16         302.38394      134281.66     -807630.16     -9731.4674      0.36344114     0.0572192      27.011801      15.001549    
     99590   199.18         304.7726       132737.97     -807631.8      -9689.2383      0.36344782     0.056969854    27.005366      14.644424    
     99600   199.2          295.61145      135164.58     -807629.38     -9722.3164      0.36345435     0.057163316    27.004297      14.287295    
     99610   199.22         305.40696      133469.17     -807630.7      -9723.9747      0.36346074     0.057172061    26.985354      13.930165    
     99620   199.24         307.58252      134565.64     -807629.94     -9756.4447      0.36346699     0.057361982    27.026618      13.573031    
     99630   199.26         313.21725      133509.79     -807632.1      -9709.1772      0.3634731      0.057083119    27.051188      13.215892    
     99640   199.28         312.65366      133906.01     -807631.79     -9717.4061      0.36347906     0.057130563    27.046492      12.858751    
     99650   199.3          305.60509      133096.81     -807631.08     -9710.1162      0.36348487     0.05708679     27.011424      12.501609    
     99660   199.32         307.14729      133162.43     -807631.36     -9706.6029      0.36349055     0.057065244    27.007903      12.144465    
     99670   199.34         305.65301      132597.3      -807632.64     -9659.842       0.36349608     0.056789472    27.048827      11.787316    
     99680   199.36         294.24168      133867.68     -807629.6      -9705.8913      0.36350147     0.057059347    27.056735      11.430165    
     99690   199.38         303.67105      133633.23     -807629.9      -9742.1573      0.36350671     0.057271723    27.061526      11.07301     
     99700   199.4          307.69944      134732.73     -807630.69     -9733.702       0.36351181     0.057221213    27.007185      10.715856    
     99710   199.42         311.38793      133907.69     -807631.32     -9732.3004      0.36351677     0.057212193    26.987485      10.358699    
     99720   199.44         301.01961      134772.43     -807629.59     -9746.5307      0.36352158     0.057295089    27.000686      10.00154     
     99730   199.46         300.62384      134675.98     -807629.68     -9744.6629      0.36352625     0.057283373    27.001073      9.6443777    
     99740   199.48         300.2765       133038.73     -807631.78     -9681.6607      0.36353078     0.05691231     27.002494      9.2872127    
     99750   199.5          299.28653      132969.86     -807632.05     -9675.0273      0.36353516     0.05687263     26.966909      8.9300464    
     99760   199.52         287.33354      134177.64     -807629.18     -9719.7876      0.3635394      0.057135078    26.999373      8.5728762    
     99770   199.54         294.57916      133437.15     -807630.81     -9706.8956      0.3635435      0.057058653    26.993504      8.2157036    
     99780   199.56         310.84143      132733.99     -807632.86     -9720.046       0.36354745     0.057135332    26.94192       7.8585299    
     99790   199.58         294.73751      134111.64     -807630.31     -9737.4181      0.36355126     0.057236847    27.02057       7.5013511    
     99800   199.6          307.06024      134220.18     -807631.24     -9770.3284      0.36355493     0.057429715    27.037633      7.1441693    
     99810   199.62         296.50755      133557.8      -807630.79     -9745.8025      0.36355845     0.057284997    27.05918       6.7869843    
     99820   199.64         299.95307      133521.54     -807632.2      -9721.4006      0.36356183     0.057141034    27.059789      6.4297969    
     99830   199.66         301.32593      132089.35     -807633.28     -9702.0165      0.36356507     0.057026589    27.013749      6.072608     
     99840   199.68         287.73251      133950.55     -807630.92     -9721.8894      0.36356816     0.057142912    27.010656      5.7154166    
     99850   199.7          290.62968      132633.01     -807632.49     -9692.485       0.36357111     0.056969618    27.001625      5.3582228    
     99860   199.72         293.21837      133245.21     -807632.58     -9704.9742      0.36357392     0.057042585    27.006132      5.0010263    
     99870   199.74         295.64676      132921.29     -807632.87     -9710.9871      0.36357658     0.057077509    27.01826       4.6438269    
     99880   199.76         289.70928      133714.22     -807630.69     -9758.7652      0.3635791      0.057357933    27.055949      4.2866244    
     99890   199.78         294.62267      134210.6      -807630.34     -9793.2939      0.36358148     0.057560502    27.092286      3.9294188    
     99900   199.8          293.26568      133163.3      -807631.59     -9748.8923      0.36358371     0.057299178    27.071991      3.572211     
     99910   199.82         293.13722      134089.59     -807631.68     -9745.1034      0.3635858      0.057276579    27.057048      3.2150011    
     99920   199.84         286.00049      132978.2      -807632.08     -9702.2033      0.36358775     0.05702413     27.064781      2.8577886    
     99930   199.86         296.63893      132308.08     -807632.84     -9725.051       0.36358955     0.057158133    27.059395      2.5005736    
     99940   199.88         288.34492      131892.33     -807633.45     -9668.3897      0.36359121     0.056824851    27.019917      2.1433566    
     99950   199.9          292.57824      133135.04     -807632.84     -9703.3585      0.36359273     0.057030139    26.997765      1.786137     
     99960   199.92         296.92018      132532.75     -807633.29     -9706.294       0.3635941      0.057047177    27.02259       1.4289148    
     99970   199.94         296.42118      134467.03     -807630.87     -9777.4863      0.36359533     0.057465404    27.027599      1.0716899    
     99980   199.96         287.82113      134393.86     -807629.69     -9774.3656      0.36359641     0.057446891    26.999333      0.71446257   
     99990   199.98         295.97642      135272.62     -807631.08     -9760.6593      0.36359736     0.057366186    26.985401      0.35723262   
    100000   200            294.00757      133530.95     -807631.54     -9734.1088      0.36359816     0.057210015    26.93405       0            
Loop time of 3572.34 on 32 procs for 100000 steps with 1080 atoms

Performance: 4.837 ns/day, 4.962 hours/ns, 27.993 timesteps/s, 30.232 katom-step/s
73.4% CPU use with 32 MPI tasks x 1 OpenMP threads

MPI task timing breakdown:
Section |  min time  |  avg time  |  max time  |%varavg| %total
---------------------------------------------------------------
Pair    | 2288.6     | 2800       | 3154.7     | 336.2 | 78.38
Neigh   | 0.00082937 | 0.0030662  | 0.013408   |   5.7 |  0.00
Comm    | 345.58     | 699.62     | 1210.4     | 672.3 | 19.58
Output  | 2.3453     | 2.3551     | 2.3641     |   0.3 |  0.07
Modify  | 63.003     | 64.197     | 65.182     |   8.4 |  1.80
Other   |            | 6.147      |            |       |  0.17

Nlocal:          33.75 ave          44 max          26 min
Histogram: 2 3 7 6 2 3 3 3 2 1
Nghost:        1031.75 ave        1051 max        1014 min
Histogram: 3 2 3 3 4 6 4 4 1 2
Neighs:              0 ave           0 max           0 min
Histogram: 32 0 0 0 0 0 0 0 0 0
FullNghs:      5361.81 ave        7000 max        4095 min
Histogram: 2 3 7 4 4 4 2 3 2 1

Total # of neighbors = 171578
Ave neighs/atom = 158.86852
Neighbor list builds = 2
Dangerous builds = 0

Total wall time: 1:03:00
