
units		metal
atom_style	atomic

read_data ${STRUCTURE}.data
read_data BaTiO3-sc333.data
Reading data file ...
  orthogonal box = (0 0 0) to (11.898253 11.898253 12.912076)
  2 by 4 by 4 MPI processor grid
  reading atoms ...
  135 atoms
  read_data CPU = 0.004 seconds
replicate $L $L $L
replicate 2 $L $L
replicate 2 2 $L
replicate 2 2 2
Replication is creating a 2x2x2 = 8 times larger system...
  orthogonal box = (0 0 0) to (23.796507 23.796507 25.824152)
  2 by 4 by 4 MPI processor grid
  1080 atoms
  replicate CPU = 0.003 seconds

pair_style allegro
pair_coeff	* * ${MODEL}.pth Ba Ti O
pair_coeff	* * BaTiO3-E0.pth Ba Ti O
mass 1 137.3
mass 2 47.9
mass 3 15.9994

timestep 0.002
compute polarization all allegro polarization 3
compute allegro will evaluate the quantity polarization of length 3 (src/compute_allegro.cpp:53)
compute polarizability all allegro polarizability 9
compute allegro will evaluate the quantity polarizability of length 9 (src/compute_allegro.cpp:53)

thermo_style custom pe fmax fnorm spcpu cpuremain

variable efield equal 1e-2*36.36
fix born all addbornforce 0.0 0.0 ${efield}
fix born all addbornforce 0.0 0.0 0.3636

thermo 10
min_style fire
#minimize 0.0 1e-6 100 100
velocity all create ${TEMP} ${SEED} dist gaussian rot yes mom yes
velocity all create 310 ${SEED} dist gaussian rot yes mom yes
velocity all create 310 8181 dist gaussian rot yes mom yes
fix nvt all nvt temp ${TEMP} ${TEMP} $(100*dt)
fix nvt all nvt temp 310 ${TEMP} $(100*dt)
fix nvt all nvt temp 310 310 $(100*dt)
fix nvt all nvt temp 310 310 0.2000000000000000111
run 5000
Neighbor list info ...
  update: every = 1 steps, delay = 0 steps, check = yes
  max neighbors/atom: 2000, page size: 100000
  master list distance cutoff = 8
  ghost atom cutoff = 8
  binsize = 8, bins = 3 3 4
  1 neighbor lists, perpetual/occasional/extra = 1 0 0
  (1) pair allegro/kk, perpetual
      attributes: full, newton on, kokkos_device
      pair build: full/bin/kk/device
      stencil: full/bin/3d
      bin: kk/device
Per MPI rank memory allocation (min/avg/max) = 3.516 | 3.516 | 3.516 Mbytes
    PotEng          Fmax          Fnorm          S/CPU         CPULeft    
-807708.29      1.5954868      37.041415      0              0            
-807646.83      3.1681204      44.873568      2.6876687      1856.6286    
-807635.29      2.6884871      35.280939      25.964755      1022.3532    
-807607.84      3.114477       36.998476      25.930818      744.08813    
-807602.66      3.9951066      50.314807      25.893242      604.83216    
-807567.97      3.3449065      40.549615      25.867472      521.16225    
-807602.83      2.7559226      38.655329      25.911428      465.19937    
-807647.1       3.6723439      34.100297      25.92234       425.10424    
-807684.55      2.4999231      34.022057      25.890157      394.96592    
-807667.62      3.293436       34.585091      25.92902       371.40756    
-807652.29      4.0493489      34.701666      25.927118      352.48514    
-807660.36      2.4934507      27.565768      25.916142      336.9403     
-807627.73      3.2618409      31.133349      25.936709      323.90954    
-807585.02      3.554619       40.370283      25.919749      312.83361    
-807569.96      4.0274931      38.654154      25.961925      303.26309    
-807634.81      3.2488117      33.693219      25.92848       294.93335    
-807653.98      3.2769379      32.192955      25.921969      287.59955    
-807663.55      2.8039132      35.103579      25.923311      281.0826     
-807646.78      4.781208       45.187007      25.92924       275.24453    
-807679.28      2.8986103      36.810563      25.907077      269.98876    
-807641.21      4.0035266      39.990185      25.901303      265.22203    
-807614.71      3.1596097      39.484223      25.958489      260.85308    
-807562.22      3.9834176      45.588121      25.933054      256.85452    
-807607.76      4.3423686      48.74388       25.866215      253.19078    
-807614.2       3.9672242      39.200556      25.860805      249.80175    
-807643.02      3.3087796      35.232499      25.937277      246.63124    
-807644.26      4.4532761      44.757164      25.958602      243.66919    
-807682.69      2.7187934      37.802457      25.865331      240.92235    
-807661.67      3.0136815      34.668068      25.843884      238.3495     
-807637.11      2.8748857      32.282554      25.903154      235.91303    
-807608.28      3.8009484      34.539512      25.922551      233.60872    
-807604.44      3.9943192      42.429256      25.906262      231.43186    
-807597.23      3.8621254      37.263946      25.840693      229.38125    
-807610.57      2.896012       33.352275      25.888617      227.42134    
-807644.83      2.8989579      30.885283      25.932072      225.54512    
-807674.46      2.5841428      31.441027      25.901767      223.76007    
-807676.73      2.8259778      32.633797      25.814985      222.06947    
-807643.35      4.6520883      38.927524      25.914669      220.43066    
-807650.42      2.8453051      30.344016      25.93677       218.85381    
-807618.74      4.1144722      34.607856      25.927935      217.33959    
-807600.36      3.7260636      43.683095      25.909168      215.88502    
-807570.22      4.2611358      43.0105        25.969747      214.4725     
-807628.43      4.2749565      35.993511      25.92187       213.11665    
-807648.31      4.6226692      37.341956      25.934346      211.80396    
-807673.2       3.0222449      35.711244      25.925456      210.53478    
-807641.15      5.1610127      46.838721      25.986875      209.29564    
-807667.8       3.0335         35.070175      25.994679      208.0925     
-807642.45      3.6431302      36.947085      25.997242      206.92384    
-807622.73      3.2397642      38.081886      25.985593      205.78946    
-807567.06      3.5990595      42.329318      26.002496      204.68337    
-807603.88      3.8274622      43.090704      25.931842      203.61558    
-807625.53      3.284057       34.863771      25.895579      202.57928    
-807656.21      2.8000005      32.544233      25.963314      201.55932    
-807644.42      4.4820848      40.47083       25.940261      200.56619    
-807671.74      2.768597       33.781736      25.967745      199.5922     
-807666.01      3.1645487      32.903929      25.900207      198.64775    
-807641.38      2.9150042      30.027114      25.91148       197.72191    
-807601.69      3.5084797      34.142813      26.018004      196.80273    
-807597.21      3.5813549      36.602766      25.9934        195.90477    
-807609.67      3.5081129      38.196145      25.905924      195.03391    
-807621.48      3.1582202      31.347683      25.939387      194.17557    
-807640.74      3.727063       31.927167      25.962617      193.33025    
-807662.78      2.8262926      33.922922      25.985399      192.49738    
-807676.14      2.8073828      35.686373      25.913581      191.68613    
-807643.6       4.5138569      39.386092      25.973888      190.88208    
-807634.07      3.1618835      34.253371      25.995882      190.08874    
-807610.12      3.7185557      36.99307       25.989569      189.30839    
-807606.04      4.0496305      45.469937      25.920566      188.54648    
-807581.5       3.5413756      40.178009      25.963601      187.79156    
-807620.03      3.133553       35.453031      26.024856      187.0417     
-807645.15      3.8439843      36.509978      25.962443      186.30796    
-807673.87      2.6028298      36.242912      25.947082      185.58541    
-807647.55      4.2676182      41.684767      25.897026      184.87666    
-807652.07      2.9229326      34.959085      25.960645      184.17121    
-807639.31      3.7287905      34.988303      26.002223      183.47087    
-807623.85      3.8074763      37.989338      25.987946      182.78015    
-807578.73      3.8106289      39.750479      25.958165      182.09995    
-807593.88      3.425301       39.447643      26.02717       181.42179    
-807629.72      3.7059638      32.202575      25.91245       180.76037    
-807658.72      2.8287168      31.543775      25.862893      180.10987    
-807651.02      4.915708       36.227635      18.894532      180.21462    
-807658.3       3.378434       34.521155      25.846599      179.56732    
-807663.43      2.384643       32.168201      25.905465      178.92189    
-807642.25      3.1112095      30.792358      25.917202      178.28184    
-807603.69      3.1243723      35.540431      13.207168      179.48676    
-807586.6       4.5065051      38.752225      26.111672      178.81857    
-807610.4       3.9310355      39.063134      18.140651      178.96709    
-807629.79      3.9756989      32.583712      25.946156      178.31228    
-807641         3.6827043      33.772497      21.998034      177.98745    
-807652.11      3.7031365      36.710399      25.985484      177.33758    
-807671.23      2.5947642      35.253082      25.927991      176.69748    
-807651.75      3.4894938      35.276967      23.888071      176.211      
-807630.38      2.6019193      33.035657      26.03201       175.5731     
-807604.06      3.7087888      35.831556      12.206584      176.84475    
-807609.39      3.7083802      42.428008      13.068775      177.83848    
-807599.03      4.366482       37.493763      15.702863      178.24797    
-807621.59      3.145217       34.524802      25.995996      177.57452    
-807642.04      3.9616923      36.318371      26.012091      176.90604    
-807672.83      2.9410644      34.980883      25.900067      176.25018    
-807656.85      4.4634303      37.001954      22.528897      175.83379    
-807646.52      3.8802908      33.73178       23.8256        175.32021    
-807634.26      3.4987507      32.113982      9.9832659      177.10753    
-807623.17      3.5421363      36.20747       25.410941      176.46719    
-807593.85      3.8237081      37.143061      25.912722      175.80228    
-807597.42      3.0394107      36.27804       25.966186      175.13971    
-807630.75      3.7531676      31.198654      25.946983      174.4835     
-807660.6       3.0014662      32.350494      25.936013      173.833      
-807660.23      4.3709531      33.656433      25.935637      173.18747    
-807650.88      4.3571535      36.002909      25.994537      172.54359    
-807656.89      3.229933       31.662175      25.950487      171.9068     
-807638.27      4.2636885      32.18155       25.93134       171.2756     
-807610.93      3.6303152      35.17245       25.944994      170.64811    
-807583.51      3.6307567      38.348175      25.923931      170.02603    
-807614.29      3.261059       36.109219      25.848829      169.41196    
-807636.62      3.1407009      32.390036      25.906543      168.79897    
-807650.78      3.2753626      33.169036      25.931452      168.18868    
-807645.71      4.4542937      39.238466      25.947152      167.58149    
-807665.74      3.2875819      34.77606       25.923264      166.97926    
-807648.45      3.4740495      35.502341      25.889455      166.38233    
-807630.22      2.8367571      33.744793      25.947764      165.78615    
-807592.82      4.0842179      38.315704      25.976927      165.19212    
-807607.17      3.9779433      40.164453      25.928142      164.60382    
-807608.8       4.0446182      36.635381      25.927024      164.01889    
-807632.84      3.9080212      32.290263      25.933256      163.43691    
-807635.72      5.0842466      37.56793       25.952542      162.85724    
-807665.8       3.1867222      34.087071      25.827479      162.28627    
-807657.87      3.2670729      34.558318      25.862486      161.71666    
-807644.45      2.8263235      32.927221      25.92118       161.14736    
-807621.12      3.110195       33.335887      25.886684      160.58242    
-807615.88      3.2927277      35.371311      25.906468      160.0194     
-807602.16      3.5592604      37.709622      25.826109      159.46253    
-807603.41      3.4296375      36.121872      25.913862      158.90455    
-807627.33      2.8548004      32.243349      25.962189      158.34718    
-807653.77      2.6779825      33.546097      25.882149      157.79568    
-807662.93      3.6233802      33.996113      25.900863      157.24589    
-807646.11      3.6381637      37.043581      25.873081      156.69964    
-807646.03      3.1397821      32.697106      25.928433      156.15353    
-807629.02      3.9046275      34.176773      25.905699      155.61066    
-807612.06      3.6190236      38.065427      25.853301      155.07212    
-807585.08      4.084745       39.064174      25.879221      154.53475    
-807611.81      3.1164252      36.068964      25.929405      153.99762    
-807635.67      3.5139369      34.393574      25.867308      153.465      
-807657.93      2.6536035      33.815229      25.925977      152.93222    
-807645.49      3.9926663      38.726637      25.976008      152.39965    
-807657.35      2.9673365      33.746856      25.816852      151.87499    
-807646.89      3.2420957      33.611456      25.902283      151.3491     
-807631.09      3.2243635      33.721794      25.923527      150.82436    
-807592.7       3.6557952      37.602451      25.964637      150.30004    
-807598.98      3.6190144      38.894854      25.951644      149.77806    
-807616.14      3.3536267      35.439954      25.881897      149.26037    
-807640.64      2.8543229      32.711763      25.889899      148.74414    
-807641.57      4.1082795      36.109407      25.879455      148.23       
-807657.9       3.0436902      34.202412      25.848157      147.71861    
-807658.66      2.6013968      33.362308      25.820688      147.20978    
-807644.42      3.1132359      32.849436      25.814753      146.70273    
-807617.68      3.7738551      33.795394      25.910804      146.19402    
-807604.77      3.0451174      35.496555      25.917751      145.68666    
-807607.63      3.3281079      37.54124       25.890377      145.18175    
-807617.01      3.2854265      33.759208      25.926203      144.67717    
-807631.9       2.9010445      32.730776      25.942808      144.17357    
-807650.43      3.2082703      33.730836      25.888631      143.67315    
-807664.34      2.961154       33.864564      25.917235      143.17326    
-807650.05      4.2577445      34.503753      25.92686       142.67447    
-807637.85      3.3577454      33.19705       25.930668      142.17696    
-807622.36      4.2134433      34.290713      25.953365      141.68012    
-807613.36      3.68706        38.127785      25.916301      141.18574    
-807597.84      3.8908909      37.777716      25.955962      140.69149    
-807614.47      3.4603374      35.225681      25.950096      140.19872    
-807636.49      5.1740239      35.091925      25.902044      139.70864    
-807659.49      4.3669024      34.775414      25.876971      139.22053    
-807650.67      5.138983       37.349602      25.891472      138.73319    
-807648.81      3.309837       33.98383       25.910547      138.24648    
-807641.27      4.057884       33.213323      25.909614      137.76098    
-807628.97      3.4864677      33.750663      25.87101       137.27771    
-807600.09      3.0655582      36.315271      25.857409      136.79594    
-807599.5       2.5160509      36.521578      25.910214      136.31378    
-807620.64      2.546287       33.455849      25.899012      135.83303    
-807646.22      3.2968044      32.392919      25.885944      135.35371    
-807648.22      3.1302215      34.628645      25.909928      134.87478    
-807651.42      4.3352199      35.51042       25.926583      134.39644    
-807654.69      3.3081091      33.839128      25.910673      133.91956    
-807640.38      3.9605616      33.707859      25.893111      133.44414    
-807615.51      3.5202407      35.641963      25.924926      132.96888    
-807596.05      3.9188075      37.7465        25.919932      132.49472    
-807607.01      3.5255212      38.532314      25.891533      132.02225    
-807622.07      3.6499202      34.328655      25.910284      131.55024    
-807637.56      3.7459835      34.385967      25.922405      131.07884    
-807645.43      5.5143614      36.359858      25.927123      130.60825    
-807660.94      3.3546935      34.293305      25.90165       130.13919    
-807647.2       6.1943077      36.062511      25.853828      129.67218    
-807633.35      3.7285261      33.713312      25.839532      129.20636    
-807609.03      5.6482641      36.236236      25.895406      128.74002    
-807611.24      3.6344145      38.042608      25.921199      128.2739     
-807604.63      3.5642625      37.386159      25.899226      127.80913    
-807620.66      3.7236743      34.39654       25.931157      127.34442    
-807634.62      3.8034583      35.287813      25.917343      126.88084    
-807656.4       2.9674977      34.064727      25.915336      126.41811    
-807652.03      3.3197807      34.916454      25.879507      125.95697    
-807642.9       3.5471488      34.443225      25.910801      125.49588    
-807631.23      2.735847       33.137919      25.877828      125.03629    
-807622.92      4.2305189      34.527495      25.89336       124.57708    
-807609.15      3.8669167      35.749751      25.89595       124.11854    
-807602.83      5.3027619      35.85845       25.903596      123.66055    
-807624.59      3.1993286      32.792801      25.921721      123.20287    
-807644.39      3.3922598      32.535157      25.92265       122.74588    
-807652.91      2.6594198      33.024306      25.905007      122.28996    
-807645.18      3.3022364      34.747005      25.875583      121.83535    
-807647.87      2.6230207      32.093088      25.862347      121.38167    
-807634.58      3.0251374      32.087092      25.845546      120.92899    
-807621.2       2.7126705      33.790163      25.897735      120.47586    
-807599.81      3.279401       35.736398      25.947332      120.02234    
-807612.56      2.6281635      35.867112      25.950643      119.56941    
-807627.91      3.1243109      33.771088      25.921078      119.1177     
-807645.44      2.760337       33.09204       25.917132      118.6667     
-807643.45      3.6943096      35.655506      25.922022      118.21621    
-807654.15      2.8616344      34.026206      25.885047      117.76705    
-807647.21      3.0932884      33.238514      25.878113      117.3186     
-807632.92      3.3974141      32.844641      25.887073      116.87056    
-807608.92      3.0287115      34.248212      25.925561      116.42234    
-807609.5       2.6434612      35.806933      25.949575      115.97423    
-807616         3.202947       34.83152       25.934398      115.52698    
-807631.1       2.7210857      33.140715      25.955314      115.07989    
-807637.7       3.326709       34.165541      25.944586      114.63356    
-807654.22      2.57506        33.280837      25.944295      114.18779    
-807654.36      3.2193365      33.852741      25.918376      113.74302    
-807641.78      3.1474247      32.877936      25.924917      113.29867    
-807623.96      3.4537476      33.252824      25.960561      112.85418    
-807614.49      3.1701025      34.801278      25.953766      112.41035    
-807608.82      3.1928805      36.821697      25.927161      111.96749    
-807612.11      3.4834711      35.818432      25.934478      111.52501    
-807629.03      3.4110847      33.179383      25.937452      111.08297    
-807645.32      3.8217895      34.165942      25.945174      110.64129    
-807655.27      4.0935904      34.098601      25.881551      110.20118    
-807645.11      4.4259537      35.594196      25.868618      109.76176    
-807638.23      2.8820332      34.080963      25.864903      109.32285    
-807626.16      3.5647569      33.854083      25.867089      108.88435    
-807614.71      2.9445425      36.598051      25.891071      108.44589    
-807602.09      3.0843611      36.764457      25.894405      108.00782    
-807614.03      2.9623123      35.323082      25.88434       107.57035    
-807633.18      3.4926085      33.45829       25.900583      107.13304    
-807647.66      2.7766979      34.345439      25.855893      106.69688    
-807646.17      4.6629099      35.947442      25.89086       106.26057    
-807646.46      3.8670207      35.026861      25.902649      105.82448    
-807638.54      4.4985337      34.655385      25.91899       105.38855    
-807628.38      3.0307041      35.551036      25.92942       104.95287    
-807605.18      3.5837304      37.237015      25.937842      104.51746    
-807604.63      3.3316819      37.036716      25.931007      104.08257    
-807618.76      3.6116798      35.705996      25.915744      103.64831    
-807634.7       2.8557476      33.893817      25.924265      103.21431    
-807640.57      4.0367055      35.280056      25.913502      102.78085    
-807648.85      3.5328277      35.105918      25.898287      102.34801    
-807649.99      3.1669033      34.179         25.881299      101.91579    
-807638.72      2.9640718      33.912451      25.933637      101.48316    
-807620.58      2.9900387      33.903068      25.920689      101.0511     
-807608.3       3.0799674      35.702076      25.924199      100.61935    
-807610.53      3.3693649      36.836162      25.888622      100.18846    
-807618.33      2.9354937      34.75318       25.858218      99.758365    
-807633.86      4.2137166      33.389745      25.908564      99.327892    
-807644.39      3.6923044      34.031191      25.901604      98.897861    
-807653.73      2.4974118      33.837772      25.871273      98.468592    
-807645.64      3.1140441      34.269243      25.841021      98.040068    
-807635.02      3.0616011      33.073983      25.874985      97.611398    
-807618.61      2.9158329      35.513816      25.931491      97.182285    
-807612.84      3.1192077      36.725204      25.917719      96.753687    
-807608.49      3.0254552      36.793162      25.893136      96.325741    
-807619.76      3.2147091      35.252582      25.924049      95.897701    
-807636.45      3.3604969      33.760007      25.933092      95.469861    
-807649.78      3.7623722      34.106003      25.952647      95.042083    
-807649.36      2.8597967      34.027044      25.926776      94.614956    
-807644.41      4.0761658      33.673455      25.914135      94.188298    
-807633.47      3.1338208      33.138973      25.893557      93.762203    
-807623.01      2.9802322      33.268615      25.903404      93.336279    
-807609.46      3.9781163      35.962745      25.877103      92.910977    
-807609.01      3.7241888      35.749869      25.937443      92.485211    
-807623.28      3.0890154      34.530116      25.920398      92.059949    
-807640.41      3.4036342      33.775035      25.909694      91.635104    
-807648.31      3.9007996      34.21881       25.875579      91.210954    
-807646.03      3.5377351      35.55921       25.8546        90.787328    
-807646.79      3.4591796      33.54471       25.914815      90.36325     
-807633.99      5.1185611      34.377899      25.887569      89.939767    
-807619.6       3.0572192      33.868097      25.859899      89.516875    
-807605.76      3.6755019      36.305407      25.868501      89.09414     
-807615.11      3.9415033      35.08466       25.880143      88.671527    
-807626.88      3.587743       33.186486      25.942626      88.248457    
-807639.1       3.0395218      33.406689      25.925598      87.825844    
-807644.53      3.5388298      34.55129       25.918521      87.403569    
-807650.94      3.3586983      33.830419      25.896212      86.981798    
-807643.49      3.4138302      33.640669      25.879479      86.56046     
-807631.37      3.5140212      34.204011      25.902509      86.139112    
-807614.68      3.5899649      34.796347      25.920229      85.717816    
-807611.04      3.1657346      36.824391      25.931913      85.296638    
-807613.14      4.077574       36.484689      25.915308      84.875883    
-807627.09      2.9851154      34.594038      25.947628      84.455023    
-807638.75      3.2797495      34.119466      25.928021      84.034612    
-807648.95      2.9645808      34.121152      25.899042      83.614739    
-807647.99      3.8202825      34.646016      25.886876      83.195222    
-807640.89      2.9364687      33.801334      25.869478      82.776108    
-807627.24      3.2485246      33.281484      25.88616       82.357043    
-807616.69      3.4932832      35.49313       25.919262      81.937863    
-807608.91      3.4245654      36.298699      25.895707      81.519142    
-807613.85      3.0081449      35.194632      25.914754      81.10045     
-807627.79      3.2000037      33.816437      25.900873      80.682112    
-807641.72      3.0987829      34.222595      25.890635      80.264087    
-807647.4       3.4589199      35.025024      25.871782      79.846456    
-807643.74      4.2497403      35.472626      25.880985      79.42894     
-807637.33      3.1877039      34.261599      25.927603      79.011185    
-807625.69      3.8814758      35.228825      25.922402      78.593688    
-807614.05      2.9658912      36.385814      25.927734      78.176348    
-807606.76      3.2132569      36.327639      25.932275      77.759171    
-807615.71      3.2634939      35.07014       25.942513      77.342105    
-807631.19      4.4826451      33.536471      25.954293      76.925135    
-807642.95      3.0565261      33.388846      26.014535      76.507827    
-807643.03      3.5069905      35.197442      25.960688      76.09121     
-807646.05      5.0589369      34.547765      25.990537      75.67453     
-807636.57      3.1825617      34.56489       26.004051      75.257934    
-807627.17      4.2293031      34.660527      25.956467      74.841956    
-807610.17      3.6082572      36.065744      25.954839      74.426186    
-807609.55      3.7276474      36.821177      25.950977      74.010642    
-807616.48      2.9421479      34.878735      25.936625      73.59541     
-807632.11      3.3808286      33.362581      25.927537      73.180441    
-807640.51      3.0812024      33.832596      25.941672      72.765536    
-807647.86      3.6497975      34.021564      25.929434      72.350916    
-807645.26      3.2795819      34.636094      25.923195      71.936527    
-807637.46      2.5481902      33.102183      25.929406      71.522265    
-807623.83      3.3420612      34.134757      25.970012      71.107852    
-807612.25      3.142804       36.064137      25.934516      70.693904    
-807612.14      3.1332316      35.210425      25.929692      70.280168    
-807621.1       3.8631542      34.373239      25.940318      69.866519    
-807633.24      3.4334734      32.982454      25.990527      69.452652    
-807643.23      3.000411       33.181398      25.9585        69.039209    
-807648.21      4.9202234      33.563411      25.928316      68.626168    
-807643.26      2.8249725      33.493201      25.954321      68.213094    
-807635.85      3.0413668      32.768078      25.961649      67.800133    
-807622.36      3.3520669      33.471461      25.955681      67.387383    
-807615.42      3.1301462      35.404089      25.963197      66.974743    
-807612.77      3.5483286      34.682936      25.92664       66.562534    
-807622.37      3.3662387      33.826668      25.949453      66.150317    
-807634.65      3.0659918      33.576079      25.966621      65.738136    
-807644.73      2.7891333      33.887019      25.954006      65.326206    
-807644.54      3.2425339      34.50011       25.94792       64.914475    
-807642.55      3.3419376      33.887126      25.883662      64.503349    
-807633.33      2.7874509      33.466049      25.933219      64.092025    
-807623.94      2.9623465      33.771273      25.922674      63.680923    
-807611.42      3.3975514      34.726714      25.853764      63.27044     
-807614.51      3.1693972      34.266046      25.905189      62.859746    
-807624.06      3.9052627      33.670088      25.92711       62.449049    
-807637.39      3.182301       33.660929      25.928955      62.038484    
-807642.86      3.3280671      34.107001      25.956373      61.627883    
-807646.53      3.7310399      33.937164      25.955394      61.217434    
-807643.52      3.2512899      33.899114      25.934689      60.807262    
-807633.45      3.1689058      33.173927      25.925011      60.397292    
-807620.47      3.3030005      34.029854      25.939576      59.987369    
-807612.53      3.2225157      34.442556      25.96679       59.577414    
-807614.01      3.4501599      34.189441      25.935643      59.167793    
-807625.09      3.1344439      33.118624      25.996667      58.757934    
-807636.08      3.187921       32.869215      26.015669      58.348103    
-807644.1       3.1444849      33.875727      25.99007       57.938568    
-807647.11      2.9856168      33.619472      25.965123      57.529319    
-807641.66      2.8490568      34.174647      25.928514      57.120421    
-807632.92      3.3112687      33.602745      25.992872      56.711277    
-807617.4       2.9622602      35.603463      25.920684      56.302686    
-807612.84      3.2346485      35.935955      25.91459       55.894256    
-807612.26      3.4077759      36.39909       25.894642      55.486063    
-807623.99      2.9893159      34.39051       25.961739      55.077616    
-807635.13      3.5920367      34.994027      25.931567      54.669463    
-807643.8       3.2953466      34.848829      25.923651      54.261478    
-807642.65      3.6109718      35.421694      25.921779      53.853624    
-807639.47      3.3319362      34.55113       25.929595      53.445849    
-807629.06      3.5282051      35.138878      25.947883      53.038096    
-807618.33      2.8293631      35.716931      25.910769      52.63066     
-807610.05      3.1568673      36.461197      25.932534      52.223227    
-807615.6       2.9180346      34.925298      25.97455       51.815695    
-807625.83      2.8037814      34.221541      25.955268      51.408382    
-807636.88      3.895754       34.086276      25.918569      51.001373    
-807641.6       3.2256983      34.072639      25.827257      50.594936    
-807642.06      4.3698861      35.500597      25.956849      50.187958    
-807639.3       3.1476321      33.761938      25.972274      49.781021    
-807628.59      3.1921623      33.932165      25.917527      49.374464    
-807617.46      2.6922682      34.385942      25.959315      48.967817    
-807614.71      3.155173       34.485849      25.960322      48.561279    
-807617.96      2.7503871      34.494462      25.956435      48.154871    
-807629.21      3.2785187      33.914976      25.919878      47.748743    
-807636.23      2.9076308      34.59864       25.932558      47.342664    
-807641.49      4.2679233      34.94452       25.96609       46.936539    
-807645.01      3.4140585      34.036347      25.983539      46.530446    
-807637.7       3.6575234      33.954455      25.947122      46.124624    
-807626.45      3.3295252      34.113917      25.943487      45.718924    
-807616.91      3.5031698      34.700549      25.957475      45.313268    
-807613.59      4.1913286      35.600137      25.92138       44.907872    
-807619.6       3.3290759      34.423998      25.954694      44.502436    
-807630.1       3.6131842      33.84005       25.988057      44.096963    
-807637.74      3.3155354      34.410554      25.964936      43.691692    
-807645.62      3.1278742      33.804751      25.921854      43.2867      
-807645.25      2.65857        33.326423      25.933962      42.881756    
-807637.92      3.657467       33.115909      25.992831      42.476676    
-807627.27      3.3907619      33.735297      25.912363      42.072017    
-807618.66      3.2239655      34.173096      25.889049      41.667543    
-807613.74      3.1780788      34.166966      25.893619      41.263144    
-807620.71      2.8619547      33.672735      25.956694      40.858595    
-807630.3       2.863522       33.287001      25.937688      40.454215    
-807640.8       3.2755373      33.763031      25.955419      40.049863    
-807643.43      3.070542       33.843554      25.950667      39.645624    
-807642.19      2.915556       34.118679      25.961104      39.24144     
-807636.39      3.2465035      33.378938      25.933563      38.83745     
-807628.31      2.7829718      33.294453      25.945608      38.433508    
-807616.47      3.1717179      35.413382      25.92597       38.029726    
-807614.45      3.3796343      34.992295      25.9213        37.626049    
-807621.53      3.6575602      35.497317      25.927998      37.222437    
-807631.69      3.1345684      34.549586      25.929144      36.818909    
-807639.53      4.3595971      34.976231      25.931609      36.415461    
-807642.33      3.111118       34.622284      25.951364      36.012035    
-807641.06      3.3100427      34.265213      26.008072      35.608515    
-807635.51      3.3015772      33.697814      25.997187      35.205122    
-807624.18      2.9881436      34.330227      26.000001      34.80181     
-807617.19      3.0470387      34.557517      25.964861      34.398697    
-807617.71      3.3485598      34.186648      26.00426       33.995552    
-807623.98      3.1165716      33.81145       25.915327      33.592762    
-807632.82      3.1295049      33.352124      25.922473      33.190032    
-807638.92      3.8383245      33.890652      25.931919      32.787356    
-807642.23      3.620031       33.769821      25.959155      32.384683    
-807641.5       2.803623       32.879601      25.908486      31.982236    
-807631.58      2.9550586      33.746513      25.85821       31.580009    
-807621.22      2.8035549      34.174594      25.837352      31.177912    
-807617.79      2.5887329      34.442682      25.867277      30.775806    
-807615.79      3.1739188      35.526718      25.846046      30.373829    
-807622.66      3.8588056      35.347901      25.873157      29.971852    
-807631.97      3.5081056      34.276395      25.902294      29.569872    
-807640.57      3.0732294      34.824005      25.935489      29.167882    
-807643.47      3.0249671      34.431124      25.958011      28.765913    
-807637.98      3.0915377      34.860934      25.958186      28.364021    
-807630.2       2.7582449      34.855688      25.940089      27.962251    
-807621.58      3.1774953      34.978771      25.918531      27.560607    
-807614.99      3.1385492      35.877204      25.94344       27.158978    
-807615.15      2.9713789      35.869521      25.935536      26.757442    
-807623.61      2.7783036      34.684966      25.950747      26.355945    
-807635.71      2.7254273      34.22839       25.947738      25.954529    
-807640.1       2.8149336      34.460979      25.982883      25.55311     
-807642.43      2.7645557      33.771561      26.018805      25.151691    
-807638.29      3.4294948      34.406835      26.030915      24.750324    
-807631.48      2.9374837      33.536256      25.995087      24.349109    
-807619.38      3.5032861      34.653204      25.948899      23.948062    
-807614.72      3.5862869      34.992696      25.912565      23.547159    
-807618.24      3.1925455      35.013838      25.907543      23.146333    
-807628.02      4.0080618      34.2273        25.921328      22.745548    
-807635.2       3.5474217      33.864149      25.934122      22.344807    
-807640.75      3.0589265      34.150547      25.925909      21.944149    
-807642.04      3.1458298      33.852042      25.913048      21.543581    
-807638.21      3.6410701      34.026294      25.936781      21.143036    
-807629.6       3.0036741      33.666998      25.935282      20.742562    
-807620.15      4.1336207      34.871731      25.894883      20.342221    
-807618.17      2.7839735      34.173197      25.871348      19.941983    
-807621.09      2.6736845      34.016567      25.929402      19.541712    
-807630.12      2.2753223      33.125766      25.933009      19.1415      
-807636.7       3.066124       33.156428      25.972359      18.741291    
-807643.26      3.0109351      33.048673      26.005776      18.341099    
-807642.31      3.1113578      34.049258      25.999411      17.940986    
-807636.32      4.8465765      34.253284      25.953758      17.541005    
-807627.33      3.001778       33.969213      25.991062      17.141037    
-807624.1       2.625373       33.594818      26.030299      16.741082    
-807617.27      3.1789133      35.084112      25.937594      16.341319    
-807623.06      3.2798737      33.371211      26.008974      15.941525    
-807629.98      2.8652097      34.163147      26.018082      15.541787    
-807641.5       2.9076562      32.635576      25.973273      15.142169    
-807643.65      3.0047383      33.498389      26.0136        14.742567    
-807640.8       3.2300395      33.763249      25.951777      14.343102    
-807634.63      2.5163991      33.86925       25.927228      13.943724    
-807627.19      2.8014883      34.367838      25.851496      13.544488    
-807619.99      2.8288036      34.531239      25.901624      13.145253    
-807616.81      3.2139091      35.111343      25.928092      12.746046    
-807622.25      2.9586045      34.722538      25.931877      12.346893    
-807632.06      3.8397445      34.498531      25.921924      11.947808    
-807639.55      3.8477288      33.971451      25.926904      11.548774    
-807642.92      3.0562266      33.470697      25.928162      11.149796    
-807639.51      4.660907       34.420008      25.926796      10.750875    
-807636.14      3.216601       33.667186      25.938947      10.352       
-807626.39      2.9554457      34.096828      25.966838      9.9531595    
-807618.14      2.8178886      34.758745      25.931229      9.5544033    
-807619.09      3.1836766      34.795298      25.917518      9.155712     
-807623.07      3.5857845      34.95772       25.925073      8.7570693    
-807632.74      3.5509732      33.97118       25.923398      8.3584816    
-807637.14      4.2089049      35.756338      25.939394      7.9599374    
-807641.71      4.8069575      34.869432      25.994148      7.5614154    
-807638.55      3.6173754      35.097968      25.946186      7.1629773    
-807632.52      3.6092065      33.737344      25.930257      6.7646014    
-807622.28      3.2619547      34.816822      25.950437      6.3662682    
-807618.67      3.2883795      34.23646       25.928054      5.9679989    
-807618.38      4.1909142      34.507895      25.931534      5.5697798    
-807624.72      3.5418335      34.489247      25.905556      5.1716228    
-807633.24      2.9585492      33.70542       25.89508       4.7735193    
-807637.94      3.0635857      35.018151      25.938581      4.3754501    
-807641.38      3.5601883      35.213859      25.918269      3.9774382    
-807636.14      3.0368203      36.052163      25.912795      3.5794775    
-807628.51      3.7487353      36.464208      25.869815      3.1815762    
-807622.71      3.4090419      35.164599      25.90895       2.7837126    
-807617.82      3.3520543      36.506745      25.903016      2.3858982    
-807619         3.3928638      35.535964      25.925205      1.9881281    
-807625.2       3.2193781      35.00229       25.926416      1.5904064    
-807633.93      3.4356618      33.815564      25.923755      1.1927332    
-807638.3       2.9894688      34.318684      25.882183      0.79511044   
-807639.97      2.9843719      34.498479      25.914965      0.39753182   
-807635.95      3.7793916      34.875161      25.945748      0            
Loop time of 198.755 on 32 procs for 5000 steps with 1080 atoms

Performance: 4.347 ns/day, 5.521 hours/ns, 25.157 timesteps/s, 27.169 katom-step/s
67.2% CPU use with 32 MPI tasks x 1 OpenMP threads

MPI task timing breakdown:
Section |  min time  |  avg time  |  max time  |%varavg| %total
---------------------------------------------------------------
Pair    | 101.33     | 144.93     | 192.62     | 309.5 | 72.92
Neigh   | 0          | 0          | 0          |   0.0 |  0.00
Comm    | 3.4474     | 51.137     | 94.727     | 520.9 | 25.73
Output  | 0.041345   | 0.046894   | 0.051229   |   0.7 |  0.02
Modify  | 2.2577     | 2.2776     | 2.296      |   0.8 |  1.15
Other   |            | 0.3631     |            |       |  0.18

Nlocal:          33.75 ave          48 max          21 min
Histogram: 8 8 0 0 0 0 0 8 0 8
Nghost:        1106.25 ave        1119 max        1092 min
Histogram: 8 0 8 0 0 0 0 0 8 8
Neighs:              0 ave           0 max           0 min
Histogram: 32 0 0 0 0 0 0 0 0 0
FullNghs:       5494.5 ave        7896 max        3378 min
Histogram: 8 8 0 0 0 0 0 8 0 8

Total # of neighbors = 175824
Ave neighs/atom = 162.8
Neighbor list builds = 0
Dangerous builds = 0

reset_timestep 0


variable interval equal 1000
thermo 10

variable nintervals equal $(v_PERIOD/v_interval)
variable nintervals equal 100
variable efield equal 1e-2*36.36*cos((step/${PERIOD})*2*3.14)
variable efield equal 1e-2*36.36*cos((step/100000)*2*3.14)
fix born all addbornforce 0.0 0.0 v_efield

variable Px equal f_born[1]+c_polarization[1]
variable Py equal f_born[2]+c_polarization[2]
variable Pz equal (f_born[3]+c_polarization[3])/vol
variable pe equal pe

fix aveP all ave/time 1 $(v_interval/2) ${interval} v_efield v_Pz v_pe f_born file Pz.${MODEL}.${STRUCTURE}.${TEMP}.$L.${ITER}
fix aveP all ave/time 1 500 ${interval} v_efield v_Pz v_pe f_born file Pz.${MODEL}.${STRUCTURE}.${TEMP}.$L.${ITER}
fix aveP all ave/time 1 500 1000 v_efield v_Pz v_pe f_born file Pz.${MODEL}.${STRUCTURE}.${TEMP}.$L.${ITER}
fix aveP all ave/time 1 500 1000 v_efield v_Pz v_pe f_born file Pz.BaTiO3-E0.${STRUCTURE}.${TEMP}.$L.${ITER}
fix aveP all ave/time 1 500 1000 v_efield v_Pz v_pe f_born file Pz.BaTiO3-E0.BaTiO3-sc333.${TEMP}.$L.${ITER}
fix aveP all ave/time 1 500 1000 v_efield v_Pz v_pe f_born file Pz.BaTiO3-E0.BaTiO3-sc333.310.$L.${ITER}
fix aveP all ave/time 1 500 1000 v_efield v_Pz v_pe f_born file Pz.BaTiO3-E0.BaTiO3-sc333.310.2.${ITER}
fix aveP all ave/time 1 500 1000 v_efield v_Pz v_pe f_born file Pz.BaTiO3-E0.BaTiO3-sc333.310.2.9

thermo_style custom step time temp press pe f_born v_efield v_Pz spcpu cpuremain

# dump 4a all custom 1000 dump.hyst.${MODEL}.${STRUCTURE}.${TEMP}.$L.${ITER}.bin id type xu yu zu fx fy fz
# dump_modify 4a sort id

fix nvt all nvt temp ${TEMP} ${TEMP} $(100*dt)
fix nvt all nvt temp 310 ${TEMP} $(100*dt)
fix nvt all nvt temp 310 310 $(100*dt)
fix nvt all nvt temp 310 310 0.2000000000000000111

run $(v_PERIOD)
run 100000
WARNING: non-constant efield is experimental, strongly distrust scalar/vector output (src/fix_addbornforce.cpp:193)
Per MPI rank memory allocation (min/avg/max) = 3.516 | 3.516 | 3.516 Mbytes
   Step          Time           Temp          Press          PotEng         f_born        v_efield         v_Pz          S/CPU         CPULeft    
         0   0              304.71574      128318.39     -807635.94     -295.70384      0.3636         0.055613549    0              0            
        10   0.02           322.14284      134827.23     -807629.79     -304.25934      0.36359993     0.057222608    27.843077      3591.2168    
        20   0.04           319.85244      139715.14     -807623.77     -310.05533      0.36359971     0.058312704    27.949637      3584.0055    
        30   0.06           313.94012      144182.39     -807618.4      -314.61307      0.36359935     0.059169946    27.878423      3584.4055    
        40   0.08           317.57165      140509.95     -807621.21     -312.43391      0.36359885     0.058760189    27.844945      3585.5053    
        50   0.1            320.72304      137295.68     -807626.93     -307.17923      0.36359821     0.05777203     27.843299      3586.0619    
        60   0.12           314.32942      128850.68     -807635.6      -297.75669      0.36359742     0.05600003     27.855627      3586.0517    
        70   0.14           300.13718      126966.33     -807637.95     -293.47669      0.36359649     0.055195218    27.844636      3586.1426    
        80   0.16           298.47427      124869.05     -807639        -292.34364      0.36359541     0.054982283    27.828925      3586.3744    
        90   0.18           309.4318       130689        -807635.44     -297.58737      0.36359419     0.055968682    27.83321       3586.4139    
       100   0.2            315.81584      134278.66     -807630.55     -303.57587      0.36359283     0.057095181    27.850486      3586.1506    
       110   0.22           317.65242      141048.03     -807622.02     -312.52044      0.36359132     0.058777679    27.884151      3585.4757    
       120   0.24           309.91451      142536.31     -807619.5      -314.20127      0.36358968     0.059094071    27.832939      3585.4033    
       130   0.26           310.61626      141011.28     -807622.41     -311.53487      0.36358788     0.058592871    27.737842      3586.2329    
       140   0.28           317.79386      134582.09     -807630.59     -304.58167      0.36358595     0.057285432    27.78528       3586.4538    
       150   0.3            309.63776      129605.17     -807635.47     -298.79593      0.36358387     0.056197576    27.826735      3586.2398    
       160   0.32           293.69179      125177.18     -807638.85     -293.38186      0.36358165     0.055179635    27.81922       3586.0684    
       170   0.34           301.05098      126268.73     -807640.62     -292.85563      0.36357928     0.055081019    27.850518      3585.6377    
       180   0.36           294.84012      129880.48     -807634.88     -298.00829      0.36357677     0.056050532    27.840126      3585.2893    
       190   0.38           315.79609      135075.34     -807628.95     -307.06802      0.36357412     0.057754942    27.905503      3584.4977    
       200   0.4            306.95234      140674.77     -807622.55     -312.46985      0.36357132     0.058771398    27.959827      3583.402     
       210   0.42           300.76893      142807.41     -807621.06     -313.2751       0.36356838     0.05892333     27.914028      3582.6554    
       220   0.44           301.63791      140353.68     -807623.51     -311.10714      0.3635653      0.058516059    27.903991      3582.0028    
       230   0.46           306.41098      134196.1      -807630.26     -305.203        0.36356207     0.057406061    27.950886      3581.1145    
       240   0.48           301.59977      129208.77     -807637.08     -297.82151      0.3635587      0.056018185    27.944853      3580.303     
       250   0.5            288.37381      124456.75     -807641.74     -291.47424      0.36355519     0.054824838    27.951596      3579.4929    
       260   0.52           286.99123      126920.08     -807639.29     -293.82969      0.36355153     0.055268441    27.908462      3578.9301    
       270   0.54           298.69084      129205.79     -807635.8      -299.12151      0.36354773     0.056264404    27.881496      3578.5102    
       280   0.56           304.72723      136701.96     -807627.71     -308.07946      0.36354379     0.057950012    27.855172      3578.2154    
       290   0.58           307.30911      139824.38     -807624.58     -311.59932      0.3635397      0.05861276     27.886606      3577.777     
       300   0.6            301.27654      142744.12     -807620.41     -314.80248      0.36353547     0.059215973    27.904943      3577.2657    
       310   0.62           309.85495      137407.53     -807626.23     -310.25247      0.3635311      0.058360794    27.864198      3576.9328    
       320   0.64           308.11652      134372.09     -807631.3      -304.77699      0.36352658     0.057331528    27.856543      3576.629     
       330   0.66           298.48441      126589.56     -807638.87     -295.77987      0.36352192     0.055639795    27.845753      3576.3639    
       340   0.68           287.26146      126984.49     -807640.22     -292.61176      0.36351712     0.055044562    27.822811      3576.18      
       350   0.7            291.22094      125362.41     -807639.58     -293.65549      0.36351217     0.055241655    27.832329      3575.9511    
       360   0.72           300.75312      132286.1      -807632.75     -301.39392      0.36350708     0.056698182    27.798481      3575.8361    
       370   0.74           304.26063      136252.1      -807627.19     -307.11647      0.36350185     0.057775538    27.793743      3575.7242    
       380   0.76           309.79163      143251.35     -807620.21     -314.18602      0.36349647     0.059106356    27.805396      3575.5599    
       390   0.78           310.44288      141326.51     -807620.75     -313.27243      0.36349095     0.05893538     27.834542      3575.2893    
       400   0.8            320.97963      139539.25     -807624.82     -310.16399      0.36348529     0.058351505    27.839397      3574.9987    
       410   0.82           309.95803      131399.88     -807631.79     -301.31789      0.36347948     0.056688183    27.867307      3574.6174    
       420   0.84           319.76896      127781.14     -807639        -295.04548      0.36347353     0.055509037    27.846739      3574.3       
       430   0.86           302.45653      124909.83     -807639.59     -291.85756      0.36346744     0.05491019     27.913224      3573.7825    
       440   0.88           311.29637      128416.67     -807637.86     -294.62977      0.3634612      0.055432706    27.881774      3573.3638    
       450   0.9            313.58068      133031.54     -807631.7      -300.97901      0.36345482     0.05662827     27.892969      3572.9159    
       460   0.92           319.04761      139072.95     -807624.52     -308.80192      0.3634483      0.05810117     27.947936      3572.3193    
       470   0.94           316.26801      142764.48     -807619.21     -313.67023      0.36344163     0.059018227    27.964443      3571.6882    
       480   0.96           307.19146      143758.85     -807618.31     -313.17865      0.36343482     0.058926837    27.91962       3571.1874    
       490   0.98           324.31357      137547.87     -807626.73     -307.12139      0.36342786     0.057788225    27.882056      3570.7905    
       500   1              324.74071      131256.75     -807632.91     -300.86942      0.36342077     0.056612956    27.873073      3570.418     
       510   1.02           316.66354      126809.96     -807638.04     -9425.8137      0.36341353     0.055426225    27.854084      3570.0939    
       520   1.04           303.56605      126078.74     -807639.07     -9331.9908      0.36340614     0.054875638    27.809582      3569.8784    
       530   1.06           311.18342      127842.91     -807637.33     -9422.0639      0.36339862     0.055406449    27.817124      3569.639     
       540   1.08           330.43344      133335.06     -807631.39     -9699.8852      0.36339095     0.057041381    27.828256      3569.3687    
       550   1.1            309.43762      139660.42     -807621.2      -9935.1846      0.36338313     0.058426345    27.804182      3569.1516    
       560   1.12           319.93899      143140.97     -807619.88     -10025.028      0.36337518     0.058955979    27.751283      3569.0509    
       570   1.14           305.66637      142291.06     -807619.02     -9991.3056      0.36336707     0.058758975    27.75095       3568.942     
       580   1.16           320.44553      138415.67     -807625.3      -9858.6888      0.36335883     0.057980369    27.776921      3568.7666    
       590   1.18           334.40636      131384.36     -807634.74     -9622.3019      0.36335044     0.05659145     27.742621      3568.66      
       600   1.2            299.63474      126734.81     -807637.14     -9393.8617      0.36334191     0.055249226    27.731289      3568.5693    
       610   1.22           306.81805      126630.16     -807639.79     -9343.3793      0.36333324     0.05495363     27.748342      3568.4336    
       620   1.24           306.35009      127653.88     -807636.08     -9468.5957      0.36332442     0.055691449    27.777346      3568.2304    
       630   1.26           323.12943      134804.92     -807630.33     -9732.4589      0.36331546     0.057244825    27.791866      3567.9926    
       640   1.28           314.67305      138317.64     -807623.87     -9909.3695      0.36330636     0.058286847    27.802222      3567.7301    
       650   1.3            310.27833      142522.4      -807619.75     -10025.339      0.36329711     0.058970481    27.795465      3567.478     
       660   1.32           309.09001      141534.5      -807621.81     -9960.9357      0.36328772     0.058593165    27.812683      3567.1892    
       670   1.34           312.75632      137299.39     -807626.74     -9824.1564      0.36327819     0.057790104    27.81318       3566.8972    
       680   1.36           316.24248      129612.92     -807635.66     -9559.0126      0.36326851     0.056231907    27.817508      3566.5951    
       690   1.38           305.20403      127665.2      -807638.65     -9416.5526      0.36325869     0.055395369    27.772023      3566.376     
       700   1.4            301.80649      124869.43     -807639.81     -9372.2336      0.36324873     0.055136163    27.791386      3566.1174    
       710   1.42           303.10674      131034.48     -807635.01     -9536.2351      0.36323863     0.056102533    27.84258       3565.7634    
       720   1.44           308.79511      134347.68     -807630.15     -9723.7246      0.36322838     0.057207164    27.881372      3565.3403    
       730   1.46           312.1774       140161.14     -807623.54     -9953.9615      0.36321798     0.058563383    27.849674      3564.9745    
       740   1.48           301.49803      141710.1      -807620.53     -10009.386      0.36320745     0.058891179    27.770698      3564.7459    
       750   1.5            304.04133      141298.22     -807622.39     -9961.3343      0.36319677     0.058610183    27.794666      3564.4726    
       760   1.52           313.38227      133794.86     -807630.91     -9735.5297      0.36318595     0.057283308    27.813758      3564.1647    
       770   1.54           310.16215      130312.66     -807635.39     -9577.663       0.36317498     0.056356131    27.809695      3563.8625    
       780   1.56           296.08957      126393.33     -807639.31     -9391.9294      0.36316387     0.055264943    27.853217      3563.4873    
       790   1.58           303.70259      126545.11     -807640.39     -9392.4607      0.36315262     0.055269781    27.847215      3563.1221    
       800   1.6            294.15425      130416.09     -807634.8      -9532.0249      0.36314122     0.056092805    27.828959      3562.7863    
       810   1.62           312.39311      135145.62     -807629.18     -9794.0552      0.36312968     0.057636598    27.849452      3562.4176    
       820   1.64           299.07711      139536.2      -807621.75     -9972.1139      0.363118       0.058686335    27.812202      3562.1072    
       830   1.66           302.6966       141681.96     -807621.35     -10001.778      0.36310618     0.058862826    27.795848      3561.821     
       840   1.68           295.43539      140066.02     -807622.13     -9943.2674      0.36309421     0.058520407    27.827683      3561.4844    
       850   1.7            313.95107      133919.68     -807631.05     -9739.3035      0.3630821      0.057321903    27.837984      3561.1317    
       860   1.72           307.92352      129621.12     -807636.07     -9545.9703      0.36306984     0.056185913    27.818681      3560.8077    
       870   1.74           289.75801      126172.14     -807639        -9368.2032      0.36305745     0.05514149     27.821313      3560.479     
       880   1.76           299.54033      128035.77     -807638.72     -9416.5313      0.3630449      0.055427865    27.798546      3560.1827    
       890   1.78           306.10396      130519.49     -807633.74     -9600.2657      0.36303222     0.056511342    27.80484       3559.8759    
       900   1.8            311.62155      136574.06     -807627.55     -9815.8731      0.36301939     0.057782543    27.837654      3559.5213    
       910   1.82           307.44129      139292.99     -807623.24     -9928.3297      0.36300642     0.058446623    27.830879      3559.1761    
       920   1.84           309.24821      142271.31     -807620.19     -10022.606      0.36299331     0.059003747    27.813282      3558.8551    
       930   1.86           304.15593      138774.44     -807623.06     -9898.0548      0.36298005     0.058272632    27.814244      3558.5318    
       940   1.88           323.51356      134414.57     -807631.84     -9686.966       0.36296665     0.057031998    27.820108      3558.1999    
       950   1.9            312.94986      128168.57     -807636.72     -9472.0909      0.36295311     0.055769003    27.797618      3557.8977    
       960   1.92           295.89546      128014.3      -807635.68     -9415.1997      0.36293942     0.055436133    27.805278      3557.584     
       970   1.94           308.14621      127545.32     -807637.33     -9406.9133      0.36292559     0.055389454    27.821394      3557.2482    
       980   1.96           313.83696      132568.46     -807632        -9593.2496      0.36291162     0.056488808    27.785685      3556.9586    
       990   1.98           323.36304      136029.18     -807627.58     -9771.9424      0.3628975      0.057543259    27.774474      3556.682     
      1000   2              310.26775      142711.57     -807618.33     -10000.656      0.36288325     0.058892381    27.687344      3556.516     
      1010   2.02           312.38859      141020.52     -807619.17     -311.9305       0.36286884     0.058783533    27.88557       3556.0945    
      1020   2.04           313.87582      139748.6      -807622.94     -308.16289      0.3628543      0.058075851    27.895653      3555.6615    
      1030   2.06           329.75597      132414.21     -807631.45     -301.79949      0.36283961     0.056878918    27.861591      3555.2722    
      1040   2.08           309.05745      130638.61     -807633.42     -296.7686       0.36282478     0.055933054    27.919462      3554.8127    
      1050   2.1            314.21611      126370.15     -807637.82     -293.12031      0.3628098      0.055247728    27.876433      3554.4072    
      1060   2.12           312.09932      128540.96     -807636.74     -293.85292      0.36279469     0.055388118    27.879418      3553.999     
      1070   2.14           325.02203      131691.09     -807632.87     -299.57713      0.36277943     0.056469445    27.891545      3553.5773    
      1080   2.16           327.47881      137912.81     -807625.19     -307.69289      0.36276402     0.058001707    27.967168      3553.0679    
      1090   2.18           320.99394      141356.19     -807620.62     -311.44945      0.36274848     0.058712353    27.965322      3552.5635    
      1100   2.2            313.32228      141525.16     -807620.44     -310.65518      0.36273279     0.058565157    27.958234      3552.07      
      1110   2.22           322.7909       138553.07     -807626.09     -306.41762      0.36271695     0.057768808    27.926606      3551.6149    
      1120   2.24           320.00654      132718.12     -807630.43     -301.83771      0.36270098     0.056907864    27.864335      3551.2323    
      1130   2.26           303.33867      128864.16     -807633.97     -296.07478      0.36268486     0.055823814    27.849561      3550.8667    
      1140   2.28           308.32703      126895.49     -807639.2      -291.6049       0.3626686      0.054983499    27.900654      3550.4442    
      1150   2.3            303.21657      129368.22     -807635.65     -294.6533       0.36265219     0.055560803    27.891974      3550.0324    
      1160   2.32           318.78638      133162.57     -807630.61     -302.09409      0.36263564     0.056966462    27.928121      3549.582     
      1170   2.34           314.95308      138496.1      -807624.16     -308.16033      0.36261895     0.05811306     27.917475      3549.1447    
      1180   2.36           308.57175      140653.45     -807621.72     -309.80178      0.36260212     0.058425319    27.831529      3548.8014    
      1190   2.38           314.13445      140167.78     -807622.18     -310.23178      0.36258514     0.058509152    27.831231      3548.4581    
      1200   2.4            324.04271      137498.88     -807626.28     -307.71798      0.36256802     0.058037794    27.814466      3548.1324    
      1210   2.42           320.18256      132407.3      -807632.26     -301.33587      0.36255076     0.056836788    27.841243      3547.7779    
      1220   2.44           309.39877      128169.61     -807638.23     -293.99895      0.36253335     0.05545559     27.854442      3547.4095    
      1230   2.46           296.39002      127609.57     -807638.53     -292.04075      0.3625158      0.05508889     27.856301      3547.0394    
      1240   2.48           300.26617      128995.19     -807634.64     -296.64084      0.36249811     0.055959355    27.920246      3546.604     
      1250   2.5            308.48377      132847.59     -807630.39     -302.1752       0.36248028     0.057006181    27.934163      3546.1557    
      1260   2.52           309.34781      137334.9      -807626.54     -306.22782      0.3624623      0.057773586    27.971348      3545.6716    
      1270   2.54           311.13896      140554.63     -807622.84     -310.26252      0.36244418     0.058537706    27.908409      3545.2521    
      1280   2.56           313.36045      140665.82     -807622.03     -311.48766      0.36242592     0.058771818    27.888258      3544.8535    
      1290   2.58           323.03096      135780.45     -807628.46     -306.43371      0.36240751     0.057821169    27.881736      3544.462     
      1300   2.6            315.24039      131400.16     -807634.85     -298.97336      0.36238896     0.056416358    27.92696       3544.0269    
      1310   2.62           292.23584      127871.19     -807636.31     -294.37954      0.36237027     0.055552369    27.88733       3543.6313    
      1320   2.64           295.27507      126687.97     -807636.57     -294.57498      0.36235143     0.055592141    27.9176        3543.2072    
      1330   2.66           308.20556      129016.35     -807636.1      -296.88465      0.36233245     0.056030956    27.970714      3542.7336    
      1340   2.68           315.09692      133895.25     -807631.85     -302.13666      0.36231333     0.057025175    27.943807      3542.2871    
      1350   2.7            305.4784       139158.33     -807624.37     -308.24075      0.36229407     0.058180352    27.907071      3541.8764    
      1360   2.72           322.45612      140611.7      -807623.52     -311.46848      0.36227466     0.058792735    27.885879      3541.4862    
      1370   2.74           308.39246      140204.8      -807624.09     -308.94046      0.36225511     0.058318694    27.876053      3541.1055    
      1380   2.76           310.76225      135126.7      -807630.03     -303.28393      0.36223542     0.057254023    27.873784      3540.7272    
      1390   2.78           293.60285      131114.87     -807632.3      -298.57988      0.36221558     0.056369077    27.830988      3540.3883    
      1400   2.8            301.50519      127784.42     -807637.35     -294.55209      0.3621956      0.055611737    27.83075       3540.0494    
      1410   2.82           303.19283      127457.05     -807638.58     -293.4707       0.36217548     0.055410646    27.905874      3539.6426    
      1420   2.84           306.54203      130024.62     -807636        -296.47895      0.36215522     0.05598177     27.902492      3539.2395    
      1430   2.86           321.89569      135140.66     -807630.7      -303.85219      0.36213481     0.057377235    27.891409      3538.8467    
      1440   2.88           320.86907      138127.66     -807625.32     -309.13258      0.36211426     0.058377658    27.8845        3538.4606    
      1450   2.9            310.73882      140094.02     -807622.58     -310.34723      0.36209357     0.058610386    27.909764      3538.0528    
      1460   2.92           313.73436      137972.39     -807625.61     -307.68523      0.36207273     0.058110999    27.844421      3537.7023    
      1470   2.94           314.08654      133945.8      -807629.42     -303.82481      0.36205176     0.057385225    27.866938      3537.3323    
      1480   2.96           303.69708      130181.2      -807633.17     -298.51969      0.36203064     0.056386505    27.907272      3536.928     
      1490   2.98           299.72226      127756.47     -807637.7      -293.33009      0.36200937     0.055409512    27.896653      3536.5333    
      1500   3              303.05889      128338.97     -807637.07     -294.27849      0.36198796     0.05559195     27.888552      3536.1459    
      1510   3.02           312.91965      131146.96     -807633.21     -9582.5943      0.36196642     0.056573411    27.888106      3535.7592    
      1520   3.04           316.2397       135062.34     -807628.69     -9741.3536      0.36194472     0.057514136    27.872938      3535.3856    
      1530   3.06           304.80873      139252.82     -807623.32     -9856.3122      0.36192289     0.058196376    27.847936      3535.0329    
      1540   3.08           312.83368      139414.29     -807623.39     -9885.807       0.36190091     0.058374072    27.818767      3534.7042    
      1550   3.1            309.53216      138860.22     -807623.58     -9860.8582      0.36187879     0.058230313    27.821297      3534.373     
      1560   3.12           328.17172      133554.07     -807632.3      -9661.0978      0.36185653     0.057054198    27.808642      3534.0518    
      1570   3.14           306.59984      130697.11     -807634.56     -9483.2285      0.36183412     0.056007248    27.840452      3533.7043    
      1580   3.16           307.89589      127721.91     -807637.91     -9378.6284      0.36181157     0.05539294     27.820313      3533.3729    
      1590   3.18           310.43313      129184.93     -807635.16     -9471.3507      0.36178888     0.055944094    27.877795      3532.9952    
      1600   3.2            319.04621      131086.18     -807633.04     -9571.984       0.36176605     0.056542069    27.880151      3532.616     
      1610   3.22           308.07617      137024.42     -807626.39     -9724.9872      0.36174307     0.057449513    27.80355       3532.2973    
      1620   3.24           314.91757      139304.19     -807622.91     -9855.6279      0.36171995     0.058224983    27.763418      3532.0097    
      1630   3.26           322.17929      140317.32     -807621.78     -9908.1725      0.36169669     0.05853917     27.767639      3531.718     
      1640   3.28           324.82068      137827.52     -807624.82     -9805.3617      0.36167329     0.057935496    27.786338      3531.4108    
      1650   3.3            323.87493      133217.59     -807629.84     -9623.573       0.36164974     0.056865089    27.777249      3531.1101    
      1660   3.32           328.85632      130590.94     -807634.7      -9475.0717      0.36162605     0.055991272    27.848672      3530.7539    
      1670   3.34           330.95606      128034.29     -807635.86     -9436.5151      0.36160222     0.055767104    27.904379      3530.3555    
      1680   3.36           329.25768      129542.89     -807634.81     -9453.5052      0.36157824     0.055871215    27.90185       3529.9595    
      1690   3.38           329.6836       131755.94     -807632.61     -9520.4672      0.36155413     0.056270721    27.868695      3529.5887    
      1700   3.4            319.92172      136575.76     -807624.74     -9726.2302      0.36152987     0.057490741    27.817092      3529.2566    
      1710   3.42           338.62185      138616.3      -807623.02     -9861.7826      0.36150546     0.058295912    27.829305      3528.915     
      1720   3.44           327.25731      139562        -807622.2      -9836.357       0.36148092     0.058149561    27.847232      3528.56      
      1730   3.46           322.18657      137610.45     -807624.88     -9726.5176      0.36145623     0.057504152    27.798389      3528.2409    
      1740   3.48           321.73646      133407.93     -807628.73     -9603.4205      0.3614314      0.05678029     27.775983      3527.9376    
      1750   3.5            323.06813      131164.16     -807631.84     -9511.4594      0.36140643     0.056240455    27.807638      3527.6107    
      1760   3.52           315.72304      129571.96     -807634.92     -9383.994       0.36138131     0.055490619    27.817784      3527.2761    
      1770   3.54           325.97256      130809.48     -807634.42     -9449.5744      0.36135605     0.055882324    27.834678      3526.9291    
      1780   3.56           316.98138      133160.33     -807629.32     -9582.1541      0.36133065     0.056670349    27.787535      3526.6156    
      1790   3.58           315.9878       138078.96     -807624.37     -9742.756       0.36130511     0.057624247    27.796322      3526.2954    
      1800   3.6            334.45918      137639.94     -807626.04     -9780.6467      0.36127942     0.057852467    27.774367      3525.9902    
      1810   3.62           323.04183      139454.04     -807624.01     -9804.1622      0.3612536      0.057995707    27.778392      3525.6816    
      1820   3.64           319.54833      136427.99     -807626.23     -9727.5661      0.36122763     0.057546746    27.759332      3525.3857    
      1830   3.66           316.38441      134915.44     -807629.09     -9627.6098      0.36120151     0.056959538    27.755028      3525.0922    
      1840   3.68           310.08994      129982.85     -807634.24     -9444.9156      0.36117526     0.055882732    27.721469      3524.8212    
      1850   3.7            315.01562      130296.68     -807635.44     -9432.8546      0.36114886     0.05581545     27.72097       3524.5495    
      1860   3.72           306.67997      130872.07     -807632.95     -9483.7099      0.36112232     0.056120492    27.725012      3524.2742    
      1870   3.74           322.82334      135070.22     -807630.77     -9630.7203      0.36109564     0.056994647    27.767526      3523.9689    
      1880   3.76           312.6178       135818.92     -807627.88     -9684.3618      0.36106881     0.057316355    27.791569      3523.6468    
      1890   3.78           326.34381      138957.08     -807626.42     -9795.7953      0.36104184     0.057980199    27.862556      3523.2767    
      1900   3.8            305.63149      136811.48     -807624.71     -9766.3974      0.36101474     0.057810537    27.867632      3522.9034    
      1910   3.82           317.02923      136255.3      -807628.06     -9711.1501      0.36098748     0.05748785     27.842017      3522.5471    
      1920   3.84           308.08105      132061.93     -807631.86     -9555.2479      0.36096009     0.056569236    27.885776      3522.162     
      1930   3.86           312.73315      130223.41     -807635.02     -9478.7049      0.36093255     0.056120366    27.897789      3521.7694    
      1940   3.88           301.70366      130648.13     -807634.32     -9456.302       0.36090487     0.055992019    27.854924      3521.405     
      1950   3.9            303.94983      131057.23     -807632.92     -9515.2416      0.36087705     0.056345352    27.852665      3521.0421    
      1960   3.92           314.1383       133519.45     -807630.9      -9627.6056      0.36084909     0.057015143    27.876802      3520.6637    
      1970   3.94           308.20208      135799.34     -807628.03     -9698.4089      0.36082098     0.057438917    27.877073      3520.2854    
      1980   3.96           310.05128      138315.77     -807625.38     -9791.5327      0.36079273     0.057994985    27.848726      3519.9253    
      1990   3.98           307.91891      135386.23     -807626.57     -9747.4585      0.36076434     0.057738478    27.779189      3519.6095    
      2000   4              304.05449      135449.08     -807628.17     -9678.3039      0.36073581     0.057333379    27.760952      3519.3048    
      2010   4.02           314.37097      130737.31     -807634.31     -297.83266      0.36070713     0.05646315     27.820254      3518.9621    
      2020   4.04           299.31669      131636.18     -807633.14     -296.84992      0.36067831     0.056281339    27.810122      3518.6257    
      2030   4.06           303.80184      129036.52     -807635.39     -295.30432      0.36064935     0.055992797    27.8109        3518.2885    
      2040   4.08           311.97399      132452.88     -807633.95     -297.86931      0.36062025     0.056483704    27.811861      3517.9505    
      2050   4.1            307.21666      133285.86     -807631.46     -299.81322      0.36059101     0.05685693     27.811056      3517.6128    
      2060   4.12           312.55071      137530.82     -807627.18     -304.83669      0.36056162     0.057814297    27.896778      3517.2223    
      2070   4.14           293.06261      137729.87     -807624.54     -304.86393      0.36053209     0.057824199    27.874414      3516.8458    
      2080   4.16           304.25381      137698.95     -807627.14     -303.78945      0.36050242     0.057625144    27.834953      3516.4934    
      2090   4.18           304.52477      133675.49     -807630.32     -300.68837      0.36047261     0.057041624    27.806849      3516.1579    
      2100   4.2            304.96385      132347.06     -807632.55     -298.45807      0.36044265     0.056623233    27.85855       3515.791     
      2110   4.22           304.48129      129706.74     -807635.56     -295.34868      0.36041256     0.056038002    27.854556      3515.4267    
      2120   4.24           305.81549      130533.56     -807635.56     -295.43904      0.36038232     0.05605985     27.860756      3515.0587    
      2130   4.26           317.70005      131216.26     -807635.3      -297.38874      0.36035193     0.056434565    27.961395      3514.6314    
      2140   4.28           304.95326      134463.83     -807629.49     -301.37689      0.36032141     0.057196229    27.961718      3514.2046    
      2150   4.3            299.79004      137079.05     -807627.19     -302.90451      0.36029075     0.057491039    27.918137      3513.8039    
      2160   4.32           306.53394      136958.87     -807626.93     -303.99752      0.36025994     0.057703424    27.911748      3513.4072    
      2170   4.34           314.39548      135683.84     -807628.93     -303.0258       0.36022899     0.057523918    27.898342      3513.0187    
      2180   4.36           307.58471      135157.21     -807630.12     -300.77028      0.36019789     0.057100678    27.889566      3512.6355    
      2190   4.38           311.95678      132203.99     -807633.46     -297.89794      0.36016666     0.056560275    27.882864      3512.2563    
      2200   4.4            313.22592      129861.35     -807636.29     -295.01879      0.36013528     0.056018505    27.86782       3511.886     
      2210   4.42           300.20837      130737.69     -807634.47     -294.80524      0.36010377     0.055982856    27.883483      3511.5069    
      2220   4.44           303.11963      132263.54     -807632.17     -297.37649      0.36007211     0.056476095    27.890245      3511.1241    
      2230   4.46           307.90438      134917.78     -807629.39     -300.52813      0.3600403      0.05707968     27.901838      3510.735     
      2240   4.48           307.48829      136283.89     -807626.66     -302.89148      0.36000836     0.057533658    27.883466      3510.3564    
      2250   4.5            313.29504      137894.47     -807625.95     -304.11614      0.35997627     0.057771429    27.934102      3509.9499    
      2260   4.52           322.39871      136715.38     -807628.11     -302.95477      0.35994404     0.057555962    27.872149      3509.5781    
      2270   4.54           328.59509      134269.49     -807631.24     -300.30879      0.35991167     0.057058405    27.853492      3509.2168    
      2280   4.56           312.5297       131915.17     -807633.06     -296.02179      0.35987916     0.05624896     27.82209       3508.8729    
      2290   4.58           302.72577      131659.42     -807633.14     -294.33192      0.35984651     0.055932933    27.79794       3508.5422    
      2300   4.6            323.76886      129699.53     -807635.19     -294.97351      0.35981371     0.056059965    27.853942      3508.1805    
      2310   4.62           305.78665      133119.37     -807629.32     -298.11176      0.35978077     0.05666158     27.841994      3507.8254    
      2320   4.64           316.15624      134852.47     -807628.69     -300.03406      0.35974769     0.057032192    27.864187      3507.4582    
      2330   4.66           327.75732      136949.43     -807627.14     -302.97247      0.35971447     0.057596061    27.879704      3507.0826    
      2340   4.68           316.28517      137194.24     -807624.9      -303.52148      0.35968111     0.057705781    27.863346      3506.716     
      2350   4.7            325.48575      136855.82     -807626.87     -302.71858      0.3596476      0.057558495    27.784627      3506.3917    
      2360   4.72           311.95918      133760.87     -807629.38     -298.18869      0.35961396     0.056702491    27.842887      3506.036     
      2370   4.74           320.8511       131511.4      -807633.58     -295.12595      0.35958017     0.056125366    27.855443      3505.6736    
      2380   4.76           317.67736      129526.24     -807634.62     -293.628        0.35954624     0.055845763    27.919564      3505.2773    
      2390   4.78           317.23104      131792.5      -807632.17     -296.02372      0.35951216     0.056306748    27.930456      3504.8757    
      2400   4.8            321.90857      132417.86     -807632.48     -296.43936      0.35947795     0.056391173    27.897288      3504.4918    
      2410   4.82           307.32678      136576.3      -807626.78     -300.11623      0.35944359     0.057096075    27.919498      3504.0965    
      2420   4.84           320.48735      137423.87     -807625.45     -303.40487      0.35940909     0.057727269    27.8623        3503.7312    
      2430   4.86           316.71948      139084.74     -807623.79     -304.62307      0.35937446     0.057964636    27.86275       3503.3657    
      2440   4.88           311.89394      135947.68     -807627.53     -300.32227      0.35933967     0.057151797    27.879547      3502.9916    
      2450   4.9            326.80155      133450.67     -807632.93     -297.14488      0.35930475     0.05655263     27.86532       3502.6249    
      2460   4.92           314.29502      131328.1      -807632.12     -296.44107      0.35926969     0.056424188    27.883809      3502.2489    
      2470   4.94           321.2808       130261.94     -807634.82     -294.94422      0.35923448     0.056144781    27.851211      3501.8896    
      2480   4.96           308.29677      130726.27     -807634.17     -293.99249      0.35919913     0.05596912     27.854934      3501.5283    
      2490   4.98           311.52836      132880.73     -807632.64     -296.20171      0.35916364     0.056395275    27.821582      3501.184     
      2500   5              312.03166      135323.41     -807627.17     -302.07617      0.35912801     0.057519448    27.853525      3500.8234    
[...]
     98740   197.48         318.36806      132903.48     -807631.1      -9631.1788      0.36236891     0.056797086    28.876789      44.252417    
     98750   197.5          308.44476      133570.1      -807629        -9656.9089      0.36238762     0.056945882    28.876515      43.901145    
     98760   197.52         310.7556       133691.6      -807629.37     -9659.5612      0.36240618     0.056958606    28.84863       43.549878    
     98770   197.54         314.34936      134409.76     -807629.06     -9691.717       0.36242459     0.057145311    28.839444      43.198614    
     98780   197.56         315.94577      134806.59     -807629.85     -9680.059       0.36244287     0.057073695    28.838248      42.847351    
     98790   197.58         312.49292      134648.92     -807628.84     -9703.6164      0.362461       0.057209727    28.825231      42.49609     
     98800   197.6          315.11057      134401.16     -807628.95     -9715.4224      0.36247899     0.057276489    28.782376      42.144837    
     98810   197.62         315.08497      132460.33     -807631.02     -9657.5284      0.36249683     0.056932377    28.769161      41.793587    
     98820   197.64         308.16971      135000.72     -807629.09     -9692.6446      0.36251453     0.057136602    28.817817      41.44233     
     98830   197.66         307.73529      133218.3      -807630.85     -9643.8019      0.36253209     0.056845928    28.860924      41.091068    
     98840   197.68         304.49008      135495.69     -807628.32     -9712.7127      0.36254951     0.057249376    28.874543      40.739805    
     98850   197.7          311.48605      131889.95     -807631.93     -9638.7675      0.36256678     0.056810817    28.86246       40.388545    
     98860   197.72         296.7281       136252.91     -807626.94     -9735.0459      0.36258391     0.05737557     28.855119      40.037286    
     98870   197.74         321.6416       132059.62     -807632.27     -9685.5656      0.3626009      0.057081273    28.867738      39.686027    
     98880   197.76         297.35472      135701.29     -807627.24     -9739.7386      0.36261774     0.057397872    28.847341      39.334772    
     98890   197.78         310.03573      132158.67     -807631.77     -9659.8654      0.36263445     0.056924544    28.827617      38.98352     
     98900   197.8          305.62509      135469.99     -807629.13     -9725.5543      0.362651       0.057309025    28.830914      38.632269    
     98910   197.82         308.03303      132226.64     -807631.88     -9656.5342      0.36266742     0.05689974     28.849183      38.281016    
     98920   197.84         300.82271      135549.02     -807629.68     -9695.191       0.36268369     0.057124956    28.848811      37.929764    
     98930   197.86         303.02918      132177.92     -807632.32     -9627.664       0.36269982     0.056724558    28.872662      37.57851     
     98940   197.88         306.34116      134909.4      -807630.42     -9703.8273      0.36271581     0.05717078     28.884597      37.227256    
     98950   197.9          302.48855      132818.52     -807630.68     -9682.3685      0.36273165     0.057041862    28.866446      36.876004    
     98960   197.92         304.67898      134928.66     -807629.53     -9728.7967      0.36274735     0.057312905    28.880816      36.524752    
     98970   197.94         307.62619      133159.12     -807631.17     -9693.8468      0.36276291     0.057104564    28.813868      36.17351     
     98980   197.96         308.98955      135327.98     -807630.57     -9716.6994      0.36277832     0.057236752    28.845661      35.822264    
     98990   197.98         297.91559      134388.42     -807630.1      -9683.8105      0.36279359     0.057040617    28.874665      35.471016    
     99000   198            308.51747      133475.03     -807631.66     -9680.2813      0.36280872     0.057017451    28.857922      35.11977     
     99010   198.02         308.02151      132470.83     -807631.99     -302.10178      0.3628237      0.056938385    28.931312      34.768517    
     99020   198.04         306.61996      132849.02     -807631.8      -302.00309      0.36283855     0.056917457    28.919753      34.417266    
     99030   198.06         299.28113      134473.22     -807628.86     -303.91286      0.36285324     0.057275063    28.90566       34.066018    
     99040   198.08         297.3869       133924.73     -807628.48     -303.99242      0.3628678      0.057287759    28.913429      33.714771    
     99050   198.1          316.78613      134866.9      -807631.47     -303.53249      0.36288221     0.057198814    28.898396      33.363526    
     99060   198.12         300.83822      133448.62     -807629.51     -303.20863      0.36289648     0.057135538    28.867813      33.012285    
     99070   198.14         302.71863      135345.24     -807627.84     -304.87571      0.36291061     0.057447441    28.816553      32.661051    
     99080   198.16         313.95642      132317.54     -807632.71     -301.43052      0.36292459     0.056796077    28.877606      32.309812    
     99090   198.18         309.38745      135368.49     -807630.31     -302.7705       0.36293843     0.057046384    28.902637      31.95857     
     99100   198.2          306.79495      131774.7      -807630.65     -301.857        0.36295213     0.056872121    28.884376      31.607332    
     99110   198.22         315.8692       135830.49     -807629.04     -304.20909      0.36296568     0.057313131    28.925455      31.25609     
     99120   198.24         309.7635       133385.55     -807630.51     -301.58937      0.36297909     0.056817477    28.9286        30.904849    
     99130   198.26         309.29023      135992.38     -807627.21     -304.3455       0.36299236     0.057334617    28.944629      30.553608    
     99140   198.28         319.96674      133177.14     -807629.34     -303.41605      0.36300548     0.057157455    28.941323      30.202368    
     99150   198.3          313.12226      135154.36     -807626.91     -304.49605      0.36301846     0.057358854    28.920174      29.851131    
     99160   198.32         330.97812      132146.61     -807632.59     -301.09651      0.3630313      0.056716466    28.927992      29.499895    
     99170   198.34         323.78091      135120.08     -807629.71     -302.7664       0.36304399     0.057029023    28.933697      29.148659    
     99180   198.36         324.02849      133174.16     -807629.8      -302.67383      0.36305655     0.057009616    28.899084      28.797427    
     99190   198.38         316.23838      135427.22     -807627.85     -303.39428      0.36306895     0.057143362    28.916909      28.446196    
     99200   198.4          319.74359      133651.23     -807629.79     -301.98317      0.36308122     0.056875663    28.928062      28.094964    
     99210   198.42         309.13203      135415.81     -807626.54     -303.73264      0.36309334     0.057203249    28.936773      27.743732    
     99220   198.44         318.25471      135074.61     -807627.51     -304.09016      0.36310532     0.057268694    28.908998      27.392504    
     99230   198.46         318.82566      134544.24     -807628.36     -303.35087      0.36311715     0.057127603    28.906208      27.041277    
     99240   198.48         323.29667      134966.94     -807629.51     -302.81841      0.36312885     0.057025491    28.925946      26.69005     
     99250   198.5          318.11822      134319.09     -807629.17     -302.56816      0.3631404      0.056976554    28.916407      26.338825    
     99260   198.52         321.10155      135388.01     -807628.23     -304.02858      0.3631518      0.057249767    28.895294      25.987602    
     99270   198.54         330.56264      132561.79     -807632.02     -301.73473      0.36316306     0.056816065    28.919759      25.636379    
     99280   198.56         309.91516      135997.1      -807628.54     -302.41916      0.36317418     0.056943198    28.920659      25.285156    
     99290   198.58         302.44693      134153.22     -807627.44     -302.75655      0.36318516     0.057005003    28.919397      24.933935    
     99300   198.6          313.10205      136608.78     -807626.41     -305.40626      0.36319599     0.057502194    28.880367      24.582718    
     99310   198.62         316.00149      133019.75     -807629.35     -303.14086      0.36320668     0.05707398     28.870596      24.231503    
     99320   198.64         312.29291      136925.75     -807627.61     -304.42661      0.36321723     0.057314392    28.872459      23.880289    
     99330   198.66         304.90023      133611.19     -807628.77     -302.56769      0.36322763     0.056962782    28.809096      23.52908     
     99340   198.68         318.12964      136072.68     -807629.22     -304.01666      0.36323789     0.057233955    28.830716      23.177871    
     99350   198.7          331.31674      130636.57     -807634.64     -300.79083      0.36324801     0.056625085    28.842494      22.826662    
     99360   198.72         311.52787      134790.17     -807629.53     -303.22517      0.36325798     0.057081793    28.860488      22.475453    
     99370   198.74         312.41056      131979.57     -807631.62     -301.60717      0.36326781     0.05677567     28.879942      22.124243    
     99380   198.76         309.3447       136397.23     -807627.51     -305.36789      0.3632775      0.057482069    28.871143      21.773034    
     99390   198.78         317.28667      132887.51     -807631.12     -303.11806      0.36328704     0.057057064    28.901814      21.421824    
     99400   198.8          311.73456      136056.65     -807628.35     -305.20974      0.36329644     0.057449303    28.93779       21.070613    
     99410   198.82         304.50245      133324.74     -807629.07     -303.78575      0.3633057      0.057179811    28.914328      20.719405    
     99420   198.84         307.73195      135593.38     -807628.42     -304.8636       0.36331481     0.057381249    28.912559      20.368197    
     99430   198.86         307.84701      132526.44     -807631.76     -301.77126      0.36332378     0.056797806    28.942359      20.016989    
     99440   198.88         311.63693      133642.82     -807631.54     -302.55583      0.36333261     0.056944092    28.961479      19.665781    
     99450   198.9          302.06329      132808.29     -807629.85     -303.03519      0.36334129     0.057032948    28.941364      19.314575    
     99460   198.92         304.9025       134790.51     -807629.52     -303.80175      0.36334983     0.057175876    28.930219      18.963371    
     99470   198.94         301.20569      134886.81     -807628.76     -304.1398       0.36335823     0.057238174    28.91316       18.612169    
     99480   198.96         309.98455      134602.61     -807629.95     -304.23739      0.36336648     0.05725524     28.925718      18.260967    
     99490   198.98         309.2191       135281.23     -807629.09     -304.95435      0.3633746      0.057388885    28.916786      17.909767    
     99500   199            318.55959      133293.76     -807631.29     -304.13541      0.36338256     0.057233515    28.93313       17.558568    
     99510   199.02         304.10277      135067.56     -807629.77     -9716.7524      0.36339039     0.057140658    28.867406      17.207373    
     99520   199.04         309.26774      132786.78     -807632.59     -9652.0827      0.36339807     0.05675916     28.837934      16.856181    
     99530   199.06         313.17744      133831.53     -807632.04     -9686.436       0.3634056      0.056959993    28.830821      16.50499     
     99540   199.08         303.68852      132967.74     -807631.2      -9674.3457      0.363413       0.05688774     28.810696      16.153801    
     99550   199.1          312.08745      134518.72     -807630.23     -9739.8921      0.36342025     0.057272028    28.853927      15.802611    
     99560   199.12         298.73543      133253.8      -807629.33     -9712.416       0.36342736     0.057109348    28.864194      15.451421    
     99570   199.14         313.20344      136399.27     -807628.41     -9801.975       0.36343432     0.057634853    28.855695      15.100232    
     99580   199.16         300.01455      133268.68     -807628.13     -9755.736       0.36344114     0.057361895    28.8365        14.749045    
     99590   199.18         311.56481      136533.56     -807629.36     -9762.8638      0.36344782     0.05740275     28.870631      14.397858    
     99600   199.2          302.70019      132508.82     -807630.67     -9684.0049      0.36345435     0.05693806     28.840054      14.046673    
     99610   199.22         313.21067      134927.36     -807630.73     -9722.1951      0.36346074     0.057161598    28.827872      13.695489    
     99620   199.24         311.98023      131068.36     -807632.76     -9653.7892      0.36346699     0.05675843     28.814529      13.344307    
     99630   199.26         306.68783      134770.09     -807630.04     -9711.159       0.3634731      0.057094771    28.811032      12.993126    
     99640   199.28         310.00761      132039.04     -807631.48     -9680.0577      0.36347906     0.056910984    28.828023      12.641945    
     99650   199.3          306.279        136374.96     -807628        -9767.5265      0.36348487     0.057424311    28.806494      12.290766    
     99660   199.32         314.51559      132846.48     -807631.06     -9708.3617      0.36349055     0.057075584    28.803011      11.939587    
     99670   199.34         301.91662      137351        -807627.1      -9769.5076      0.36349608     0.057434188    28.817243      11.588409    
     99680   199.36         308.97763      132732.74     -807630.84     -9679.4533      0.36350147     0.056903923    28.849683      11.237231    
     99690   199.38         316.03293      135882.84     -807629.37     -9745.4779      0.36350671     0.057291243    28.86218       10.886053    
     99700   199.4          308.77122      131441.27     -807631.33     -9646.9554      0.36351181     0.056711259    28.862919      10.534876    
     99710   199.42         318.6053       134954.4      -807630.04     -9716.6467      0.36351677     0.057120171    28.818826      10.183701    
     99720   199.44         313.9113       133395.27     -807630.15     -9685.2666      0.36352158     0.056934947    28.829753      9.8325269    
     99730   199.46         318.7511       135725.7      -807627.98     -9762.1395      0.36352625     0.057386108    28.855009      9.4813527    
     99740   199.48         320.18043      134774.32     -807628.68     -9733.9051      0.36353078     0.057219421    28.873018      9.130179     
     99750   199.5          322.04754      135782.76     -807627.49     -9768.1535      0.36353516     0.057420054    28.883269      8.7790059    
     99760   199.52         316.56055      135039.41     -807627.52     -9731.4477      0.3635394      0.057203619    28.8439        8.4278349    
     99770   199.54         316.13108      134705.16     -807628.15     -9700.715       0.3635435      0.057022322    28.858777      8.0766644    
     99780   199.56         325.44753      134628.57     -807629.24     -9697.7407      0.36354745     0.057004219    28.8157        7.725496     
     99790   199.58         326.32378      133418.18     -807629.97     -9671.462       0.36355126     0.056849155    28.833399      7.3743279    
     99800   199.6          333.47447      134163.65     -807629.71     -9706.9086      0.36355493     0.057056935    28.868285      7.0231599    
     99810   199.62         323.57575      133605.51     -807628.8      -9690.8979      0.36355845     0.056962273    28.87954       6.6719926    
     99820   199.64         326.00728      136105.47     -807626.67     -9767.6255      0.36356183     0.057412737    28.839566      6.3208272    
     99830   199.66         317.88461      134620.96     -807626.83     -9729.4772      0.36356507     0.057187998    28.778135      5.9696638    
     99840   199.68         323.04758      137094.3      -807625.96     -9780.0577      0.36356816     0.057484811    28.816344      5.6185005    
     99850   199.7          320.28043      134478.57     -807627.91     -9709.5127      0.36357111     0.057069702    28.804912      5.2673382    
     99860   199.72         326.56319      135500.86     -807627.73     -9745.6038      0.36357392     0.057281392    28.846906      4.9161761    
     99870   199.74         327.39556      133471.92     -807630.44     -9666.9034      0.36357658     0.056818402    28.805348      4.5650154    
     99880   199.76         320.80432      133834.43     -807629.25     -9680.9952      0.3635791      0.056900834    28.846837      4.213855     
     99890   199.78         325.49698      132852.52     -807631.12     -9649.3894      0.36358148     0.056714697    28.876897      3.8626951    
     99900   199.8          323.15311      133963.99     -807628.84     -9716.9335      0.36358371     0.05711134     28.860751      3.5115363    
     99910   199.82         316.30273      133781.76     -807627.97     -9723.1452      0.3635858      0.057147521    28.837709      3.1603787    
     99920   199.84         314.15527      135059.27     -807627.15     -9745.5599      0.36358775     0.057278956    28.828651      2.8092221    
     99930   199.86         321.5567       135085.23     -807628.05     -9755.0341      0.36358955     0.057334356    28.826028      2.4580664    
     99940   199.88         316.92921      134990.84     -807627.56     -9758.1997      0.36359121     0.0573527      28.808095      2.1069116    
     99950   199.9          312.61365      135104.31     -807628.26     -9722.8871      0.36359273     0.057144916    28.814884      1.7557576    
     99960   199.92         320.98826      133390.45     -807631.27     -9670.0467      0.3635941      0.056834139    28.819129      1.4046044    
     99970   199.94         307.3923       133596.62     -807629.1      -9684.1572      0.36359533     0.056916879    28.874684      1.0534519    
     99980   199.96         320.72417      132851.47     -807630.8      -9695.0153      0.36359641     0.056980525    28.865778      0.7023003    
     99990   199.98         315.57221      134350.96     -807629.95     -9704.2852      0.36359736     0.057034859    28.860611      0.35114969   
    100000   200            311.71332      134454.93     -807628.98     -9723.106       0.36359816     0.057145349    28.8312        0            
Loop time of 3511.49 on 32 procs for 100000 steps with 1080 atoms

Performance: 4.921 ns/day, 4.877 hours/ns, 28.478 timesteps/s, 30.756 katom-step/s
62.5% CPU use with 32 MPI tasks x 1 OpenMP threads

MPI task timing breakdown:
Section |  min time  |  avg time  |  max time  |%varavg| %total
---------------------------------------------------------------
Pair    | 2546.6     | 2797.3     | 3000.2     | 211.4 | 79.66
Neigh   | 0.0016432  | 0.0017637  | 0.001966   |   0.2 |  0.00
Comm    | 431.03     | 634.4      | 885.77     | 443.9 | 18.07
Output  | 2.4617     | 2.522      | 2.5334     |   0.7 |  0.07
Modify  | 65.722     | 66.641     | 72.557     |  14.0 |  1.90
Other   |            | 10.6       |            |       |  0.30

Nlocal:          33.75 ave          43 max          26 min
Histogram: 2 3 4 1 10 5 2 3 0 2
Nghost:        1021.25 ave        1039 max        1006 min
Histogram: 1 3 3 9 3 4 3 3 0 3
Neighs:              0 ave           0 max           0 min
Histogram: 32 0 0 0 0 0 0 0 0 0
FullNghs:      5348.56 ave        6754 max        4084 min
Histogram: 2 3 2 3 9 4 4 3 0 2

Total # of neighbors = 171154
Ave neighs/atom = 158.47593
Neighbor list builds = 4
Dangerous builds = 0

Total wall time: 1:01:53
