
units		metal
atom_style	atomic

read_data ${STRUCTURE}.data
read_data BaTiO3-sc333.data
Reading data file ...
  orthogonal box = (0 0 0) to (11.898253 11.898253 12.912076)
  2 by 4 by 4 MPI processor grid
  reading atoms ...
  135 atoms
  read_data CPU = 0.005 seconds
replicate $L $L $L
replicate 2 $L $L
replicate 2 2 $L
replicate 2 2 2
Replication is creating a 2x2x2 = 8 times larger system...
  orthogonal box = (0 0 0) to (23.796507 23.796507 25.824152)
  2 by 4 by 4 MPI processor grid
  1080 atoms
  replicate CPU = 0.003 seconds

pair_style allegro
pair_coeff	* * ${MODEL}.pth Ba Ti O
pair_coeff	* * BaTiO3-E0.pth Ba Ti O
mass 1 137.3
mass 2 47.9
mass 3 15.9994

timestep 0.002
compute polarization all allegro polarization 3
compute allegro will evaluate the quantity polarization of length 3 (src/compute_allegro.cpp:53)
compute polarizability all allegro polarizability 9
compute allegro will evaluate the quantity polarizability of length 9 (src/compute_allegro.cpp:53)

thermo_style custom pe fmax fnorm spcpu cpuremain

variable efield equal 1e-2*36.36
fix born all addbornforce 0.0 0.0 ${efield}
fix born all addbornforce 0.0 0.0 0.3636

thermo 10
min_style fire
#minimize 0.0 1e-6 100 100
velocity all create ${TEMP} ${SEED} dist gaussian rot yes mom yes
velocity all create 290 ${SEED} dist gaussian rot yes mom yes
velocity all create 290 5144 dist gaussian rot yes mom yes
fix nvt all nvt temp ${TEMP} ${TEMP} $(100*dt)
fix nvt all nvt temp 290 ${TEMP} $(100*dt)
fix nvt all nvt temp 290 290 $(100*dt)
fix nvt all nvt temp 290 290 0.2000000000000000111
run 5000
Neighbor list info ...
  update: every = 1 steps, delay = 0 steps, check = yes
  max neighbors/atom: 2000, page size: 100000
  master list distance cutoff = 8
  ghost atom cutoff = 8
  binsize = 8, bins = 3 3 4
  1 neighbor lists, perpetual/occasional/extra = 1 0 0
  (1) pair allegro/kk, perpetual
      attributes: full, newton on, kokkos_device
      pair build: full/bin/kk/device
      stencil: full/bin/3d
      bin: kk/device
Per MPI rank memory allocation (min/avg/max) = 3.516 | 3.516 | 3.516 Mbytes
    PotEng          Fmax          Fnorm          S/CPU         CPULeft    
-807708.29      1.5954015      37.042876      0              0            
-807646.35      3.921592       45.304132      2.4993649      1996.5082    
-807635.71      2.4172602      35.07181       25.904124      1092.3772    
-807604.89      3.2499695      37.318711      25.933025      790.67166    
-807602.58      3.9136033      50.744571      25.85078       639.77817    
-807569.72      3.4756739      40.346597      25.845395      549.09535    
-807606.77      2.7284654      37.792234      25.93769       488.39779    
-807649.1       3.5337251      34.498868      25.923499      444.9471     
-807686.46      2.4679609      33.943834      25.852063      412.32821    
-807668.86      3.5092479      34.173464      25.886922      386.84357    
-807654.52      4.4505666      33.751979      25.905057      366.36536    
-807660.27      2.6968086      26.328036      25.922424      349.52878    
-807627.7       3.9026842      30.691723      25.925761      335.43197    
-807585.37      3.404459       39.482809      25.920917      323.44727    
-807572.11      3.8343842      37.075191      25.929991      313.11487    
-807637.43      3.7119391      31.070565      25.920696      304.11319    
-807657.95      3.5445246      30.498339      25.927535      296.18538    
-807667.95      2.7975468      33.01446       25.924568      289.14615    
-807649.86      4.34191        43.584123      25.900463      282.85582    
-807681.78      2.807776       35.408379      25.884282      277.19309    
-807641.97      3.5192547      38.152631      25.855951      272.06816    
-807615.59      2.865755       38.622743      25.926394      267.37051    
-807561.42      4.1314636      45.235262      25.93023       263.06363    
-807609.52      4.1004515      48.204045      25.885016      259.11167    
-807618.63      4.5687068      38.454998      25.889533      255.45554    
-807646.98      3.0940391      34.39022       25.924286      252.05115    
-807645.6       4.2570334      44.814632      25.934687      248.87614    
-807684.63      3.1688046      37.217564      25.880511      245.9219     
-807663.73      4.6838549      34.493495      25.849192      243.15897    
-807638.1       3.2575396      31.460127      25.907414      240.54578    
-807606.15      3.8739626      33.571044      25.922704      238.07751    
-807606.42      3.4471671      42.000504      25.907118      235.7471     
-807601.9       2.9907331      34.294181      25.824459      233.55629    
-807614.18      2.9335574      31.892352      25.907259      231.45727    
-807647.7       2.8845845      28.809092      25.926967      229.455      
-807676.39      2.2863044      31.562181      25.893091      227.5518     
-807678.44      2.5275275      31.091799      25.841681      225.74279    
-807645.92      4.0156733      36.376093      25.885765      224.0024     
-807649.13      2.469916       28.922324      25.905478      222.3297     
-807621.43      3.3433499      33.007937      25.915066      220.72129    
-807603.19      3.5726223      41.410895      25.832491      219.1882     
-807575.42      4.0022673      39.444533      25.898079      217.70003    
-807632.39      2.8169094      32.572049      25.91403       216.26175    
-807654.96      4.0089319      34.466751      25.874393      214.8787     
-807675.06      2.9244471      34.015725      25.875707      213.54075    
-807645.62      5.6805437      45.08266       25.893152      212.24245    
-807669.01      3.0840262      33.734741      25.890675      210.98417    
-807645.16      3.7792901      35.181399      25.873664      209.76545    
-807621.84      3.5614766      37.470489      25.870859      208.5818     
-807567.46      4.0413149      41.967951      25.924709      207.4233     
-807608.08      3.8205694      41.532807      25.899536      206.29908    
-807631.32      2.9321801      33.445481      25.858389      205.20921    
-807658.15      2.6646143      31.83197       25.88547       204.1429     
-807646.29      3.6979655      40.610089      25.919589      203.09797    
-807676.61      2.3772692      33.449924      25.899362      202.07993    
-807666.27      2.6283757      32.694762      25.810693      201.09561    
-807642.42      3.1101597      30.11667       25.863414      200.12634    
-807599.02      3.1403059      34.792473      25.894758      199.17387    
-807600.6       3.8779374      38.482317      25.903308      198.23997    
-807610.39      3.6763417      37.115988      25.820528      197.33388    
-807625.11      4.342485       31.949073      25.855904      196.4412     
-807642.33      2.9021772      31.937866      25.918946      195.55834    
-807669.33      2.8931621      32.3298        25.888264      194.69475    
-807677.97      2.8921621      33.397607      25.804944      193.85496    
-807647.81      4.5761533      36.030741      25.843598      193.02535    
-807634.1       2.7757119      32.110612      25.910916      192.20264    
-807615.16      3.9812113      34.098971      25.909626      191.39328    
-807606.41      3.9023974      42.988788      25.825786      190.60467    
-807585.17      3.7072701      39.210314      25.89252       189.82152    
-807623.08      2.7192358      34.605622      25.895995      189.04955    
-807652.07      3.2077935      35.550176      25.876998      188.29034    
-807675.89      2.6015605      35.809143      25.822801      187.54654    
-807650.01      4.2946129      41.749498      25.840935      186.81102    
-807653.51      3.3363662      34.647522      25.863648      186.08307    
-807642.48      3.472962       33.787681      25.920687      185.35945    
-807622.96      3.4442595      38.399331      25.899105      184.64665    
-807577.45      5.0249662      39.163747      25.887843      183.94339    
-807598.18      4.3604568      38.147973      25.74202       183.26038    
-807635.54      3.5500679      30.992528      26.020754      182.56241    
-807663.03      2.538977       31.531609      26.021095      181.87236    
-807651.68      4.5188178      36.965377      26.008475      181.19092    
-807661.5       3.5429362      34.532565      25.991011      180.51816    
-807664.7       2.9657239      32.16875       26.006968      179.85122    
-807644.32      3.59748        31.660539      26.034007      179.18907    
-807598.85      3.068784       36.355666      25.99674       178.53628    
-807589.36      3.3841587      38.956046      26.096151      177.88263    
-807613.16      3.9288656      37.989727      26.026582      177.24021    
-807635.85      3.0889508      31.551721      25.984497      176.60668    
-807643.38      3.5257353      33.611281      26.0107        175.97698    
-807658.62      3.2664848      34.85203       26.036468      175.35104    
-807674.76      2.8236012      33.949791      25.937304      174.73717    
-807654.01      3.7836189      33.460029      25.999039      174.12419    
-807628.03      3.2039617      32.139254      26.029439      173.51419    
-807604.76      4.3800086      34.871806      26.028839      172.90908    
-807607.67      4.7294434      41.867903      25.997967      172.31065    
-807602.16      4.154214       36.145912      26.009457      171.71599    
-807623.94      2.9792454      33.312764      26.08171       171.12123    
-807647.52      4.049092       35.19593       26.065889      170.53179    
-807674.76      2.7497328      34.771671      26.016651      169.94953    
-807657.86      4.2655983      36.686081      25.980527      169.37343    
-807646.05      2.8962614      33.895237      26.028427      168.79832    
-807633.4       4.3497469      32.96191       26.028957      168.22697    
-807622.73      3.5096996      37.398669      26.039816      167.65866    
-807591.84      3.7635223      37.105342      26.007454      167.09576    
-807598.53      3.0450472      35.884494      26.028526      166.53511    
-807633.18      3.8835173      32.193259      26.035148      165.97746    
-807665.04      2.6329118      31.795539      26.053875      165.42206    
-807659.16      4.6908016      35.138835      26.023559      164.8715     
-807653.48      3.1147254      35.182563      26.057198      164.32222    
-807657.18      3.0923919      31.662563      26.027093      163.77758    
-807641.6       2.7327501      31.589918      25.983375      163.23814    
-807607.53      2.6475025      34.862613      25.996976      162.70078    
-807585.32      2.8921592      37.55461       26.005088      162.16573    
-807616.73      3.0900869      35.053216      25.969727      161.63514    
-807642.86      3.24646        31.702357      25.982097      161.10648    
-807651.61      2.8767965      32.167333      26.028574      160.57802    
-807651.93      3.9990819      36.7043        26.020452      160.05245    
-807670.41      3.4097075      32.84234       26.022377      159.52919    
-807652.85      4.4087886      33.383654      26.019445      159.00844    
-807629.02      3.0531574      32.108069      25.977393      158.49196    
-807595.21      4.4295551      36.320037      26.083049      157.97274    
-807607.66      3.6251937      39.764135      26.024652      157.45847    
-807614.45      4.1478146      34.490062      25.956813      156.94943    
-807634.49      2.9560132      32.243581      26.038874      156.43868    
-807643.22      4.3728577      36.129973      26.049955      155.92949    
-807670.04      2.6187172      33.916864      26.044823      155.42253    
-807661.57      3.7202593      34.094999      25.961133      154.92119    
-807643.84      3.6788351      33.029397      25.998524      154.42005    
-807621.18      4.0561977      33.87491       25.98388       153.92137    
-807616.32      3.7975892      37.289248      25.942107      153.42623    
-807600.23      3.6923149      37.810819      25.961322      152.93197    
-807607.28      3.0896691      35.615869      25.986327      152.43832    
-807631.96      3.8531742      33.003039      26.017317      151.94505    
-807662.33      3.2350222      32.130153      26.032388      151.45281    
-807663.84      3.0094383      33.359034      25.960135      150.96509    
-807650.96      3.2911857      34.411636      25.919138      150.48055    
-807645.78      3.5916447      31.781165      25.970391      149.99541    
-807635.64      3.2082993      31.792513      25.997349      149.51068    
-807610.34      3.3303713      36.097         25.934433      149.02985    
-807588.04      3.2778549      37.156442      25.973034      148.5489     
-807615.2       3.2836357      33.42435       26.056198      148.06616    
-807644.38      3.0075153      32.292041      26.038036      147.58551    
-807659.55      2.9284806      32.434565      26.027921      147.10659    
-807649.61      4.1343572      37.180075      26.06493       146.62764    
-807658.05      3.0044086      33.650514      26.003567      146.15224    
-807651.27      3.24122        32.554131      25.913804      145.68137    
-807629.72      3.3093835      33.13312       25.943823      145.21057    
-807590.18      3.5550471      37.489761      26.024633      144.73806    
-807602.39      4.0450832      38.308565      26.049542      144.26587    
-807621.25      3.25462        34.163474      26.040806      143.79517    
-807644.05      3.1951059      32.075459      26.089969      143.32393    
-807642.76      3.8152889      36.574165      26.01087       142.85655    
-807663.04      3.9966085      34.235621      26.073783      142.38815    
-807660.87      3.139171       33.913362      25.981112      141.92395    
-807645.89      3.0075731      31.299177      25.982583      141.46073    
-807613.43      3.8062107      34.895983      25.983719      140.99849    
-807608.54      3.6744375      36.598749      25.94198       140.53861    
-807606.56      3.0709393      37.167108      25.980136      140.07843    
-807619.58      3.009926       32.962943      26.066278      139.61646    
-807633.44      3.0401097      32.007549      26.044425      139.15616    
-807658.27      2.5029274      31.881702      26.032397      138.69719    
-807666.18      2.5997336      32.616125      26.01657       138.23964    
-807651.93      4.0740387      33.913597      25.938211      137.78543    
-807636.91      3.8738672      32.321267      25.990959      137.33043    
-807625.36      3.171379       32.96379       26.03111       136.87508    
-807611.28      3.7280714      38.216913      25.984535      136.42198    
-807597.75      3.4349128      36.922686      26.003492      135.96915    
-807617.07      3.5488252      34.281097      26.088429      135.51463    
-807643.86      3.7174003      32.432748      26.069391      135.06152    
-807665.11      2.5982539      32.175274      26.002609      134.61116    
-807653.27      3.2807513      34.870689      26.011489      134.16132    
-807652.34      3.3879002      32.047879      26.031205      133.71168    
-807643.99      2.7137399      30.976729      26.051386      133.26224    
-807629.72      2.5896334      32.623143      25.98569       132.81539    
-807596.79      3.1368853      35.96498       25.999856      132.36886    
-807602.72      3.0940949      36.118346      25.998241      131.92308    
-807628         3.6356256      32.141598      26.0101        131.47767    
-807650.61      3.2954701      32.215475      25.992493      131.03343    
-807649.96      3.1786803      34.899712      25.976394      130.59029    
-807655.49      3.9501409      34.446265      26.066715      130.1454     
-807656.8       3.1051742      32.763678      26.042937      129.70182    
-807643.89      3.450262       31.799858      25.999015      129.26004    
-807613.36      3.4708751      33.549195      26.056814      128.8174     
-807601.55      2.8082498      35.679529      26.061339      128.37528    
-807611.85      3.5679788      35.716243      26.017606      127.93491    
-807630.33      2.6765375      32.443855      26.031815      127.49479    
-807638.19      3.1511827      32.931547      26.058602      127.0546     
-807652.44      3.4212773      33.473244      26.006184      126.61631    
-807663.48      3.0071275      33.077145      25.943193      126.18014    
-807652.25      2.8380434      32.261062      25.899775      125.74557    
-807632.17      3.6664223      32.152568      25.983823      125.30948    
-807615.22      2.6955306      33.171215      25.999672      124.87354    
-807610.83      3.5510834      36.394884      25.948694      124.43934    
-807609.91      3.1511209      34.790486      25.977939      124.00497    
-807620.4       2.6453796      33.450662      25.999469      123.5706     
-807644.42      3.1993996      31.649092      26.04425       123.1357     
-807660.38      2.9857151      33.561135      25.999421      122.70235    
-807655.18      2.8112766      33.707964      25.987558      122.26977    
-807643.77      3.4700359      33.973079      26.020542      121.83693    
-807632.27      3.2462049      33.065965      26.033827      121.40427    
-807623.74      2.884963       34.61735       25.99237       120.97303    
-807603.55      3.0315646      36.411787      25.988454      120.54233    
-807606.48      3.8272618      35.324427      26.03378       120.11109    
-807628.33      2.812834       32.306463      26.020187      119.68062    
-807651.88      3.4333104      32.703186      25.998699      119.25106    
-807653.42      4.3835547      33.881092      26.020603      118.82147    
-807648.63      3.5169693      33.944555      26.039513      118.39192    
-807647.4       2.8428319      32.196718      25.985129      117.96395    
-807638.92      3.1806254      32.428541      25.981899      117.53646    
-807612.62      3.4434164      34.26485       26.004611      117.10891    
-807599.49      3.4425764      36.023362      26.020594      116.68144    
-807614.23      3.3891186      35.253186      26.033282      116.25413    
-807637.66      3.2791516      32.769554      26.047419      115.82694    
-807645.95      3.7349019      33.215476      26.062928      115.39985    
-807648.88      3.3664611      35.097977      26.060257      114.97322    
-807656.79      3.6257176      33.215811      26.018475      114.5478     
-807650.57      2.9259591      32.092852      25.975036      114.12361    
-807630.17      2.8899064      32.316046      26.021662      113.69888    
-807606.73      3.6410909      35.332061      26.018631      113.27458    
-807609.06      3.2668968      36.549414      25.985124      112.85128    
-807618.78      2.8376665      34.408015      25.943362      112.42912    
-807631.66      4.2583822      33.148543      26.006051      112.00611    
-807641.73      3.2105723      34.324917      26.107643      111.58158    
-807658.9       3.5962935      33.974267      26.02135       111.159      
-807654.97      3.1711408      34.497003      25.980919      110.7375     
-807642.76      3.3281066      33.126384      26.00744       110.31585    
-807623.53      3.452037       33.375472      25.964838      109.89529    
-807617.11      2.8925516      35.060859      25.921827      109.47581    
-807609.2       3.4035339      36.226446      25.943804      109.05623    
-807615.33      3.1435058      34.335921      25.977831      108.63636    
-807631.24      2.9002279      33.048093      25.997467      108.21644    
-807654.29      3.0598251      32.113179      26.020721      107.79644    
-807657.56      2.6930251      33.687256      26.023157      107.3767     
-807649.58      3.6500106      33.373726      25.922587      106.95897    
-807640.32      3.2942091      32.950633      25.960983      106.54086    
-807632.07      3.0409568      32.832781      25.987648      106.12259    
-807613.64      3.2795279      34.682193      26.029988      105.70391    
-807604.65      3.1632612      35.543764      26.037041      105.2854     
-807617.3       3.1534954      33.59481       26.0885        104.86634    
-807642.05      2.7941572      31.437278      26.058109      104.44808    
-807652.31      2.8280385      32.701066      25.959124      104.03168    
-807650.93      3.5420144      33.361482      25.986572      103.61511    
-807649.23      2.5542122      32.993524      26.030723      103.1981     
-807645.96      2.8949203      31.616301      25.921438      102.78308    
-807628.39      3.0110834      32.874716      25.99626       102.36713    
-807603.77      3.3504791      35.046209      26.030013      101.95092    
-807610.06      2.6936244      34.785372      26.019682      101.53513    
-807625.39      3.2759458      33.301722      25.957035      101.12054    
-807641.02      2.6614114      32.161831      25.953351      100.70624    
-807644.65      3.8448053      33.875913      26.015186      100.29125    
-807655.36      3.1717439      32.984617      25.985286      99.876952    
-807654.22      2.7962238      31.989637      25.917938      99.463878    
-807642.02      2.9402906      31.557813      25.937239      99.050738    
-807618.4       2.8309008      32.499901      26.019176      98.636631    
-807611.14      3.1574918      34.938525      26.028641      98.222624    
-807613.29      3.1818438      34.894485      25.977582      97.809575    
-807624.94      3.2607293      32.688939      25.996019      97.396485    
-807633.6       4.1999325      33.348348      25.990606      96.983693    
-807651.37      3.0949097      32.90369       25.968192      96.571429    
-807657.95      3.0135024      33.162349      25.960532      96.159482    
-807648.5       3.2212622      32.566187      25.964599      95.747684    
-807632.1       3.3275978      33.38183       25.983225      95.335837    
-807621.45      2.9793267      33.905304      26.038259      94.923458    
-807613.72      3.1126904      35.967335      26.003785      94.511753    
-807607.99      3.3517581      35.671744      26.044175      94.09972     
-807621.05      3.2699097      33.789678      26.048989      93.687836    
-807641.29      3.1939468      32.617988      26.066279      93.275939    
-807656.09      2.4212411      32.776342      26.020344      92.864845    
-807649.55      3.2408844      33.346465      25.956706      92.454766    
-807645.09      2.4803166      32.299247      25.970128      92.0447      
-807636.58      3.1134164      31.391697      26.012048      91.634291    
-807624.83      2.8804107      33.569878      25.962904      91.224689    
-807604.43      2.8608837      34.944764      26.00098       90.814794    
-807609.97      3.0055225      34.725335      26.035574      90.404659    
-807629.03      3.0824174      32.785178      25.974858      89.995454    
-807646.47      3.7073349      33.012957      25.932344      89.586942    
-807647.83      3.7336089      34.05753       25.942982      89.178468    
-807649.99      3.2717041      33.851236      25.974877      88.769779    
-807648.6       2.7506524      32.90583       25.959656      88.36144     
-807636.64      2.7590949      32.311085      25.963846      87.953219    
-807615.74      3.2045823      33.005354      25.995679      87.544791    
-807606.94      3.1171312      34.701738      26.049624      87.135912    
-807616.71      2.9881419      34.474656      26.005013      86.727719    
-807632.16      3.1669797      32.767548      25.986983      86.319897    
-807641.81      3.0290303      32.265284      25.995802      85.912139    
-807651         3.036346       32.646679      25.995462      85.504546    
-807655.59      2.7740423      32.500365      25.988139      85.097195    
-807648.31      2.5725763      31.235714      25.947462      84.690448    
-807630.09      2.563561       31.940673      26.005169      84.28322     
-807616.14      3.0967942      32.403128      25.99407       83.876269    
-807613.19      3.2554991      34.421023      26.024804      83.469143    
-807618.26      3.6054729      33.824747      25.946771      83.063003    
-807629.63      2.5171061      31.835085      25.962768      82.656837    
-807643.35      3.3275641      31.883956      25.956357      82.250881    
-807656.67      2.7058905      31.530632      25.97934       81.844827    
-807652.18      3.8563774      32.792942      25.970948      81.439003    
-807643.52      3.9209871      32.245388      26.00396       81.032982    
-807628.9       3.3326971      32.332623      26.05801       80.626561    
-807620.42      2.7857175      33.618933      26.010833      80.220764    
-807609.82      3.0228616      34.858897      25.934585      79.815869    
-807616.4       2.5712687      33.206008      26.024534      79.410214    
-807630.74      3.3114188      32.32134       26.005745      79.004886    
-807650.19      3.9446796      31.886641      25.998067      78.599769    
-807653.8       3.1967424      32.735843      26.03122       78.194469    
-807649.97      2.9356875      32.78905       25.99709       77.789633    
-807642.07      3.3897372      32.286088      26.003252      77.384871    
-807633.11      2.7905663      31.796987      25.942907      76.980809    
-807616.39      2.6998179      34.239262      25.973115      76.576585    
-807606.86      3.1331007      34.832141      25.989776      76.172333    
-807618.31      2.7760523      33.925563      26.000503      75.768108    
-807636.55      3.5392272      32.110238      25.983192      75.364167    
-807648.88      2.9690463      32.105338      26.001656      74.960184    
-807649.62      3.224576       33.805224      25.978845      74.556527    
-807650.85      2.8328701      32.478316      25.987837      74.152911    
-807643.79      2.8009191      31.557281      25.996113      73.749342    
-807629.48      2.9300754      31.796858      25.989795      73.345948    
-807609.59      2.5064955      33.95349       26.018935      72.942421    
-807610.73      2.882886       35.587884      26.039585      72.538839    
-807623.08      3.5410292      32.808673      25.959807      72.136055    
-807636.7       2.6496641      32.472429      25.97311       71.73327     
-807643.68      4.1418548      33.967257      26.020718      71.330199    
-807652.77      2.8340462      33.32286       26.0313        70.927159    
-807650.08      3.4722535      33.535175      25.99599       70.524524    
-807640.43      3.1998346      32.045129      25.981716      70.122116    
-807621.28      3.3115224      32.90026       25.988417      69.719762    
-807615.17      2.6468912      34.731164      26.007049      69.317368    
-807614.18      3.488049       34.36063       25.991286      68.915208    
-807623.52      2.6808491      32.470736      26.017238      68.512952    
-807633.1       2.9927089      32.011298      26.035996      68.110659    
-807649.95      2.5489494      31.86308       26.014628      67.708642    
-807653.42      3.4987834      32.204724      25.969558      67.307074    
-807645.76      2.8483212      32.562288      25.946         66.905785    
-807636.08      2.8455148      31.770605      25.967853      66.504428    
-807625.48      2.7112259      31.693842      25.949616      66.103303    
-807615.68      2.7679423      34.247439      25.966746      65.702147    
-807611.62      3.3917823      34.049582      25.977841      65.301006    
-807623.24      2.6904924      32.172855      25.973864      64.89999     
-807638.69      2.9956673      32.513729      25.988479      64.498964    
-807651.41      3.5678929      32.076782      25.973892      64.098137    
-807648.39      2.9650025      32.25227       25.949936      63.697573    
-807645.46      4.4440628      32.474022      25.948534      63.297109    
-807637.45      2.796178       31.475026      25.9373        62.89681     
-807626.38      3.8456386      32.561296      25.996368      62.496193    
-807608.12      2.9454925      34.612781      26.014449      62.095547    
-807615.38      3.4680206      33.723186      25.988356      61.69517     
-807627.91      2.8720088      32.307951      26.025882      61.294634    
-807642.9       2.4551536      32.19798       26.012818      60.894279    
-807646.84      3.7880376      32.773785      26.006723      60.494055    
-807651.44      2.9638776      31.977404      26.028262      60.093782    
-807647.58      3.1037729      31.377063      25.990833      59.69384     
-807636.77      3.1771487      31.64754       26.002472      59.293912    
-807620.35      3.1793044      32.297935      26.019049      58.893968    
-807613.28      3.2070039      33.735114      26.030851      58.494038    
-807618.98      3.2475453      32.945029      25.988701      58.094457    
-807631.89      3.0218079      31.532338      25.98349       57.694992    
-807639.17      3.1173339      32.391375      26.000485      57.295507    
-807649.33      2.7364291      31.795774      26.032759      56.895912    
-807651.94      4.3160855      32.400646      25.98831       56.496667    
-807644.44      3.3203676      31.649931      25.962745      56.097652    
-807631.75      3.2010737      32.041907      25.990697      55.698553    
-807620.46      3.2296492      33.146099      26.002048      55.299468    
-807616.1       2.7223431      34.527554      26.007777      54.90043     
-807619.8       2.8125989      33.209656      26.034117      54.501325    
-807629.88      2.6613075      31.439702      26.026758      54.102343    
-807641.7       3.2581515      31.821544      26.035315      53.703395    
-807650.78      2.9085711      32.460656      25.98813       53.304786    
-807648.97      2.8736013      32.941275      25.984683      52.906272    
-807639.69      4.7552839      33.200725      26.002596      52.507739    
-807630.55      3.1817569      32.280709      25.983683      52.109376    
-807622.96      3.8910756      33.248483      25.994995      51.71103     
-807614.14      2.9089455      33.729264      26.005732      51.312702    
-807618.47      2.7987066      33.261699      26.021702      50.914366    
-807631.47      2.8494479      32.413309      26.013117      50.51615     
-807646.4       2.5326004      31.442928      25.997091      50.118088    
-807647.06      2.9512011      32.556406      25.986758      49.720149    
-807645.09      3.7865238      32.702474      25.96646       49.32238     
-807640.14      2.5957259      31.838566      25.949518      48.924762    
-807632.92      3.2198895      31.801058      26.005722      48.526937    
-807617.46      2.929312       33.451816      25.994571      48.129236    
-807611.66      2.8967633      34.899246      25.996869      47.731592    
-807621.8       2.9348171      32.901666      25.985664      47.33407     
-807634.69      2.4347257      32.367111      25.991961      46.936584    
-807642.95      3.3360198      32.290555      26.017862      46.539048    
-807645.48      3.2475077      33.157416      25.990013      46.141705    
-807646.22      3.1996098      32.909865      25.973785      45.744501    
-807641.44      2.5922729      32.470067      25.95825       45.347429    
-807628.59      3.1514471      32.783578      26.017016      44.950162    
-807615.55      2.7747899      34.550846      26.00996       44.552992    
-807616.62      3.1368021      34.045802      25.988843      44.155977    
-807624.54      2.7126452      32.584898      25.990607      43.759018    
-807632.29      2.4177598      32.670053      25.949457      43.362293    
-807641.07      2.6976358      32.361684      25.933233      42.965694    
-807647.89      2.7125426      32.891453      25.957483      42.569051    
-807646.15      2.6688763      32.524251      25.98489       42.172356    
-807639.01      3.308173       31.645745      25.964021      41.775804    
-807626.87      2.5821618      32.837155      26.013915      41.379114    
-807619.02      3.0676974      34.048091      25.938556      40.982779    
-807618.44      2.830669       34.198433      25.996657      40.586275    
-807624.33      2.9933356      32.996846      25.997091      40.189829    
-807632.79      2.7754206      32.559338      25.93592       39.793671    
-807643.75      3.6177506      33.119121      25.936916      39.397563    
-807647.92      3.2168681      32.8758        25.959812      39.001424    
-807643.82      4.1874835      33.200606      25.971127      38.605298    
-807634.95      3.2378205      32.76959       25.978243      38.209201    
-807628.39      2.9533089      33.200096      25.973794      37.813176    
-807618.93      2.9026175      33.65367       25.988107      37.417155    
-807618.03      3.0616549      33.967027      26.01625       37.021093    
-807623.69      3.190379       33.294971      26.021763      36.62507     
-807638.03      2.6982839      31.91842       25.989064      36.229213    
-807644.24      3.4702729      32.673087      25.934078      35.833592    
-807646.03      3.7548382      32.652693      25.960405      35.437935    
-807641.63      3.3495105      33.367992      25.992405      35.042225    
-807637.54      2.9022892      31.885201      25.94799       34.646709    
-807626.18      2.2609675      33.084192      25.991376      34.251107    
-807618.18      3.092289       33.728241      25.995463      33.855545    
-807618.96      3.3193467      33.503445      26.013102      33.459982    
-807629.69      3.2013408      32.544635      26.043872      33.064381    
-807640.09      2.7634788      31.783549      25.999003      32.668967    
-807642.25      3.0223104      33.202626      25.980675      32.273658    
-807646.17      3.2364745      33.010078      25.989093      31.878375    
-807642.72      3.1424488      33.123677      25.974034      31.483184    
-807634.81      2.8758383      32.809733      25.982075      31.08802     
-807622.37      2.755995       33.351354      25.956622      30.692973    
-807618.3       3.0430667      34.404144      25.993594      30.297874    
-807622.43      3.8348577      34.039476      25.992098      29.902827    
-807631.47      2.6472045      32.378695      25.998975      29.507811    
-807638.92      2.9490601      32.12579       26.002417      29.112835    
-807644.89      3.083502       33.377499      25.984763      28.717952    
-807647.15      2.6282368      32.238127      25.982584      28.323122    
-807642.91      2.7981627      32.452434      25.997218      27.928302    
-807629.89      2.9474464      33.256442      25.999442      27.533524    
-807624.71      2.545188       33.169917      25.959078      27.138889    
-807618.92      3.0345413      34.108058      25.950652      26.744317    
-807624.42      2.8148038      33.439001      25.943904      26.349803    
-807629.5       3.3603966      32.560444      25.973059      25.955265    
-807640.02      4.034657       32.835645      25.96589       25.560787    
-807644.82      3.2622373      32.837605      25.944294      25.166399    
-807645.86      3.1581863      32.695085      26.009667      24.771912    
-807637.03      3.6450863      32.542519      26.014761      24.377461    
-807632.59      3.454307       32.577846      25.950652      23.983187    
-807623.58      2.4981132      32.831951      25.939035      23.588977    
-807620.68      3.0651731      33.009446      25.95537       23.194774    
-807623.02      2.5990531      32.36594       25.998885      22.800527    
-807633.13      2.5310843      31.978751      26.017413      22.406288    
-807639.56      2.7961488      33.388151      26.005959      22.012115    
-807643.29      2.8346181      32.773374      25.942014      21.618102    
-807642.85      3.9985976      32.882697      25.931584      21.224147    
-807638.75      3.2760912      32.652481      25.918422      20.830252    
-807631.38      2.7538328      33.14285       25.958636      20.436323    
-807620.53      3.1869424      34.167692      25.964515      20.042424    
-807617.88      3.0242262      35.134731      25.96058       19.648569    
-807623.06      2.7147427      34.15105       25.944948      19.254779    
-807635.33      3.2496203      33.330718      25.953446      18.861012    
-807636.78      3.3641392      34.133565      25.951174      18.467286    
-807642.94      3.4933834      33.867989      25.922941      18.073639    
-807642.91      3.3607295      33.704715      25.916245      17.680037    
-807637.89      2.9354886      33.095914      25.927935      17.286452    
-807626.2       4.208272       33.808877      25.963239      16.892852    
-807621.1       2.5920472      33.571894      25.99678       16.499244    
-807621.23      3.5283579      32.767774      25.994052      16.105678    
-807625.24      2.7594216      33.869826      25.968499      15.712183    
-807631.8       2.6612835      33.180233      25.953441      15.318744    
-807639.73      3.9588189      33.569932      25.99215       14.925293    
-807644.01      3.1334564      33.46204       26.006799      14.531863    
-807642.56      3.2207496      33.673377      25.971617      14.138511    
-807634.8       2.987461       33.34028       25.929419      13.745242    
-807627.11      2.96349        33.042096      25.919571      13.352017    
-807620.91      2.831661       33.604251      25.926358      12.958816    
-807620.04      3.0731177      34.253022      25.916386      12.565657    
-807625.09      2.6427839      33.323217      25.971594      12.172476    
-807633.32      3.4726087      32.664257      25.995099      11.779306    
-807642.58      3.4843487      32.636205      25.985536      11.386181    
-807644.22      3.0891179      32.403433      25.943086      10.993129    
-807640.89      2.869895       33.37012       25.966775      10.600089    
-807634.28      3.4472468      32.794529      25.964308      10.207084    
-807628.97      2.8171411      33.295363      25.991456      9.8140915    
-807620.25      2.9425236      33.578984      25.993674      9.4211318    
-807623.36      2.682202       33.16221       25.993608      9.0282067    
-807626.51      2.8740514      32.640625      26.002827      8.6353098    
-807637.11      2.6987306      32.015203      25.96945       8.2424693    
-807641.62      2.5431026      32.332323      25.936718      7.8496813    
-807643.86      2.6444912      31.799071      25.943843      7.4569193    
-807640.06      4.6008977      33.039693      25.932011      7.0641943    
-807635.57      3.3935251      32.099747      25.928954      6.6715002    
-807626.7       3.2406463      32.639409      25.948098      6.2788257    
-807622.77      2.9030243      33.28468       25.944586      5.8861829    
-807622.66      3.2548379      33.683577      25.993528      5.4935489    
-807631.02      3.141181       32.369082      26.015764      5.1009386    
-807636.23      2.709806       32.919246      25.965151      4.7083805    
-807642.06      3.2454308      32.28961       25.960768      4.3158542    
-807642.59      2.6409779      32.804861      25.92303       3.9233693    
-807639.97      3.2101836      32.775887      25.951658      3.5309039    
-807632.98      3.6030189      33.060715      25.970416      3.1384631    
-807626.38      2.7469662      33.095186      26.014884      2.7460428    
-807622.37      2.932308       34.117523      25.977291      2.3536619    
-807623.95      3.382332       33.307383      25.976914      1.9613109    
-807631.44      2.5341964      32.25508       26.0038        1.5689866    
-807638.12      2.6379547      32.318812      25.981618      1.1766956    
-807642.09      2.5111623      32.555892      25.93118       0.78443721   
-807642.44      2.4208997      32.042743      25.937536      0.39220523   
-807638.93      2.8071668      32.205322      25.973398      0            
Loop time of 196.096 on 32 procs for 5000 steps with 1080 atoms

Performance: 4.406 ns/day, 5.447 hours/ns, 25.498 timesteps/s, 27.538 katom-step/s
66.8% CPU use with 32 MPI tasks x 1 OpenMP threads

MPI task timing breakdown:
Section |  min time  |  avg time  |  max time  |%varavg| %total
---------------------------------------------------------------
Pair    | 101.89     | 144.96     | 192.03     | 310.1 | 73.92
Neigh   | 0          | 0          | 0          |   0.0 |  0.00
Comm    | 1.789      | 48.852     | 91.923     | 534.1 | 24.91
Output  | 0.026774   | 0.027508   | 0.028153   |   0.2 |  0.01
Modify  | 1.9309     | 1.9409     | 1.9523     |   0.4 |  0.99
Other   |            | 0.3162     |            |       |  0.16

Nlocal:          33.75 ave          48 max          21 min
Histogram: 8 8 0 0 0 0 0 8 0 8
Nghost:        1106.25 ave        1119 max        1092 min
Histogram: 8 0 8 0 0 0 0 0 8 8
Neighs:              0 ave           0 max           0 min
Histogram: 32 0 0 0 0 0 0 0 0 0
FullNghs:       5494.5 ave        7896 max        3378 min
Histogram: 8 8 0 0 0 0 0 8 0 8

Total # of neighbors = 175824
Ave neighs/atom = 162.8
Neighbor list builds = 0
Dangerous builds = 0

reset_timestep 0


variable interval equal 1000
thermo 10

variable nintervals equal $(v_PERIOD/v_interval)
variable nintervals equal 100
variable efield equal 1e-2*36.36*cos((step/${PERIOD})*2*3.14)
variable efield equal 1e-2*36.36*cos((step/100000)*2*3.14)
fix born all addbornforce 0.0 0.0 v_efield

variable Px equal f_born[1]+c_polarization[1]
variable Py equal f_born[2]+c_polarization[2]
variable Pz equal (f_born[3]+c_polarization[3])/vol
variable pe equal pe

fix aveP all ave/time 1 $(v_interval/2) ${interval} v_efield v_Pz v_pe f_born file Pz.${MODEL}.${STRUCTURE}.${TEMP}.$L.${ITER}
fix aveP all ave/time 1 500 ${interval} v_efield v_Pz v_pe f_born file Pz.${MODEL}.${STRUCTURE}.${TEMP}.$L.${ITER}
fix aveP all ave/time 1 500 1000 v_efield v_Pz v_pe f_born file Pz.${MODEL}.${STRUCTURE}.${TEMP}.$L.${ITER}
fix aveP all ave/time 1 500 1000 v_efield v_Pz v_pe f_born file Pz.BaTiO3-E0.${STRUCTURE}.${TEMP}.$L.${ITER}
fix aveP all ave/time 1 500 1000 v_efield v_Pz v_pe f_born file Pz.BaTiO3-E0.BaTiO3-sc333.${TEMP}.$L.${ITER}
fix aveP all ave/time 1 500 1000 v_efield v_Pz v_pe f_born file Pz.BaTiO3-E0.BaTiO3-sc333.290.$L.${ITER}
fix aveP all ave/time 1 500 1000 v_efield v_Pz v_pe f_born file Pz.BaTiO3-E0.BaTiO3-sc333.290.2.${ITER}
fix aveP all ave/time 1 500 1000 v_efield v_Pz v_pe f_born file Pz.BaTiO3-E0.BaTiO3-sc333.290.2.1

thermo_style custom step time temp press pe f_born v_efield v_Pz spcpu cpuremain

# dump 4a all custom 1000 dump.hyst.${MODEL}.${STRUCTURE}.${TEMP}.$L.${ITER}.bin id type xu yu zu fx fy fz
# dump_modify 4a sort id

fix nvt all nvt temp ${TEMP} ${TEMP} $(100*dt)
fix nvt all nvt temp 290 ${TEMP} $(100*dt)
fix nvt all nvt temp 290 290 $(100*dt)
fix nvt all nvt temp 290 290 0.2000000000000000111

run $(v_PERIOD)
run 100000
WARNING: non-constant efield is experimental, strongly distrust scalar/vector output (src/fix_addbornforce.cpp:193)
Per MPI rank memory allocation (min/avg/max) = 3.516 | 3.516 | 3.516 Mbytes
   Step          Time           Temp          Press          PotEng         f_born        v_efield         v_Pz          S/CPU         CPULeft    
         0   0              285.78633      127475.67     -807638.93     -297.82709      0.3636         0.056012873    0              0            
        10   0.02           297.11708      135276.44     -807632.66     -305.58593      0.36359993     0.057472102    27.400394      3649.2365    
        20   0.04           279.75114      137961.93     -807625.84     -310.08295      0.36359971     0.058317899    27.417499      3647.7239    
        30   0.06           285.40577      143105.53     -807621.24     -315.36748      0.36359935     0.059311829    27.461771      3645.0174    
        40   0.08           296.09417      138544.61     -807626.42     -311.76121      0.36359885     0.058633672    27.482834      3642.7843    
        50   0.1            286.89619      136258.79     -807629.76     -306.9695       0.36359821     0.057732585    27.457874      3641.9602    
        60   0.12           295.39034      127368.94     -807641.25     -296.72515      0.36359742     0.055806024    27.470432      3641.0122    
        70   0.14           280.60236      126855.04     -807641.43     -294.30498      0.36359649     0.055350998    27.519149      3639.311     
        80   0.16           281.83003      124250.74     -807643.08     -292.92836      0.36359541     0.055092255    27.4862        3638.4882    
        90   0.18           284.36729      130550.16     -807637.02     -299.18067      0.36359419     0.056268341    27.456041      3638.2112    
       100   0.2            292.69882      133240.09     -807632.45     -304.95515      0.36359283     0.057354589    27.458732      3637.8811    
       110   0.22           286.15944      141239.18     -807623.25     -313.10288      0.36359132     0.058887221    27.435928      3637.8196    
       120   0.24           289.99199      141017.35     -807623.03     -313.81754      0.36358968     0.059021901    27.413766      3637.9528    
       130   0.26           287.47798      140744.86     -807624.83     -311.44842      0.36358788     0.058576612    27.428917      3637.8547    
       140   0.28           291.41769      133380.95     -807632.4      -304.35198      0.36358595     0.057242231    27.44742       3637.5432    
       150   0.3            297.69976      128647.61     -807638.81     -298.55735      0.36358387     0.056152705    27.423039      3637.4403    
       160   0.32           282.83275      124970.09     -807642.26     -292.77629      0.36358165     0.055065738    27.439204      3637.17      
       170   0.34           289.30562      126414.22     -807641.56     -294.16047      0.36357928     0.055326438    27.47786       3636.5887    
       180   0.36           291.01447      130279.27     -807635.77     -299.97169      0.36357677     0.056419815    27.453941      3636.2071    
       190   0.38           296.87633      135176.16     -807629.46     -306.85777      0.36357412     0.057715396    27.422335      3636.0471    
       200   0.4            297.81636      141595.65     -807623.08     -313.03219      0.36357132     0.058877165    27.399515      3636.0189    
       210   0.42           288.1461       141075.15     -807621.64     -312.90931      0.36356838     0.05885453     27.398673      3635.9637    
       220   0.44           304.86535      139517.81     -807625.37     -311.1374       0.3635653      0.05852175     27.440528      3635.6281    
       230   0.46           298.90267      132704.66     -807632.07     -303.45885      0.36356207     0.057078001    27.429026      3635.3559    
       240   0.48           297.51207      129318.08     -807636.84     -298.14941      0.3635587      0.056079861    27.408093      3635.1919    
       250   0.5            293.37924      124587.06     -807641.96     -292.26796      0.36355519     0.054974132    27.390036      3635.108     
       260   0.52           289.3128       128606.42     -807637.57     -295.93448      0.36355153     0.055664345    27.384682      3635.0295    
       270   0.54           303.67404      130225.39     -807635.59     -299.93557      0.36354773     0.056417528    27.383252      3634.937     
       280   0.56           302.8372       138289.78     -807627.43     -307.79351      0.36354379     0.057896225    27.400718      3634.7421    
       290   0.58           301.37344      139650.37     -807624.14     -310.94429      0.3635397      0.058489548    27.39089       3634.5805    
       300   0.6            303.56662      142443.2      -807621.21     -314.0156       0.36353547     0.059067958    27.394191      3634.3907    
       310   0.62           310.68385      136848.57     -807627.36     -308.96258      0.3635311      0.058118157    27.427098      3634.0488    
       320   0.64           298.32499      134375.05     -807631.42     -303.1398       0.36352658     0.057023557    27.510053      3633.3629    
       330   0.66           301.17133      126941.02     -807639.28     -295.79432      0.36352192     0.055642514    27.484653      3632.7981    
       340   0.68           288.0714       127588.61     -807638.83     -294.43186      0.36351712     0.055386951    27.44371       3632.4042    
       350   0.7            291.93287      127671.03     -807638.71     -295.28811      0.36351217     0.055548779    27.452024      3631.9805    
       360   0.72           305.92569      132396.4      -807634.37     -301.66997      0.36350708     0.056750111    27.459721      3631.5319    
       370   0.74           292.68617      137066.45     -807627.26     -307.20609      0.36350185     0.057792399    27.403644      3631.2886    
       380   0.76           295.27895      141110.31     -807622.08     -312.85267      0.36349647     0.058855517    27.407683      3631.0248    
       390   0.78           295.6084       140195.71     -807622.72     -312.4639       0.36349095     0.058783272    27.443505      3630.634     
       400   0.8            299.09412      137314.03     -807627.64     -308.19076      0.36348529     0.057980279    27.397064      3630.3986    
       410   0.82           305.15159      131813.24     -807635.16     -301.72027      0.36347948     0.056763884    27.443968      3630.005     
       420   0.84           297.07096      127590.04     -807639.18     -296.68867      0.36347353     0.055818183    27.467733      3629.5383    
       430   0.86           291.03324      126503.51     -807640.43     -294.76724      0.36346744     0.05545762     27.451471      3629.1262    
       440   0.88           290.69319      127342.74     -807639.6      -295.73276      0.3634612      0.055640228    27.437515      3628.7581    
       450   0.9            298.49809      132402.71     -807634.27     -302.33795      0.36345482     0.05688395     27.426252      3628.4235    
       460   0.92           291.44401      137298.56     -807627.05     -308.76114      0.3634483      0.058093496    27.443537      3628.0379    
       470   0.94           285.69106      141161.24     -807622.1      -312.90857      0.36344163     0.058874916    27.43312       3627.6824    
       480   0.96           295.01979      138715.09     -807626.19     -310.25789      0.36343482     0.058377274    27.417561      3627.3695    
       490   0.98           297.40917      136361.82     -807629.21     -307.57007      0.36342786     0.057872649    27.420207      3627.0472    
       500   1              284.02287      131040.64     -807633.48     -301.55564      0.36342077     0.056742077    27.478819      3626.5684    
       510   1.02           294.8526       128083.42     -807639.95     -9488.8163      0.36341353     0.055796697    27.42548       3626.2323    
       520   1.04           280.19375      126256.73     -807640.81     -9398.7565      0.36340614     0.055268245    27.376728      3626.0193    
       530   1.06           293.98935      129668.47     -807637.95     -9553.8148      0.36339862     0.05618121     27.354217      3625.8569    
       540   1.08           292.68094      132654.02     -807632.28     -9733.5816      0.36339095     0.057239537    27.378382      3625.6276    
       550   1.1            288.39705      138913.3      -807626.56     -9896.6141      0.36338313     0.058199521    27.402564      3625.335     
       560   1.12           294.72783      138982.91     -807625.66     -9957.6408      0.36337518     0.058559686    27.354609      3625.1535    
       570   1.14           295.26736      139468.73     -807625.4      -9967.4148      0.36336707     0.058618473    27.369653      3624.9305    
       580   1.16           292.58073      134571.83     -807630.02     -9810.6711      0.36335883     0.05769797     27.369841      3624.7021    
       590   1.18           286.21591      130678.68     -807635.08     -9618.9688      0.36335044     0.056571847    27.372526      3624.4631    
       600   1.2            280.19072      127212.93     -807639.77     -9442.8594      0.36334191     0.055537402    27.353768      3624.2614    
       610   1.22           288.44339      126963.38     -807640.93     -9444.3735      0.36333324     0.055547633    27.350492      3624.0613    
       620   1.24           294.22933      129055.11     -807637.84     -9570.5457      0.36332442     0.056291089    27.37956       3623.7937    
       630   1.26           287.65865      133938.54     -807631.65     -9741.1898      0.36331546     0.057296179    27.350408      3623.5845    
       640   1.28           289.78777      137659.13     -807627.76     -9874.6332      0.36330636     0.058082528    27.333032      3623.4064    
       650   1.3            290.61537      139129.44     -807625.28     -9960.6888      0.36329711     0.058590197    27.334801      3623.2189    
       660   1.32           290.12128      139540.03     -807625.82     -9940.9448      0.36328772     0.058475572    27.381089      3622.933     
       670   1.34           288.82352      134314.57     -807631.02     -9770.9308      0.36327819     0.057477008    27.380293      3622.6463    
       680   1.36           285.71011      130878.59     -807636.36     -9583.685       0.36326851     0.056377045    27.357829      3622.4011    
       690   1.38           286.69984      127131.43     -807640.69     -9451.7472      0.36325869     0.05560241     27.392021      3622.0866    
       700   1.4            283.41634      128166.05     -807638.51     -9507.072       0.36324873     0.055929407    27.392572      3621.7698    
       710   1.42           293.67391      129635.66     -807637.54     -9586.4141      0.36323863     0.05639774     27.342548      3621.5449    
       720   1.44           281.94752      135315.3      -807630.14     -9769.7519      0.36322838     0.057477955    27.331055      3621.3373    
       730   1.46           296.14337      136840.12     -807628.09     -9901.0036      0.36321798     0.058251809    27.336894      3621.1148    
       740   1.48           283.75441      140718.69     -807623.06     -10005.239      0.36320745     0.058866777    27.361421      3620.8444    
       750   1.5            294.05386      136633.57     -807628.11     -9890.8739      0.36319677     0.058195611    27.378775      3620.5409    
       760   1.52           287.34607      134096.97     -807632.19     -9727.892       0.36318595     0.057238368    27.385436      3620.2241    
       770   1.54           286.96771      128030.91     -807638.23     -9534.8869      0.36317498     0.056104431    27.412285      3619.8599    
       780   1.56           278.55411      127566.62     -807638.29     -9492.5152      0.36316387     0.05585682     27.408255      3619.5026    
       790   1.58           289.22396      125924.23     -807640.44     -9472.427       0.36315262     0.055740342    27.390371      3619.175     
       800   1.6            286.02593      131844.18     -807635.43     -9616.4345      0.36314122     0.056589527    27.369266      3618.8814    
       810   1.62           291.54531      134761.49     -807631.12     -9781.1079      0.36312968     0.057560404    27.375001      3618.5766    
       820   1.64           295.59354      138974.57     -807625.93     -9963.1122      0.363118       0.058633359    27.395764      3618.2368    
       830   1.66           289.54872      138714.14     -807626.03     -9931.4126      0.36310618     0.05844871     27.384598      3617.9143    
       840   1.68           288.29609      137433        -807628.19     -9852.6487      0.36309421     0.057987077    27.404195      3617.5599    
       850   1.7            286.54635      132358.91     -807632.93     -9691.0412      0.3630821      0.05703785     27.409619      3617.1968    
       860   1.72           280.91027      130086.12     -807635.93     -9566.6487      0.36306984     0.056307622    27.413823      3616.8273    
       870   1.74           283.84436      126643.88     -807640.18     -9440.5803      0.36305745     0.055567503    27.377576      3616.5128    
       880   1.76           282.42001      128771.72     -807638.37     -9485.9792      0.3630449      0.055836651    27.348454      3616.241     
       890   1.78           289.76385      131506.12     -807634.39     -9643.8415      0.36303222     0.056767848    27.323169      3616.0048    
       900   1.8            300.09027      135950.27     -807629.74     -9834.8818      0.36301939     0.05789444     27.354609      3615.7194    
       910   1.82           291.58157      138758.14     -807625.82     -9916.1064      0.36300642     0.058374666    27.340068      3615.4534    
       920   1.84           292.26427      138889.53     -807626.12     -9904.9532      0.36299331     0.058311115    27.350884      3615.1697    
       930   1.86           292.65611      136565.27     -807627.56     -9856.4903      0.36298005     0.05802793     27.415167      3614.7929    
       940   1.88           293.47839      133110.15     -807632.91     -9684.2657      0.36296665     0.057016101    27.427471      3614.399     
       950   1.9            292.80629      129465.54     -807637.4      -9529.6086      0.36295311     0.056107651    27.39535       3614.0504    
       960   1.92           291.98903      126949.39     -807640.09     -9434.9801      0.36293942     0.055552599    27.398175      3613.6976    
       970   1.94           294.12224      128487.22     -807637.43     -9524.3541      0.36292559     0.056080965    27.407857      3613.3313    
       980   1.96           303.00995      131485.05     -807634.21     -9663.3122      0.36291162     0.056901364    27.350617      3613.0422    
       990   1.98           296.32703      136322.47     -807629.19     -9791.3521      0.3628975      0.057657555    27.347436      3612.7558    
      1000   2              297.32287      139333.85     -807625.59     -9905.3633      0.36288325     0.058331216    27.30185       3612.5283    
      1010   2.02           296.86394      138656.91     -807624.71     -310.34278      0.36286884     0.058484326    27.435302      3612.1234    
      1020   2.04           299.41699      137073.46     -807628.13     -307.15024      0.3628543      0.057885008    27.420942      3611.7379    
      1030   2.06           297.46811      131921.93     -807634        -300.90226      0.36283961     0.056709822    27.438551      3611.3302    
      1040   2.08           302.40467      128852.22     -807638.47     -297.03884      0.36282478     0.055983986    27.458441      3610.8983    
      1050   2.1            290.02826      127954.94     -807637.92     -295.83551      0.3628098      0.055759492    27.424682      3610.5099    
      1060   2.12           291.55779      129576.01     -807636.65     -297.26338      0.36279469     0.056030952    27.431827      3610.113     
      1070   2.14           303.22256      132190.32     -807634.5      -301.04106      0.36277943     0.056745393    27.425659      3609.7244    
      1080   2.16           293.03135      136734.7      -807627.47     -306.69595      0.36276402     0.057813778    27.41734       3609.3463    
      1090   2.18           297.94231      138596.64     -807624.8      -310.07241      0.36274848     0.058452762    27.413729      3608.9729    
      1100   2.2            299.50588      138906        -807625.3      -309.80443      0.36273279     0.058404772    27.411634      3608.6021    
      1110   2.22           300.29681      135319.63     -807630.38     -304.93592      0.36271695     0.057489462    27.451408      3608.1844    
      1120   2.24           298.68501      131446.6      -807634.11     -301.04989      0.36270098     0.05675933     27.484431      3607.7289    
      1130   2.26           290.5231       128704.21     -807636.74     -297.43794      0.36268486     0.056080833    27.491371      3607.267     
      1140   2.28           283.96164      128622.62     -807637.33     -296.11462      0.3626686      0.055833829    27.455061      3606.8486    
      1150   2.3            294.42667      130172.71     -807637.6      -297.53332      0.36265219     0.056103869    27.419887      3606.4712    
      1160   2.32           300.93684      132617.61     -807634.35     -301.91704      0.36263564     0.056933076    27.455466      3606.0538    
      1170   2.34           294.29135      136355.73     -807627.56     -308.05689      0.36261895     0.058093554    27.480401      3605.6094    
      1180   2.36           298.55186      138116.7      -807626.84     -309.64777      0.36260212     0.058396273    27.465515      3605.1829    
      1190   2.38           294.49444      137815.97     -807627.77     -308.36946      0.36258514     0.058157921    27.439634      3604.786     
      1200   2.4            293.82335      134230.85     -807631.48     -304.86686      0.36256802     0.057500051    27.472635      3604.3535    
      1210   2.42           282.89507      131751.67     -807633.77     -301.28915      0.36255076     0.056827976    27.496402      3603.8965    
      1220   2.44           290.08033      127990.49     -807639.85     -296.47481      0.36253335     0.055922598    27.4708        3603.4685    
      1230   2.46           278.84638      128273.18     -807639.41     -295.43259      0.3625158      0.055728708    27.418527      3603.0972    
      1240   2.48           291.96303      129111.08     -807638.58     -298.30452      0.36249811     0.056273198    27.400241      3602.7455    
      1250   2.5            281.78998      133274.89     -807631.48     -304.1519       0.36248028     0.057379092    27.407877      3602.3855    
      1260   2.52           294.76837      135969.81     -807630.08     -307.47786      0.3624623      0.05800942     27.430293      3602.002     
      1270   2.54           291.38633      137689.05     -807628.24     -308.93888      0.36244418     0.058287973    27.408465      3601.6414    
      1280   2.56           278.79488      136449.85     -807627.43     -307.99028      0.36242592     0.058111927    27.408754      3601.2805    
      1290   2.58           286.98067      134259.75     -807631.51     -305.05643      0.36240751     0.05756129     27.472772      3600.8544    
      1300   2.6            281.60479      129963.17     -807635.95     -299.90025      0.36238896     0.056591262    27.475998      3600.426     
      1310   2.62           286.84914      127962.4      -807640.83     -295.66445      0.36237027     0.055794844    27.443899      3600.0307    
      1320   2.64           276.48972      127375.59     -807639.16     -295.89651      0.36235143     0.05584154     27.429935      3599.6498    
      1330   2.66           290.83692      130000.91     -807637.3      -299.68469      0.36233245     0.056559406    27.42412       3599.2748    
      1340   2.68           284.15968      133272.31     -807632.51     -303.50266      0.36231333     0.057282994    27.433635      3598.8907    
      1350   2.7            283.12591      136760.42     -807628.98     -306.85608      0.36229407     0.057918996    27.435686      3598.5048    
      1360   2.72           273.78745      138398.11     -807625.57     -308.90821      0.36227466     0.058309459    27.479457      3598.0772    
      1370   2.74           283.42604      137075.4      -807627.42     -308.29982      0.36225511     0.058197759    27.479837      3597.6501    
      1380   2.76           280.68345      133590.81     -807632.05     -303.12291      0.36223542     0.057223625    27.46562       3597.2374    
      1390   2.78           291.21677      129080.71     -807639.27     -297.18908      0.36221558     0.056106507    27.475829      3596.8158    
      1400   2.8            288.76179      126726.5      -807640.01     -295.9677       0.3621956      0.055879005    27.455803      3596.4137    
      1410   2.82           286.388        127872.6      -807638.14     -297.44129      0.36217548     0.05616034     27.435454      3596.0311    
      1420   2.84           286.42962      130859.48     -807635.82     -299.59519      0.36215522     0.056570185    27.394118      3595.6869    
      1430   2.86           296.7446       133701.45     -807632.96     -303.77247      0.36213481     0.057362181    27.391251      3595.345     
      1440   2.88           283.50262      138138.91     -807626.19     -308.54094      0.36211426     0.058265931    27.408948      3594.9867    
      1450   2.9            286.9683       138116.64     -807625.27     -309.86083      0.36209357     0.058518526    27.402433      3594.6342    
      1460   2.92           282.46835      136879.6      -807627.78     -306.48948      0.36207273     0.057885165    27.422796      3594.2632    
      1470   2.94           295.1173       131771.45     -807634.97     -300.94251      0.36205176     0.056840828    27.487613      3593.8347    
      1480   2.96           291.41066      130660.49     -807637.03     -298.15715      0.36203064     0.056318026    27.478745      3593.4149    
      1490   2.98           286.5036       128167.1      -807637.8      -296.57708      0.36200937     0.056022862    27.450113      3593.0209    
      1500   3              293.81539      128444.57     -807638.38     -296.81927      0.36198796     0.056071927    27.422108      3592.6517    
      1510   3.02           296.5371       130270.87     -807637.19     -9545.0352      0.36196642     0.056351671    27.361525      3592.3353    
      1520   3.04           285.97521      135573.94     -807628.56     -9771.5697      0.36194472     0.057692535    27.342678      3592.0345    
      1530   3.06           287.94294      137383.87     -807625.44     -9878.2829      0.36192289     0.058326101    27.37038       3591.7091    
      1540   3.08           290.17432      139002.66     -807626.55     -9846.7434      0.36190091     0.058143408    27.362696      3591.3896    
      1550   3.1            288.14953      135298.93     -807629.1      -9750.4035      0.36187879     0.057578056    27.399559      3591.0385    
      1560   3.12           299.32889      133040.05     -807633.78     -9649.7051      0.36185653     0.056986918    27.400105      3590.6866    
      1570   3.14           291.43119      130138.97     -807636.08     -9539.0395      0.36183412     0.056336864    27.387825      3590.3449    
      1580   3.16           291.78902      128287.26     -807638.23     -9468.1998      0.36181157     0.055921975    27.379162      3590.01      
      1590   3.18           285.07152      129590.37     -807637.22     -9469.7732      0.36178888     0.055934775    27.368408      3589.6836    
      1600   3.2            285.37272      132219.46     -807632.41     -9623.4123      0.36176605     0.056845858    27.370176      3589.3553    
      1610   3.22           299.7407       135906.6      -807629.41     -9783.8409      0.36174307     0.057797186    27.370255      3589.0265    
      1620   3.24           293.58123      137351.66     -807626.92     -9836.0365      0.36171995     0.058109241    27.403854      3588.67      
      1630   3.26           297.31185      137804.66     -807627.77     -9822.3438      0.36169669     0.05803208     27.41312       3588.306     
      1640   3.28           295.85867      134874.91     -807630.4      -9733.3961      0.36167329     0.057510283    27.369051      3587.9772    
      1650   3.3            309.34907      132166.33     -807634.43     -9663.4737      0.36164974     0.05710086     27.384985      3587.6353    
      1660   3.32           289.38574      128191.32     -807636.81     -9499.475       0.36162605     0.056135479    27.35255       3587.3187    
      1670   3.34           284.45075      129110.44     -807637.74     -9445.4282      0.36160222     0.055819778    27.349823      3587.0037    
      1680   3.36           285.41607      128517.37     -807636.64     -9487.4015      0.36157824     0.056071546    27.350267      3586.6878    
      1690   3.38           296.66503      133556.25     -807631.6      -9697.9043      0.36155413     0.057319463    27.357406      3586.3657    
      1700   3.4            297.35065      135059.87     -807629.66     -9765.6429      0.36152987     0.057723705    27.339473      3586.057     
      1710   3.42           287.99119      138360.87     -807626.51     -9822.5598      0.36150546     0.058064054    27.338867      3585.7481    
      1720   3.44           291.41284      137347.76     -807627.73     -9801.603       0.36148092     0.057944106    27.358592      3585.4234    
      1730   3.46           302.20617      135091.87     -807629.99     -9777.4711      0.36145623     0.057805394    27.390832      3585.0738    
      1740   3.48           288.39595      131954.86     -807634.28     -9577.7715      0.3614314      0.05662864     27.348533      3584.756     
      1750   3.5            283.93612      127924.43     -807638.97     -9406.9614      0.36140643     0.055622567    27.35694       3584.4313    
      1760   3.52           299.03656      127607.41     -807640.32     -9430.8787      0.36138131     0.055767864    27.353156      3584.1089    
      1770   3.54           285.33129      129358.52     -807635.13     -9538.8356      0.36135605     0.056410191    27.396068      3583.7543    
      1780   3.56           289.18977      133232.68     -807631.7      -9666.2639      0.36133065     0.057167787    27.439913      3583.3674    
      1790   3.58           293.57009      135987.42     -807630.52     -9724.6731      0.36130511     0.057517294    27.394584      3583.0138    
      1800   3.6            285.51674      138640.98     -807625.25     -9858.0071      0.36127942     0.058310053    27.39014       3582.6633    
      1810   3.62           295.78108      137283.89     -807626.65     -9860.725       0.3612536      0.0583303      27.424613      3582.2877    
      1820   3.64           289.52351      134327.21     -807630.63     -9705.8         0.36122763     0.057417981    27.436984      3581.9035    
      1830   3.66           295.98027      130116.14     -807638.06     -9496.9462      0.36120151     0.056186497    27.420685      3581.531     
      1840   3.68           289.71161      128716.73     -807638.02     -9470.981       0.36117526     0.056036953    27.418338      3581.1603    
      1850   3.7            283.4833       128436.74     -807637.06     -9476.964       0.36114886     0.056076451    27.427624      3580.7831    
      1860   3.72           286.22012      130588.26     -807636.02     -9521.604       0.36112232     0.056344733    27.394736      3580.4292    
      1870   3.74           282.74516      133127.14     -807632.55     -9619.411       0.36109564     0.056927719    27.352864      3580.1044    
      1880   3.76           289.58332      137224.81     -807627.78     -9805.7642      0.36106881     0.058034869    27.393263      3579.7511    
      1890   3.78           292.8938       137695        -807626.01     -9876.9076      0.36104184     0.058460294    27.37721       3579.4087    
      1900   3.8            298.09235      137146.28     -807629.62     -9783.8085      0.36101474     0.057913599    27.331811      3579.0975    
      1910   3.82           295.18552      133496.77     -807633.72     -9640.7673      0.36098748     0.057071199    27.351808      3578.7719    
      1920   3.84           291.39608      130598.58     -807635.5      -9566.7235      0.36096009     0.056637174    27.366734      3578.4358    
      1930   3.86           285.17699      128505.99     -807637.44     -9479.0795      0.36093255     0.056122584    27.388118      3578.0848    
      1940   3.88           281.84036      128286.6      -807638.59     -9429.902       0.36090487     0.055835701    27.394773      3577.7292    
      1950   3.9            284.16794      130255.35     -807636.75     -9500.4811      0.36087705     0.056257946    27.378435      3577.3844    
      1960   3.92           283.08015      133625.38     -807631.89     -9653.4291      0.36084909     0.057168071    27.380335      3577.0382    
      1970   3.94           292.72113      136077.4      -807628.23     -9814.8163      0.36082098     0.058128342    27.353653      3576.7096    
      1980   3.96           288.62067      136859.87     -807627.89     -9808.5807      0.36079273     0.058095959    27.370473      3576.3694    
      1990   3.98           289.39295      136149.83     -807630.28     -9738.1786      0.36076434     0.057683509    27.4291        3575.9905    
      2000   4              287.27584      133647.67     -807631.53     -9690.2923      0.36073581     0.057404397    27.462449      3575.59      
      2010   4.02           282.10853      130766.63     -807634.45     -299.27381      0.36070713     0.056736363    27.499106      3575.1663    
      2020   4.04           279.95583      128416.88     -807638.71     -294.72604      0.36067831     0.055878662    27.48086       3574.7548    
      2030   4.06           280.12337      128779.77     -807639.13     -294.40442      0.36064935     0.055822166    27.456741      3574.3593    
      2040   4.08           293.49699      130147.5      -807636.6      -298.97067      0.36062025     0.05669255     27.469915      3573.9557    
      2050   4.1            275.32296      134475.35     -807629.86     -303.25916      0.36059101     0.057510421    27.435097      3573.5745    
      2060   4.12           287.38124      135478.33     -807631.08     -303.78868      0.36056162     0.057615536    27.386363      3573.2244    
      2070   4.14           286.04646      137575.57     -807628.7      -306.0403       0.36053209     0.058047325    27.383703      3572.8757    
      2080   4.16           281.71344      135986.69     -807628.6      -305.70713      0.36050242     0.057988903    27.420695      3572.5037    
      2090   4.18           287.09177      134276.6      -807632.33     -302.68159      0.36047261     0.057419745    27.418753      3572.133     
      2100   4.2            277.19881      129890.38     -807637.54     -296.14608      0.36044265     0.056184604    27.426216      3571.7578    
      2110   4.22           285.79533      128501.65     -807640.41     -294.45844      0.36041256     0.055869092    27.441296      3571.3733    
      2120   4.24           279.62402      128078.23     -807638.63     -295.48301      0.36038232     0.056068193    27.430593      3570.9956    
      2130   4.26           278.34926      131513.09     -807635.27     -298.70376      0.36035193     0.056684112    27.383739      3570.6467    
      2140   4.28           283.28508      133055.55     -807634.54     -300.15619      0.36032141     0.056964561    27.38585       3570.2963    
      2150   4.3            277.31444      137196.9      -807628.7      -305.12901      0.36029075     0.057913246    27.462776      3569.8992    
      2160   4.32           284.95593      137176.9      -807628.71     -306.15968      0.36025994     0.058113837    27.508584      3569.475     
      2170   4.34           287.7513       135871.38     -807629.7      -305.44802      0.36022899     0.057983733    27.547553      3569.0282    
      2180   4.36           280.07379      132365.38     -807634.62     -299.3626       0.36019789     0.056833433    27.514722      3568.6016    
      2190   4.38           284.1439       130058        -807637.42     -296.9305       0.36016666     0.056376592    27.512565      3568.1768    
      2200   4.4            279.69195      127876.01     -807637.95     -295.69217      0.36013528     0.056146367    27.497311      3567.7615    
      2210   4.42           278.78407      129105.29     -807637.54     -295.78886      0.36010377     0.056169643    27.452219      3567.3731    
      2220   4.44           285.19105      131251.88     -807636.14     -297.84561      0.36007211     0.056565188    27.420669      3567.0035    
      2230   4.46           293.56683      134109.03     -807633.03     -301.93122      0.3600403      0.05734617     27.395601      3566.6484    
      2240   4.48           276.97714      137281.71     -807626.23     -306.25475      0.36000836     0.058172505    27.413577      3566.2829    
      2250   4.5            283.55313      137755.6      -807627.84     -305.29599      0.35997627     0.05799556     27.397452      3565.9267    
      2260   4.52           293.07836      135559.12     -807631.96     -302.13527      0.35994404     0.057400273    27.437662      3565.5473    
      2270   4.54           283.85646      132134.19     -807633.45     -299.07013      0.35991167     0.056823061    27.434529      3565.1698    
      2280   4.56           278.6249       130319.05     -807634.81     -296.69933      0.35987916     0.056377704    27.418705      3564.8014    
      2290   4.58           297.93126      127309.03     -807640.18     -293.71622      0.35984651     0.055815928    27.420013      3564.4323    
      2300   4.6            292.17837      130185.03     -807637.35     -295.4607       0.35981371     0.056152556    27.437783      3564.0532    
      2310   4.62           292.5896       131031.42     -807634.11     -298.6477       0.35978077     0.056763444    27.377001      3563.7085    
      2320   4.64           295.34787      135835.78     -807629.08     -303.82167      0.35974769     0.057752161    27.39762       3563.352     
      2330   4.66           289.45879      136461.34     -807627.73     -304.19826      0.35971447     0.057829086    27.431307      3562.9767    
      2340   4.68           297.02932      137476.58     -807628.25     -304.49147      0.35968111     0.057890195    27.471649      3562.5791    
      2350   4.7            292.14691      133853.36     -807630.57     -301.42036      0.3596476      0.057311652    27.507728      3562.1619    
      2360   4.72           292.37571      132849.57     -807632.94     -298.90388      0.35961396     0.056838491    27.477179      3561.762     
      2370   4.74           291.71646      128583.05     -807637.81     -293.86044      0.35958017     0.055884699    27.433531      3561.3862    
      2380   4.76           298.87941      129258.93     -807638.76     -293.69946      0.35954624     0.055859356    27.445099      3561.0041    
      2390   4.78           295.9939       128618.62     -807636.35     -295.74102      0.35951216     0.056252974    27.432132      3560.6293    
      2400   4.8            296.48035      134170.86     -807631.33     -300.76605      0.35947795     0.057214233    27.437352      3560.2517    
      2410   4.82           298.87981      134653.36     -807630.4      -302.03613      0.35944359     0.057461329    27.426841      3559.8799    
      2420   4.84           295.19477      137047.66     -807627.08     -304.78397      0.35940909     0.057989661    27.438909      3559.5017    
      2430   4.86           300.48866      135936.53     -807628.72     -303.89012      0.35937446     0.057825167    27.442048      3559.1219    
      2440   4.88           286.12975      135667.76     -807628.83     -301.74177      0.35933967     0.057421929    27.448224      3558.739     
      2450   4.9            299.72546      130559.18     -807636.62     -295.88103      0.35930475     0.056312094    27.447156      3558.3568    
      2460   4.92           288.4867       129580.27     -807636.35     -294.54898      0.35926969     0.056064051    27.433567      3557.9819    
      2470   4.94           290.6181       128321.46     -807636.81     -294.45543      0.35923448     0.056051736    27.45254       3557.5971    
      2480   4.96           300.91679      129911.56     -807636.29     -296.41091      0.35919913     0.05642953     27.488357      3557.1938    
      2490   4.98           295.84603      134320.18     -807632.65     -299.42862      0.35916364     0.057009661    27.489281      3556.7904    
      2500   5              296.82378      135035.88     -807629.93     -302.34728      0.35912801     0.057571071    27.488616      3556.3876    
[...]
     98740   197.48         292.34832      134996.38     -807632.01     -9715.3394      0.36236891     0.057293398    28.137035      46.07357     
     98750   197.5          299.13982      132227.13     -807634.4      -9668.3619      0.36238762     0.05701342     28.127063      45.707779    
     98760   197.52         280.03165      134696.82     -807630.19     -9711.1757      0.36240618     0.057262956    28.130987      45.341989    
     98770   197.54         294.51592      131413.61     -807634.72     -9629.1208      0.36242459     0.056776225    28.11594       44.976203    
     98780   197.56         295.84314      133003.98     -807633.91     -9655.0372      0.36244287     0.056926166    28.111584      44.61042     
     98790   197.58         288.60588      133020.48     -807632.04     -9677.4492      0.362461       0.057055453    28.135448      44.244636    
     98800   197.6          299.37692      132989.84     -807633.16     -9687.4249      0.36247899     0.057111432    28.174812      43.878847    
     98810   197.62         289.42156      134190.28     -807630.66     -9718.403       0.36249683     0.057291241    28.181777      43.51306     
     98820   197.64         295.17699      133770.49     -807631.45     -9715.6444      0.36251453     0.057272182    28.125328      43.147283    
     98830   197.66         292.95505      134986.81     -807630.34     -9736.9545      0.36253209     0.057395021    28.14282       42.781506    
     98840   197.68         300.22481      132623.36     -807633.74     -9657.8955      0.36254951     0.056926269    28.15758       42.415729    
     98850   197.7          284.80282      134236.17     -807631.11     -9666.777       0.36256678     0.056975904    28.165711      42.049952    
     98860   197.72         309.70245      131059.28     -807635.67     -9631.0421      0.36258391     0.056762601    28.144966      41.684181    
     98870   197.74         291.92856      133644.1      -807631.35     -9685.6275      0.3626009      0.057081638    28.157397      41.318411    
     98880   197.76         301.07979      131675.93     -807633.88     -9643.3787      0.36261774     0.056830007    28.140308      40.952644    
     98890   197.78         294.52829      135370.45     -807630.67     -9711.6816      0.36263445     0.057229892    28.150898      40.586879    
     98900   197.8          301.27465      133180.4      -807631.71     -9711.3392      0.362651       0.05722526     28.168343      40.221113    
     98910   197.82         295.4258       136472.75     -807628.58     -9781.4993      0.36266742     0.057636079    28.160437      39.85535     
     98920   197.84         291.92755      133346.85     -807631.32     -9680.7153      0.36268369     0.057039664    28.129987      39.489594    
     98930   197.86         296.97708      134125.71     -807631.92     -9680.2811      0.36269982     0.057034569    28.085866      39.123846    
     98940   197.88         300.4802       131741.33     -807633.65     -9643.2166      0.36271581     0.056813688    28.056499      38.758104    
     98950   197.9          291.52023      133830.6      -807631.22     -9680.415       0.36273165     0.057030354    28.053481      38.392364    
     98960   197.92         292.09907      132456.07     -807633.21     -9623.1192      0.36274735     0.056690352    28.032528      38.026629    
     98970   197.94         304.84042      133888        -807633.9      -9659.1526      0.36276291     0.056900187    28.070217      37.66089     
     98980   197.96         289.08859      134272.82     -807629.6      -9732.1887      0.36277832     0.057327993    28.072133      37.295153    
     98990   197.98         304.57171      134738.6      -807630.76     -9769.434       0.36279359     0.057544966    28.092445      36.929416    
     99000   198            291.14159      134086.32     -807630.35     -9727.2579      0.36280872     0.057294146    28.030821      36.563688    
     99010   198.02         300.65317      133535.02     -807632.52     -303.43292      0.3628237      0.057189271    28.139667      36.197949    
     99020   198.04         292.1609       132377.75     -807631.47     -303.63109      0.36283855     0.057224281    28.194668      35.832205    
     99030   198.06         293.72526      132852.08     -807632.93     -302.63262      0.36285324     0.057033791    28.204843      35.466461    
     99040   198.08         288.71224      131333.26     -807635.09     -300.15963      0.3628678      0.056565466    28.20521       35.10072     
     99050   198.1          297.36631      132411.84     -807634.92     -301.82719      0.36288221     0.05687746     28.188052      34.734983    
     99060   198.12         288.03169      132370.04     -807632.51     -303.34577      0.36289648     0.057161381    28.182187      34.36925     
     99070   198.14         289.53169      133340.51     -807632.53     -303.81072      0.36291061     0.057246764    28.195451      34.003516    
     99080   198.16         282.66594      133559.84     -807632.6      -303.03482      0.36292459     0.057098363    28.16995       33.637788    
     99090   198.18         279.4654       134384.04     -807631.54     -303.90733      0.36293843     0.057260579    28.15861       33.272064    
     99100   198.2          291.66234      133854.29     -807632.7      -304.58451      0.36295213     0.057386003    28.19096       32.906338    
     99110   198.22         281.03076      133366.5      -807632.65     -303.29602      0.36296568     0.057141109    28.216271      32.540611    
     99120   198.24         281.57876      132598.35     -807634.81     -301.33269      0.36297909     0.05676912     28.179242      32.174891    
     99130   198.26         283.13573      131655.31     -807635.01     -301.48792      0.36299236     0.056796289    28.136089      31.809177    
     99140   198.28         283.60152      132483.91     -807632.92     -303.65036      0.36300548     0.057201595    28.14703       31.443465    
     99150   198.3          287.55137      131976.05     -807634.52     -302.73416      0.36301846     0.057026962    28.163124      31.077753    
     99160   198.32         286.24785      133997.83     -807633.1      -303.95827      0.3630313      0.057255526    28.174318      30.712042    
     99170   198.34         279.81199      133525.78     -807631.91     -304.37145      0.36304399     0.057331351    28.144219      30.346336    
     99180   198.36         280.9963       135734.56     -807629.74     -306.67764      0.36305655     0.057763747    28.162648      29.98063     
     99190   198.38         286.55427      132287.58     -807633.74     -303.44206      0.36306895     0.057152363    28.179697      29.614925    
     99200   198.4          284.66023      133455.19     -807634.15     -302.65404      0.36308122     0.057002014    28.177274      29.249222    
     99210   198.42         280.61071      130294.24     -807634.92     -301.32811      0.36309334     0.056750394    28.162276      28.883523    
     99220   198.44         278.59183      132124.79     -807633        -302.84397      0.36310532     0.057034001    28.165207      28.517826    
     99230   198.46         282.50598      130992.99     -807635.25     -301.14932      0.36311715     0.056713002    28.118292      28.152135    
     99240   198.48         293.29942      133943.76     -807633.97     -303.75189      0.36312885     0.05720128     28.150101      27.786443    
     99250   198.5          282.02163      134627.03     -807630.85     -305.24477      0.3631404      0.057480585    28.177346      27.420751    
     99260   198.52         291.13971      135067.24     -807630.78     -306.50003      0.3631518      0.057715151    28.176259      27.055062    
     99270   198.54         284.43324      133801.07     -807631.61     -304.57787      0.36316306     0.057351422    28.173215      26.689374    
     99280   198.56         286.3164       133275.37     -807632.51     -303.75177      0.36317418     0.057194117    28.134956      26.323693    
     99290   198.58         290.23633      132156.75     -807633.8      -302.87052      0.36318516     0.057026462    28.148468      25.958012    
     99300   198.6          280.05564      132031.3      -807632.73     -302.32747      0.36319599     0.056922515    28.197172      25.592329    
     99310   198.62         295.66113      130568.34     -807636.33     -300.72451      0.36320668     0.056619041    28.173135      25.22665     
     99320   198.64         289.43995      132162.47     -807634.66     -301.39119      0.36321723     0.056742913    28.171189      24.860974    
     99330   198.66         287.6511       133459.12     -807630.91     -304.72339      0.36322763     0.057368623    28.159355      24.4953      
     99340   198.68         296.01441      134770.42     -807630.24     -306.39174      0.36323789     0.057681086    28.191535      24.129626    
     99350   198.7          287.87278      135112.69     -807629.76     -305.56511      0.36324801     0.057523864    28.207652      23.763954    
     99360   198.72         289.68897      134833.89     -807630.05     -305.33415      0.36325798     0.057478806    28.241875      23.39828     
     99370   198.74         283.13794      134315.4      -807628.94     -305.48542      0.36326781     0.057505727    28.255184      23.032608    
     99380   198.76         301.89381      132223.22     -807634.24     -302.60717      0.3632775      0.056962395    28.257849      22.666938    
     99390   198.78         289.7216       131910.46     -807634.68     -300.30903      0.36328704     0.056528311    28.218087      22.301273    
     99400   198.8          290.9378       131032.26     -807634.95     -300.14703      0.36329644     0.056496355    28.228729      21.93561     
     99410   198.82         294.84825      132523.98     -807631.64     -303.88086      0.3633057      0.057197712    28.250707      21.569948    
     99420   198.84         304.38174      132921.21     -807632.78     -304.04514      0.36331481     0.057227198    28.220728      21.20429     
     99430   198.86         284.02394      136173.66     -807628.24     -305.62385      0.36332378     0.057522921    28.240538      20.838633    
     99440   198.88         295.23718      135029.93     -807629.7      -305.7853       0.36333261     0.05755191     28.217241      20.47298     
     99450   198.9          295.33919      136523.89     -807628.01     -307.42549      0.36334129     0.057859229    28.252073      20.107326    
     99460   198.92         303.6468       132471.85     -807633.01     -303.63327      0.36334983     0.057144167    28.250429      19.741676    
     99470   198.94         292.0882       132564.51     -807633.49     -301.45749      0.36335823     0.056733371    28.232058      19.376028    
     99480   198.96         292.5995       129898.49     -807635.22     -299.86903      0.36336648     0.056433146    28.229007      19.010384    
     99490   198.98         288.78212      132726.8      -807631.67     -302.90964      0.3633746      0.057004094    28.211715      18.644742    
     99500   199            292.81947      132086.52     -807632.75     -302.51172      0.36338256     0.056927962    28.176827      18.279105    
     99510   199.02         293.59499      134996.3      -807631.33     -9728.3229      0.36339039     0.057208701    28.087654      17.913476    
     99520   199.04         292.25512      134938.55     -807629.58     -9781.5394      0.36339807     0.057520432    28.135534      17.547846    
     99530   199.06         296.28353      137592.92     -807628.11     -9849.0193      0.3634056      0.057916046    28.145638      17.182217    
     99540   199.08         297.40284      134077.08     -807631.18     -9758.5411      0.363413       0.057382832    28.141036      16.816591    
     99550   199.1          297.27416      133238.43     -807633.47     -9685.1786      0.36342025     0.056950304    28.078246      16.45097     
     99560   199.12         288.54961      131846.86     -807633.93     -9635.2778      0.36342736     0.056655773    28.04972       16.085353    
     99570   199.14         292.25614      131955.31     -807633.42     -9669.5537      0.36343432     0.056856226    28.049522      15.719738    
     99580   199.16         285.54738      131973.81     -807633.07     -9653.768       0.36344114     0.056762342    28.12968       15.35412     
     99590   199.18         303.93634      132282.17     -807634.93     -9677.8664      0.36344782     0.056902991    28.103581      14.988506    
     99600   199.2          294.74602      135144.23     -807630.66     -9774.1763      0.36345435     0.057468232    28.124917      14.622892    
     99610   199.22         293.63961      135695.25     -807628.62     -9837.8927      0.36346074     0.057841841    28.15838       14.257279    
     99620   199.24         285.45903      136701.24     -807628.7      -9800.2872      0.36346699     0.05761975     28.170557      13.891667    
     99630   199.26         297.32946      133973.8      -807633.85     -9690.8109      0.3634731      0.056975139    28.12374       13.52606     
     99640   199.28         291.46401      133186.07     -807632.15     -9718.9822      0.36347906     0.057139829    28.14939       13.160453    
     99650   199.3          294.51164      130898.86     -807634.5      -9661.1152      0.36348487     0.056798708    28.160379      12.794849    
     99660   199.32         280.43423      132575.77     -807633.41     -9632.6756      0.36349055     0.056630625    28.18072       12.429245    
     99670   199.34         299.32844      130486.86     -807636.7      -9615.5966      0.36349608     0.056529357    28.209881      12.063642    
     99680   199.36         294.22269      134557.85     -807631.04     -9774.5863      0.36350147     0.057463194    28.200163      11.698042    
     99690   199.38         279.25131      135125.08     -807628.13     -9805.5225      0.36350671     0.057644231    28.20758       11.332444    
     99700   199.4          284.94069      137339.92     -807628.96     -9804.5499      0.36351181     0.057637705    28.186889      10.966849    
     99710   199.42         290.00831      134226.77     -807631.66     -9742.5723      0.36351677     0.057272578    28.197281      10.601255    
     99720   199.44         290.72542      134237.51     -807630.24     -9793.2454      0.36352158     0.057569702    28.211882      10.235664    
     99730   199.46         283.88959      131954.08     -807631.75     -9717.1007      0.36352625     0.05712135     28.104348      9.8700779    
     99740   199.48         295.37576      130663.12     -807636.27     -9623.5152      0.36353078     0.05657051     28.09854       9.5044943    
     99750   199.5          289.31909      130101.74     -807636.19     -9601.8031      0.36353516     0.056442197    28.164833      9.1389105    
     99760   199.52         288.70001      133020.42     -807632.74     -9711.9707      0.3635394      0.057089129    28.137375      8.7733296    
     99770   199.54         296.41831      134257.62     -807631.33     -9794.1469      0.3635435      0.05757153     28.14851       8.4077505    
     99780   199.56         291.43585      134503.39     -807631.17     -9779.116       0.36354745     0.057482551    28.142054      8.0421736    
     99790   199.58         283.37979      136976.69     -807629.3      -9804.6783      0.36355126     0.057632204    28.166977      7.6765981    
     99800   199.6          285.34102      134710.24     -807629.53     -9810.937       0.36355493     0.057668411    28.172004      7.3110246    
     99810   199.62         290.15632      133975.6      -807631.28     -9776.4808      0.36355845     0.057465322    28.139968      6.945454     
     99820   199.64         280.13826      131536.5      -807634.47     -9632.5215      0.36356183     0.056618615    28.141379      6.5798854    
     99830   199.66         286.52408      131227.64     -807635.35     -9634.4606      0.36356507     0.056629509    28.109048      6.2143195    
     99840   199.68         282.20311      130458.64     -807633.39     -9681.3429      0.36356816     0.056904589    28.131537      5.8487551    
     99850   199.7          285.5188       133573.44     -807632.21     -9734.6701      0.36357111     0.05721757     28.150475      5.4831924    
     99860   199.72         282.57562      132905.38     -807632.86     -9704.6128      0.36357392     0.057040461    28.151438      5.1176318    
     99870   199.74         286.29642      135773.98     -807630.31     -9803.5081      0.36357658     0.057621312    28.173484      4.7520729    
     99880   199.76         282.8483       134771.56     -807628.75     -9845.1612      0.3635791      0.057865733    28.204879      4.3865156    
     99890   199.78         286.44695      135376.36     -807629.96     -9821.9575      0.36358148     0.057728974    28.187483      4.0209608    
     99900   199.8          290.8201       131814.25     -807635.5      -9667.0068      0.36358371     0.056817895    28.14711       3.6554086    
     99910   199.82         288.01825      131818.28     -807634.73     -9679.0248      0.3635858      0.056888204    28.153414      3.2898584    
     99920   199.84         293.49562      129999.81     -807635.86     -9672.9758      0.36358775     0.056852347    28.176689      2.9243101    
     99930   199.86         285.13809      131958.99     -807634.56     -9678.1299      0.36358955     0.056882358    28.213883      2.5587635    
     99940   199.88         276.31661      131478.28     -807634.75     -9637.1601      0.36359121     0.056641303    28.20018       2.1932193    
     99950   199.9          291.16833      134103.97     -807633.24     -9754.1048      0.36359273     0.057328393    28.171272      1.8276775    
     99960   199.92         267.66303      134673.67     -807628.14     -9819.5421      0.3635941      0.057712774    28.14368       1.4621379    
     99970   199.94         292.13825      135160.68     -807631.06     -9834.6059      0.36359533     0.057801114    28.216246      1.0966001    
     99980   199.96         278.54555      133512.73     -807632.97     -9716.505       0.36359641     0.057106826    28.169682      0.73106462   
     99990   199.98         293.23136      133372.9      -807634.54     -9732.9338      0.36359736     0.057203235    28.176661      0.36553125   
    100000   200            272.73133      131512.7      -807632.47     -9711.5641      0.36359816     0.057077514    28.123011      0            
Loop time of 3655.3 on 32 procs for 100000 steps with 1080 atoms

Performance: 4.727 ns/day, 5.077 hours/ns, 27.358 timesteps/s, 29.546 katom-step/s
63.8% CPU use with 32 MPI tasks x 1 OpenMP threads

MPI task timing breakdown:
Section |  min time  |  avg time  |  max time  |%varavg| %total
---------------------------------------------------------------
Pair    | 2640       | 2804.7     | 3084.9     | 210.6 | 76.73
Neigh   | 0.0016642  | 0.0017635  | 0.0019056  |   0.2 |  0.00
Comm    | 497.47     | 777.45     | 941.86     | 400.1 | 21.27
Output  | 2.3591     | 2.366      | 2.3751     |   0.2 |  0.06
Modify  | 63.961     | 64.655     | 65.22      |   5.0 |  1.77
Other   |            | 6.094      |            |       |  0.17

Nlocal:          33.75 ave          44 max          26 min
Histogram: 3 3 5 3 1 7 7 1 1 1
Nghost:        1035.84 ave        1049 max        1023 min
Histogram: 2 1 4 4 7 4 3 2 3 2
Neighs:              0 ave           0 max           0 min
Histogram: 32 0 0 0 0 0 0 0 0 0
FullNghs:      5355.75 ave        7013 max        4072 min
Histogram: 4 2 4 4 2 7 6 1 1 1

Total # of neighbors = 171384
Ave neighs/atom = 158.68889
Neighbor list builds = 4
Dangerous builds = 0

Total wall time: 1:04:27
