
units		metal
atom_style	atomic

read_data ${STRUCTURE}.data
read_data BaTiO3-sc333.data
Reading data file ...
  orthogonal box = (0 0 0) to (11.898253 11.898253 12.912076)
  2 by 4 by 4 MPI processor grid
  reading atoms ...
  135 atoms
  read_data CPU = 0.009 seconds
replicate $L $L $L
replicate 2 $L $L
replicate 2 2 $L
replicate 2 2 2
Replication is creating a 2x2x2 = 8 times larger system...
  orthogonal box = (0 0 0) to (23.796507 23.796507 25.824152)
  2 by 4 by 4 MPI processor grid
  1080 atoms
  replicate CPU = 0.004 seconds

pair_style allegro
pair_coeff	* * ${MODEL}.pth Ba Ti O
pair_coeff	* * BaTiO3-E0.pth Ba Ti O
mass 1 137.3
mass 2 47.9
mass 3 15.9994

timestep 0.002
compute polarization all allegro polarization 3
compute allegro will evaluate the quantity polarization of length 3 (src/compute_allegro.cpp:53)
compute polarizability all allegro polarizability 9
compute allegro will evaluate the quantity polarizability of length 9 (src/compute_allegro.cpp:53)

thermo_style custom pe fmax fnorm spcpu cpuremain

variable efield equal 1e-2*36.36
fix born all addbornforce 0.0 0.0 ${efield}
fix born all addbornforce 0.0 0.0 0.3636

thermo 10
min_style fire
#minimize 0.0 1e-6 100 100
velocity all create ${TEMP} ${SEED} dist gaussian rot yes mom yes
velocity all create 280 ${SEED} dist gaussian rot yes mom yes
velocity all create 280 19758 dist gaussian rot yes mom yes
fix nvt all nvt temp ${TEMP} ${TEMP} $(100*dt)
fix nvt all nvt temp 280 ${TEMP} $(100*dt)
fix nvt all nvt temp 280 280 $(100*dt)
fix nvt all nvt temp 280 280 0.2000000000000000111
run 5000
Neighbor list info ...
  update: every = 1 steps, delay = 0 steps, check = yes
  max neighbors/atom: 2000, page size: 100000
  master list distance cutoff = 8
  ghost atom cutoff = 8
  binsize = 8, bins = 3 3 4
  1 neighbor lists, perpetual/occasional/extra = 1 0 0
  (1) pair allegro/kk, perpetual
      attributes: full, newton on, kokkos_device
      pair build: full/bin/kk/device
      stencil: full/bin/3d
      bin: kk/device
Per MPI rank memory allocation (min/avg/max) = 3.516 | 3.516 | 3.516 Mbytes
    PotEng          Fmax          Fnorm          S/CPU         CPULeft    
-807708.29      1.5951141      37.041343      0              0            
-807648.76      3.4885225      44.354143      2.3727976      2103.0038    
-807637.55      2.4285392      34.593101      25.936117      1145.3998    
-807607.63      3.1810898      36.114416      25.914125      825.99562    
-807604.08      4.0720377      49.707001      25.880653      666.16248    
-807573.68      3.4857484      37.950603      25.835006      570.17568    
-807606.17      2.7542914      37.094848      25.925663      505.94396    
-807651.24      3.6806843      31.732097      25.912657      459.96757    
-807686.84      2.5988702      32.990076      25.888542      425.41094    
-807671.3       2.8412595      33.254171      25.897149      398.44071    
-807654.45      3.149003       34.269306      25.941488      376.75496    
-807661.72      2.4823456      27.06683       25.922387      358.9546     
-807628.27      2.9236826      30.812438      25.915936      344.06061    
-807586.9       3.384404       40.191014      25.869776      331.42441    
-807571.49      3.2437618      38.133741      25.944069      320.49974    
-807637.49      3.1519507      32.839918      25.920097      310.99182    
-807658         3.2106471      29.982766      25.889048      302.63817    
-807668.5       2.656011       33.371078      25.893233      295.22008    
-807649.69      5.0115265      44.613718      25.929663      288.56878    
-807683.56      2.8047292      35.292954      25.897078      282.58931    
-807642.99      3.7857645      38.450854      25.878669      277.17576    
-807617.66      2.8887938      38.330391      25.914496      272.2288     
-807564.14      4.1639352      44.414773      25.929706      267.69157    
-807610.15      4.0898659      47.691159      25.891529      263.52714    
-807619.32      3.8227729      37.142801      25.864631      259.68552    
-807646.96      3.0125849      33.838823      25.916241      256.10568    
-807648.26      4.2925341      43.135838      25.928762      252.76812    
-807685.4       2.7968348      36.05834       25.89255       249.65868    
-807667.35      3.2053215      32.723184      25.852074      246.75394    
-807640.02      2.6561017      30.371491      25.943467      244.00073    
-807610.88      3.1918214      31.689628      25.931716      241.4081     
-807607.55      3.6859368      40.993051      25.906562      238.96352    
-807603.41      3.6034876      34.711999      25.838624      236.66245    
-807613.72      3.2038786      32.318572      25.916442      234.46093    
-807648.04      3.1935775      29.726021      25.93149       232.36315    
-807677         3.8211101      31.844902      25.93615       230.36229    
-807680.59      2.9428905      31.897277      25.862197      228.46537    
-807646.05      4.7246627      38.520977      25.92825       226.63776    
-807651.17      3.1099363      29.974219      25.923133      224.88697    
-807622.2       4.2026546      33.581508      25.921636      223.20644    
-807604.44      3.7432558      42.292414      25.862991      221.60072    
-807574.68      3.8081016      40.945348      25.93833       220.04189    
-807632.64      3.2027482      33.478135      25.957045      218.5359     
-807654.96      3.8522262      34.806819      25.916747      217.0884     
-807677         2.8609661      34.019384      25.876252      215.69541    
-807646.4       4.7148405      45.415163      25.896807      214.34406    
-807670.81      2.8650358      33.78479       25.910571      213.03266    
-807647.25      3.3300796      34.872106      25.883628      211.7645     
-807622.83      3.2674104      37.072793      25.900358      210.53073    
-807569.5       3.8864766      42.221641      25.925335      209.32814    
-807608.19      4.0964035      41.341712      25.929804      208.15763    
-807632.67      4.4076589      33.827272      25.877458      207.02476    
-807660.45      3.0016792      31.046013      25.910772      205.91633    
-807649.67      5.26987        39.459658      25.930534      204.83267    
-807676.73      2.4970426      32.476423      25.914172      203.77688    
-807669.95      2.7371671      31.400146      25.847225      202.75354    
-807643.21      3.3068237      29.38464       25.915443      201.74485    
-807602.7       3.2363333      34.205652      25.922538      200.75719    
-807599.1       3.5256963      37.891516      25.93639       199.78872    
-807614.85      3.9050481      37.915811      25.877337      198.84659    
-807626.85      4.5456782      32.194907      25.921139      197.91819    
-807645.36      3.23084        32.292959      25.948357      197.00466    
-807668.36      3.4105516      33.324041      25.934097      196.10968    
-807679.15      3.2816855      34.946613      25.848312      195.23974    
-807648.67      4.5654532      37.527763      25.870403      194.38264    
-807635.33      2.9596117      32.553278      25.93865       193.53322    
-807614.47      3.8005066      34.419487      25.939975      192.69772    
-807606.54      4.3162545      44.253452      25.90077       191.87943    
-807589.14      3.8429351      38.420571      25.914787      191.07253    
-807625.81      2.982562       34.200396      25.940769      190.27541    
-807652.89      4.1570974      36.247163      25.915758      189.49234    
-807678.36      2.8574454      36.0404        25.871955      188.72441    
-807652.09      4.303007       41.487801      25.863197      187.96785    
-807654.91      4.1186529      34.901273      25.899505      187.21825    
-807643.87      4.5610224      34.337025      25.923119      186.47645    
-807622.46      4.1066362      37.354947      25.88938       185.747      
-807579.99      3.812936       38.949986      25.923547      185.02373    
-807599.27      3.5390662      36.972958      25.939848      184.3079     
-807638.51      3.175678       29.599329      25.926734      183.6016     
-807665.95      2.5352092      29.513744      25.913225      182.90449    
-807657.53      4.3635294      34.285349      25.934172      182.21351    
-807662.25      3.1241888      33.930494      25.822664      181.5387     
-807668.71      3.5455379      31.10877       25.889835      180.86577    
-807641.85      3.1487324      31.739436      25.920989      180.19742    
-807603.32      2.9050107      35.982216      25.969088      179.53226    
-807586.6       4.0314811      39.226733      25.945945      178.87536    
-807616.63      3.8291534      39.185461      25.902602      178.22789    
-807633.63      4.4968593      33.396596      25.924988      177.58484    
-807648.73      3.3584446      33.37119       25.9301        176.94728    
-807657.42      3.8940995      36.923384      25.921106      176.316      
-807676.93      2.8476417      34.122659      25.871473      175.69355    
-807653.34      3.9056327      34.628524      25.895304      175.07468    
-807631.4       2.7252784      31.951947      25.944497      174.45763    
-807605.2       3.280059       35.113477      25.972145      173.84376    
-807608.88      3.8878502      42.564013      25.920261      173.23809    
-807602.92      3.4076526      37.005338      25.896737      172.63854    
-807625.36      2.9115457      34.029905      25.924424      172.0417     
-807650.29      4.2207118      35.418308      25.932275      171.44873    
-807674.34      2.6741104      34.751687      25.886586      170.86279    
-807661.73      4.0687203      35.450462      25.872647      170.28172    
-807648.45      3.2907937      33.402895      25.917526      169.70186    
-807638.34      3.4814793      30.487049      25.936409      169.12474    
-807621.49      3.7310106      35.255849      25.920384      168.5523     
-807594.74      3.5953454      36.461716      25.881369      167.98573    
-807598.32      4.1976984      36.261292      25.932881      167.4197     
-807637.46      3.3641459      30.854804      25.903057      166.85878    
-807662.68      3.5511438      32.157442      25.915195      166.30048    
-807664.61      2.9953789      33.101021      25.918999      165.7452     
-807653.93      3.7778172      35.944742      25.938025      165.19203    
-807661.18      3.0099759      30.844283      25.920872      164.64285    
-807641.08      4.1821171      31.43793       25.91444       164.09698    
-807611.1       3.0779131      34.145916      25.921285      163.55364    
-807583.97      3.2491373      37.668404      25.945404      163.01187    
-807616.98      3.5460872      35.431689      25.891127      162.47563    
-807640.83      2.9668565      31.570461      25.902396      161.94146    
-807654.91      3.5257156      32.715543      25.860063      161.41198    
-807652.58      4.4869982      37.70161       25.917423      160.88212    
-807669.96      3.6972507      34.134315      25.898395      160.35566    
-807656.46      3.9097631      33.420157      25.89204       159.83188    
-807631.32      4.0951763      32.809634      25.937235      159.30826    
-807598.07      3.4351555      35.847484      25.923227      158.7876     
-807606.22      4.2531803      39.178899      25.848998      158.27264    
-807616.41      3.1293038      33.673768      25.917231      157.75662    
-807635.03      2.7981989      29.635067      25.898737      157.24356    
-807647.32      3.8813809      33.383357      25.925246      156.73136    
-807671.11      2.8632671      32.086787      25.868295      156.22373    
-807665.03      2.9723511      32.729379      25.86908       155.71798    
-807646.88      3.6156546      32.020501      25.918005      155.21196    
-807626.1       3.2880238      32.766743      25.940031      154.70688    
-807615.97      3.6596446      36.47235       25.933848      154.20391    
-807602.66      3.6447974      38.73522       25.889175      153.70464    
-807606.64      3.3069374      35.942089      25.88324       153.20734    
-807633.04      3.4236814      32.115543      25.938551      152.70943    
-807660.61      2.9015771      32.422651      25.879947      152.21562    
-807667.23      3.0694993      33.309174      25.859521      151.72424    
-807652.21      2.9422138      34.48076       25.869664      151.23401    
-807649.26      2.8764598      30.814672      25.915331      150.74348    
-807637.15      3.1404516      30.685467      25.895664      150.25525    
-807613.65      3.2710258      35.141129      25.852452      149.77019    
-807590.36      3.2953664      37.074762      25.93795       149.28324    
-807615.55      3.8120924      34.918062      25.979982      148.79613    
-807644.28      2.8362905      32.578102      25.937005      148.31209    
-807658.77      3.7090162      33.398115      25.91315       147.83034    
-807653.22      3.5211693      36.116852      25.927828      147.34938    
-807659         4.9886105      33.87911       25.875485      146.87167    
-807653.5       3.3975943      31.716624      25.909835      146.39397    
-807632.05      2.8908652      31.699441      25.926072      145.91694    
-807596.53      2.9048033      35.753303      25.951762      145.44023    
-807602.53      3.4114255      36.091883      25.923809      144.96575    
-807623.75      2.9453296      33.461383      25.87455       144.49419    
-807643.81      3.6298225      31.600442      25.89226       144.02315    
-807647.3       3.8055896      34.742536      25.933891      143.55179    
-807661.57      3.6245556      34.312627      25.951456      143.08097    
-807663         2.9748346      33.940334      25.900105      142.613      
-807645.97      3.3982807      32.708428      25.864174      142.14729    
-807618.05      3.7727516      34.241815      25.949053      141.67979    
-807606.87      3.6531149      36.40009       25.917629      141.21438    
-807608.95      3.8571474      37.088194      25.874208      140.75139    
-807620.01      3.1269773      33.709153      25.875186      140.28934    
-807634         3.4112274      32.311156      25.938335      139.82622    
-807657.19      2.9782953      32.163725      25.883091      139.36582    
-807666.78      2.6089329      33.031713      25.854898      138.90723    
-807656.16      3.7017872      33.260373      25.848555      138.44972    
-807638.18      3.4446863      33.172072      25.893674      137.99169    
-807626.94      3.9547111      32.778011      25.912995      137.53394    
-807612.22      3.2856702      37.596396      25.88997       137.07776    
-807601.09      3.6834831      36.360547      25.882618      136.62264    
-807615.44      3.4796882      33.714627      25.855384      136.16916    
-807643.33      3.7345383      31.375298      25.917343      135.71464    
-807663.67      2.997652       32.32191       25.875462      135.26216    
-807657.7       3.4390554      33.397573      25.906202      134.80957    
-807652.38      2.9048162      32.854831      25.929758      134.35708    
-807647.44      3.1285264      31.139833      25.922871      133.90556    
-807629.57      2.8348543      33.072806      25.916959      133.45497    
-807599.61      3.5705416      36.333792      25.902387      133.00553    
-807601.01      2.9120663      36.052219      25.915467      132.55646    
-807626.46      2.926736       33.219899      25.917554      132.10804    
-807650.47      2.7668134      31.32922       25.847122      131.66225    
-807651.82      3.6908341      33.597639      25.876135      131.21634    
-807658.39      3.4774597      33.376744      25.914505      130.77006    
-807659.2       2.9088768      32.139585      25.925917      130.32416    
-807647.38      2.7061099      30.350514      25.928936      129.87883    
-807616.63      2.6965652      32.327526      25.942485      129.43382    
-807603.08      3.0479962      34.525133      25.9329        128.9897     
-807610.68      3.3434746      34.894774      25.903479      128.54697    
-807630.84      2.9401524      31.420019      25.891558      128.10515    
-807641.87      3.0322109      30.962387      25.930368      127.66296    
-807654.26      3.1010247      32.15344       25.915476      127.22174    
-807664.26      2.8632834      32.14668       25.881748      126.78195    
-807657.19      2.6074168      30.936662      25.903507      126.34219    
-807636.35      3.0946153      30.56559       25.91353       125.90274    
-807618.52      3.074428       31.7304        25.948315      125.46303    
-807613.05      3.1766152      34.375821      25.901197      125.025      
-807611.35      2.8101771      33.288797      25.843274      124.58889    
-807623.75      3.1391878      31.103891      25.921421      124.15144    
-807644.27      3.0021155      30.934445      25.93103       123.7143     
-807662.46      3.2498926      32.104368      25.873292      123.27902    
-807659.21      3.5052425      32.901661      25.870052      122.84431    
-807646.34      3.1629187      32.814412      25.931134      122.4087     
-807637.1       2.9412867      31.619908      25.930838      121.9736     
-807625.29      2.7945717      33.405771      25.917475      121.53929    
-807604.93      3.3497017      35.711006      25.923739      121.10532    
-807606.21      2.9810558      34.37252       25.929636      120.67171    
-807629.26      2.9166012      31.573779      25.916128      120.23885    
-807652.72      3.4536744      30.312849      25.928363      119.8062     
-807654.72      3.7615408      32.650923      25.92434       119.37409    
-807652.83      2.8909771      32.447756      25.925837      118.9424     
-807651.1       3.158993       31.602245      25.916565      118.51134    
-807641.18      2.640709       31.041946      25.900255      118.08107    
-807617.5       3.6612798      33.088045      25.918887      117.65083    
-807601.13      2.9012485      36.196811      25.933341      117.22071    
-807612.49      3.0157216      34.608727      25.923857      116.79121    
-807637.1       2.6654139      31.441446      25.919807      116.36221    
-807645.49      3.4299619      32.48931       25.916433      115.93368    
-807651.38      3.2100889      32.850897      25.93554       115.50517    
-807657.34      2.9024777      32.825719      25.91322       115.07749    
-807654.43      2.6531577      31.088156      25.869431      114.65107    
-807632.87      2.8509054      31.075965      25.918066      114.22406    
-807612.22      2.9293723      33.456152      25.915246      113.79749    
-807607.26      3.0771538      34.788729      25.857083      113.3724     
-807617.63      3.5179148      34.426223      25.8668        112.94747    
-807632.03      3.0735276      31.979632      25.900058      112.52227    
-807644.26      3.0544455      32.753837      25.931707      112.09683    
-807658.55      2.769099       33.332205      25.906436      111.67221    
-807658.35      3.849078       33.724065      25.873643      111.24854    
-807645.3       3.0505992      32.334089      25.870197      110.82526    
-807627.98      3.1687933      32.92424       25.92864       110.40125    
-807619.18      3.3453826      33.745866      25.933891      109.97749    
-807607.9       3.3099757      35.665845      25.857634      109.55542    
-807614.05      3.043901       34.051551      25.894592      109.133      
-807631.91      3.5144088      31.609479      25.938185      108.71014    
-807653.68      2.7348765      31.619812      25.916724      108.28797    
-807658.59      3.8308663      32.541166      25.876509      107.8668     
-807652.36      3.8383046      33.679918      25.883212      107.44582    
-807643.04      2.9506038      32.752513      25.878515      107.02522    
-807634         2.7932049      31.671873      25.931026      106.60402    
-807615.61      3.019819       34.505324      25.931622      106.18312    
-807603.76      2.8554956      35.736941      25.935197      105.76245    
-807616.96      3.040997       33.03312       25.938039      105.34204    
-807639.99      2.7449153      31.77775       25.965792      104.92146    
-807654.01      2.2982589      31.112953      25.917442      104.50196    
-807652.74      3.5798741      32.818865      25.924875      104.08262    
-807653.84      2.3871033      32.367256      25.931467      103.66345    
-807647.29      2.9816732      31.866269      25.914768      103.24482    
-807630.81      3.1714832      32.554222      25.929809      102.82622    
-807607.98      2.8104273      34.953086      25.919319      102.40806    
-807607.7       3.4974624      36.358688      25.940459      101.98983    
-807621.69      2.9487356      34.112519      25.93491       101.57196    
-807641.85      3.1028306      31.101727      25.937461      101.1543     
-807646.34      3.306683       33.033192      25.918615      100.73719    
-807657.5       2.7936858      32.396436      25.930645      100.32015    
-807656.1       4.5762695      32.933084      25.910336      99.903653    
-807644.21      2.9038263      31.268993      25.909596      99.487414    
-807625.13      3.0339499      31.436294      25.942508      99.070936    
-807611.58      2.9755305      34.773963      25.910444      98.655164    
-807611.69      3.1966347      34.726045      25.928128      98.239373    
-807622.59      3.1655773      32.79998       25.921416      97.823913    
-807637.35      2.96368        31.305864      25.951988      97.408253    
-807651.86      3.82735        32.316381      25.971641      96.992556    
-807657.95      2.863834       33.12051       25.914397      96.577887    
-807652.81      4.360505       32.83301       25.926143      96.163277    
-807638.99      3.5697471      31.849549      25.935295      95.748765    
-807626.56      2.9364021      32.375677      25.928124      95.33457     
-807614.44      3.2223818      35.098453      25.91648       94.920749    
-807610.2       2.9480021      34.635457      25.916152      94.507144    
-807621.41      3.5855631      32.587465      25.93842       94.093453    
-807642.29      3.3220591      30.764574      25.927819      93.680114    
-807655.74      3.1490933      31.604035      25.93733       93.266858    
-807653.95      2.9913216      32.886211      25.937987      92.853801    
-807649.62      4.3083615      32.381207      25.917029      92.441216    
-807640.26      2.6982864      31.195287      25.927269      92.028699    
-807628.24      2.7887392      31.805291      25.927358      91.616379    
-807608.27      3.8751124      34.45599       25.969131      91.203735    
-807611.98      3.2865177      34.226373      25.991631      90.791016    
-807627.96      3.3986292      32.266974      25.953747      90.378964    
-807645.49      3.2424288      30.878684      25.915176      89.967576    
-807650.92      3.0429343      33.02146       25.919788      89.556317    
-807653.33      4.6105081      33.352375      25.940971      89.144988    
-807650.87      3.0163161      32.723788      25.923063      88.734057    
-807640.72      3.2271882      32.398885      25.906703      88.323501    
-807619.46      3.1411335      33.271488      25.904369      87.913146    
-807608.35      3.4878334      35.525037      25.93881       87.502566    
-807613.25      3.5739835      34.79666       25.912761      87.092463    
-807630.5       3.2847831      32.56262       25.926504      86.682373    
-807641.15      3.4910492      32.515625      25.931655      86.272398    
-807651.88      3.0012005      32.658663      25.867416      85.863315    
-807655.83      3.3277083      32.701346      25.902799      85.453995    
-807651.46      2.8913766      31.676295      25.879919      85.04509     
-807635.41      2.8450128      31.039857      25.917451      84.63593     
-807618.42      3.0267472      33.15039       25.950549      84.226572    
-807613.01      3.1465746      34.950594      25.962246      83.817253    
-807616.23      3.7038532      34.183537      25.922955      83.40852     
-807627.52      3.4364692      32.817981      25.924068      82.999932    
-807644.5       3.4092348      32.06672       25.960778      82.591116    
-807654.87      3.7403518      33.403828      25.956904      82.182499    
-807654.51      3.0270122      32.900146      25.924119      81.77438     
-807646.21      2.8641697      32.395487      25.937705      81.366273    
-807632.87      3.5398486      32.613876      25.975872      80.957931    
-807620.61      3.0845279      34.430961      25.95299       80.549975    
-807609.75      4.1339161      35.952747      25.910402      80.142597    
-807614.35      2.7774161      34.887476      25.93103       79.735157    
-807630.59      3.8693716      32.762568      25.917892      79.327991    
-807648.63      3.600942       32.198526      25.915195      78.920992    
-807652.27      3.978848       33.624437      25.927185      78.514017    
-807651.07      3.962869       33.671612      25.926814      78.107186    
-807645.05      3.4528955      32.543137      25.879166      77.700947    
-807634.91      3.370502       31.651803      25.892185      77.294715    
-807616.43      3.420186       34.416297      25.883208      76.888697    
-807608.03      3.2383596      35.693998      25.909882      76.482559    
-807617.31      3.2126756      34.30545       25.915598      76.076499    
-807635.7       3.4702812      33.133026      25.875153      75.670939    
-807647.13      4.233001       33.216922      25.870506      75.265544    
-807649.64      2.8103083      34.227657      25.928598      74.859748    
-807653.2       3.1782659      33.765553      25.940487      74.453975    
-807645.44      3.4038388      33.256316      25.925955      74.048459    
-807630.73      3.0433026      33.203986      25.921505      73.643107    
-807612.01      3.2493394      35.324224      25.916945      73.237919    
-807612.12      3.6659499      35.039246      25.935455      72.832694    
-807621.31      3.4436826      33.545703      25.914126      72.427775    
-807635.91      4.0122265      32.135635      25.934896      72.022799    
-807645.42      3.0731117      32.512561      25.944849      71.617861    
-807655         2.9153389      33.0561        25.953945      71.21297     
-807653.7       3.4857093      32.750234      25.942762      70.808292    
-807643.44      3.5471568      32.690652      25.966997      70.403535    
-807626.32      3.5361338      32.538318      25.949954      69.999038    
-807617.34      2.9956373      34.278962      25.925044      69.594858    
-807613.28      3.4532399      34.284245      25.919089      69.190838    
-807622.09      2.8788519      32.61128       25.909868      68.787002    
-807635.45      3.8791262      32.205516      25.902083      68.383336    
-807649.38      2.6614173      33.044333      25.939933      67.979484    
-807655.54      3.6688954      32.921236      25.910365      67.57597     
-807650.31      3.3686321      33.53579       25.904172      67.172609    
-807639.65      3.0048621      33.436344      25.948503      66.769019    
-807629.31      3.3846004      33.190333      25.925631      66.365709    
-807616.64      3.3203368      34.46244       25.872797      65.962896    
-807612.85      3.2341518      34.844035      25.870861      65.560194    
-807623.94      2.7864373      32.351307      25.935831      65.157116    
-807641.38      4.4084015      31.564591      25.962153      64.753952    
-807651.94      3.2339668      32.07427       25.918282      64.351208    
-807651.97      3.5623629      33.153171      25.917649      63.948568    
-807649.14      3.0220686      32.194804      25.894953      63.546186    
-807641.67      3.0852271      31.397854      25.931458      63.143645    
-807627.47      3.2157599      32.453723      25.922134      62.741267    
-807613.29      3.3853591      34.210684      25.937767      62.33888     
-807613.11      3.0346416      34.584411      25.905935      61.936806    
-807630.67      2.7861274      31.772933      25.938002      61.53461     
-807641.69      3.8075724      32.731412      25.931932      61.132551    
-807648.85      2.8521007      33.213873      25.950408      60.730465    
-807650.83      4.1240392      33.693607      25.931867      60.328596    
-807651.21      2.7415541      31.938382      25.942438      59.926752    
-807637.73      2.9034318      32.036681      25.923946      59.52512     
-807621.11      3.7716552      33.528825      25.925317      59.123569    
-807612.7       2.8977766      34.255512      25.924368      58.722114    
-807616.65      3.0767589      34.653353      25.91293       58.32082     
-807630.11      2.6087952      33.148795      25.912587      57.919614    
-807638.83      3.8169853      32.89077       25.931439      57.518379    
-807649.83      3.5298932      33.157034      25.880406      57.11754     
-807654.08      3.179971       32.434724      25.887972      56.716737    
-807648.04      2.6995036      31.809643      25.938199      56.315718    
-807632.43      3.4032155      32.061976      25.921121      55.914885    
-807621.14      3.0670281      33.044696      25.920802      55.514138    
-807613.02      3.5434516      34.932984      25.926101      55.113443    
-807617.37      2.8260568      33.998648      25.92327       54.712847    
-807626.88      3.4987458      33.708468      25.928725      54.312302    
-807644.53      2.8895354      31.414453      25.922707      53.911872    
-807651.15      3.4633546      33.228331      25.921135      53.511531    
-807651.41      3.6048283      33.072214      25.882005      53.111484    
-807645.05      3.9218189      32.259667      25.900054      52.711413    
-807634.17      2.9403158      32.17554       25.890668      52.311469    
-807621.01      2.6982283      33.767335      25.923481      51.911425    
-807612.05      3.2011741      34.281254      25.923777      51.511457    
-807616.04      2.9903031      33.983747      25.915101      51.11161     
-807633.83      2.7694382      32.194659      25.917921      50.711824    
-807647.56      3.0208266      32.10208       25.932562      50.312039    
-807648.84      3.3916315      34.159767      25.895098      49.912518    
-807651.18      3.812543       33.186627      25.899145      49.513047    
-807644.48      3.6908537      33.170405      25.923636      49.113528    
-807634.28      3.0796475      32.725327      25.940351      48.714       
-807616.56      3.177281       34.078444      25.976919      48.314371    
-807612.78      2.8780682      34.425062      25.904801      47.915162    
-807621.38      2.6873399      33.823663      25.923026      47.515937    
-807637.5       2.5509197      31.500649      25.921735      47.116788    
-807644.46      3.65326        32.138383      25.923125      46.717703    
-807651.43      3.9016898      32.886512      25.886558      46.318854    
-807652.15      3.6807889      32.582695      25.902439      45.919999    
-807644.49      3.3556266      31.364127      25.925124      45.521109    
-807629.71      3.5851422      31.442871      25.952223      45.122169    
-807616.43      3.0261756      33.459456      25.935385      44.723372    
-807616.13      2.9451746      34.541913      25.928016      44.324675    
-807622.42      2.8864877      33.208729      25.910951      43.926117    
-807635.36      3.2509309      32.851909      25.935573      43.52752     
-807647.21      3.1807645      32.808406      25.953606      43.128916    
-807653.53      2.6610189      33.105609      25.924326      42.730499    
-807649.56      3.4428424      33.355469      25.869866      42.332368    
-807641.06      3.1096752      31.862023      25.893332      41.934202    
-807627.56      3.1339494      33.056861      25.911542      41.536024    
-807619.41      3.4530257      34.221963      25.879825      41.138032    
-807612.3       2.6826181      35.470959      25.856649      40.740188    
-807624.52      2.9272811      33.163051      25.934614      40.342102    
-807636.89      3.2107895      32.076963      25.933774      39.944081    
-807649.38      3.6826186      32.810337      25.926819      39.546149    
-807650.41      4.1687592      33.947767      25.926453      39.14828     
-807647.77      3.1175953      33.472181      25.921036      38.75049     
-807640.71      3.3834048      32.061598      25.93012       38.352727    
-807628.59      3.26898        32.965879      25.932642      37.955016    
-807616.13      3.5284446      34.489731      25.906413      37.557455    
-807614.55      3.4131825      34.832878      25.945259      37.159818    
-807625.51      3.2960992      32.980863      25.975062      36.76214     
-807638.9       3.0616355      31.642104      25.948823      36.364612    
-807647.85      3.6088722      33.303502      25.91013       35.967271    
-807649.78      2.9893246      33.250642      25.939628      35.569889    
-807648.58      3.4588556      31.82836       25.921876      35.172623    
-807639.15      3.511386       32.167407      25.903465      34.775471    
-807625.74      4.5136273      33.123861      25.926739      34.378299    
-807613.77      3.8316397      34.639302      25.909146      33.981238    
-807617.58      3.1667899      34.510272      25.896662      33.584268    
-807626.91      3.5232202      33.165957      25.913005      33.1873      
-807639.42      3.5420431      32.949648      25.93679       32.790316    
-807647.17      3.18238        32.940979      25.923514      32.393425    
-807651.99      3.4127804      32.093065      25.928758      31.996571    
-807647.06      2.9232026      31.835662      25.928514      31.599772    
-807637.28      2.6943364      31.719568      25.930026      31.203022    
-807622.61      3.3320687      32.62395       25.929274      30.806326    
-807616.73      3.3779802      33.807439      25.888946      30.409792    
-807618.94      3.186449       33.455689      25.888651      30.013307    
-807629.64      3.0676275      32.384666      25.928021      29.616766    
-807639.45      3.3418673      32.270624      25.935554      29.220257    
-807649.85      2.9908412      32.394237      25.95283       28.823755    
-807649.94      3.2136239      32.996066      25.928763      28.427366    
-807645.29      2.8658808      31.825595      25.910763      28.031071    
-807633.43      3.182351       33.300839      25.879849      27.634899    
-807623.6       2.6350556      32.735044      25.904627      27.238714    
-807616.27      2.8212105      34.12747       25.900546      26.842585    
-807618.56      3.343333       33.773876      25.941677      26.446408    
-807631.57      2.5205256      31.556816      25.928381      26.05031     
-807641.75      4.0172267      32.783472      25.891576      25.654341    
-807650.35      2.4715086      31.968091      25.917319      25.258362    
-807646.92      2.9912017      33.078747      25.911194      24.862441    
-807644.84      3.1552163      31.523205      25.914988      24.466559    
-807634.03      2.9520761      31.842111      25.883198      24.070788    
-807623.41      2.8188723      32.621846      25.905611      23.675014    
-807615.56      3.4293473      33.723737      25.91458       23.279266    
-807623.63      3.2567408      32.23895       25.913778      22.883565    
-807632.37      3.390792       32.803456      25.95545       22.487828    
-807642.51      3.2915067      32.487852      25.97189       22.092108    
-807647.63      2.9457106      32.790075      25.910955      21.696547    
-807649.84      3.7094104      33.143262      25.928705      21.300998    
-807643.52      2.6185397      32.261411      25.949339      20.905456    
-807631.25      3.3789351      33.349539      25.92318       20.510005    
-807620.99      3.8041189      33.388421      25.923161      20.114598    
-807617.95      3.8376564      33.782737      25.921538      19.719236    
-807621.92      3.0916909      33.082485      25.927104      19.323907    
-807633.19      3.2656992      32.428789      25.921054      18.92863     
-807643.77      2.9723607      32.310622      25.853282      18.533501    
-807650.45      2.8531993      32.241714      25.863561      18.138392    
-807648.4       2.9313597      32.339584      25.876167      17.743302    
-807641.34      3.350321       32.471511      25.904814      17.348209    
-807629.52      3.0192626      32.784071      25.90945       16.953149    
-807620.85      3.3139552      33.237524      25.913891      16.558122    
-807618.54      2.9468653      33.433314      25.892414      16.163164    
-807624.05      3.2911402      33.094008      25.885462      15.768253    
-807635.95      2.754748       32.314302      25.934266      15.373318    
-807646.15      3.4999028      32.783383      25.958499      14.978394    
-807648.82      2.7933854      32.623944      25.925865      14.58355     
-807647.08      3.145893       32.470325      25.920655      14.188752    
-807640.82      3.0649306      31.262904      25.940755      13.793969    
-807630.04      2.4266718      31.778782      25.912985      13.399257    
-807621         2.8488998      32.853881      25.957111      13.004536    
-807618.53      3.114823       33.505377      25.941549      12.609872    
-807626.8       2.9606442      32.76281       25.975043      12.215214    
-807637         2.7190841      31.509582      25.963828      11.820607    
-807644.81      3.2395663      32.031563      25.931734      11.42607     
-807648.49      2.7166797      32.040735      25.944177      11.03156     
-807645.64      2.8684759      32.020976      25.956316      10.637078    
-807639.29      2.2625484      31.537381      25.934299      10.242653    
-807629.08      3.1135621      31.857299      25.92755       9.8482698    
-807619.77      2.8437032      33.114367      25.955845      9.4539023    
-807620.04      3.1292885      33.323152      25.969102      9.0595635    
-807627.44      2.8924843      32.427127      25.976174      8.6652586    
-807636.52      3.2422279      32.057352      25.967505      8.2709983    
-807645.6       2.7823374      31.500253      25.906478      7.876814     
-807647.58      3.5130047      32.754576      25.900329      7.4826674    
-807645.17      2.8568468      32.364359      25.925992      7.0885399    
-807637.8       2.8287836      31.777094      25.937005      6.6944414    
-807626.26      3.4073924      32.382735      25.949067      6.3003724    
-807617.6       2.7240285      33.660655      25.975273      5.9063272    
-807620.51      2.843293       33.467945      25.94263       5.5123333    
-807625.49      2.5686179      32.276675      25.966738      5.1183648    
-807636.57      3.1092958      32.427005      25.925827      4.7244476    
-807643.77      2.9544153      32.460346      25.919858      4.330566     
-807649.17      3.6452023      32.468982      25.929635      3.9367143    
-807643.67      3.0486143      32.564564      25.929447      3.542896     
-807636.11      2.9311687      32.219718      25.9332        3.1491101    
-807626.02      3.0173682      33.451046      25.949421      2.7553538    
-807621.46      2.7087633      33.313511      25.925586      2.3616359    
-807617.7       3.31045        33.519107      25.909316      1.9679527    
-807628.09      3.007505       32.147022      25.925577      1.5742987    
-807636.36      3.2185306      32.154022      25.941571      1.1806751    
-807645.97      2.8297432      31.93427       25.953472      0.78708362   
-807645.25      3.1823057      32.978375      25.922498      0.39352622   
-807644.15      2.6812638      31.671311      25.913387      0            
Loop time of 196.755 on 32 procs for 5000 steps with 1080 atoms

Performance: 4.391 ns/day, 5.465 hours/ns, 25.412 timesteps/s, 27.445 katom-step/s
69.3% CPU use with 32 MPI tasks x 1 OpenMP threads

MPI task timing breakdown:
Section |  min time  |  avg time  |  max time  |%varavg| %total
---------------------------------------------------------------
Pair    | 101.41     | 144.01     | 192.32     | 308.5 | 73.19
Neigh   | 0          | 0          | 0          |   0.0 |  0.00
Comm    | 2.1548     | 50.473     | 93.075     | 521.2 | 25.65
Output  | 0.02592    | 0.026763   | 0.027583   |   0.2 |  0.01
Modify  | 1.9224     | 1.936      | 1.9496     |   0.5 |  0.98
Other   |            | 0.313      |            |       |  0.16

Nlocal:          33.75 ave          48 max          21 min
Histogram: 8 8 0 0 0 0 0 8 0 8
Nghost:        1106.25 ave        1119 max        1092 min
Histogram: 8 0 8 0 0 0 0 0 8 8
Neighs:              0 ave           0 max           0 min
Histogram: 32 0 0 0 0 0 0 0 0 0
FullNghs:       5494.5 ave        7896 max        3378 min
Histogram: 8 8 0 0 0 0 0 8 0 8

Total # of neighbors = 175824
Ave neighs/atom = 162.8
Neighbor list builds = 0
Dangerous builds = 0

reset_timestep 0


variable interval equal 1000
thermo 10

variable nintervals equal $(v_PERIOD/v_interval)
variable nintervals equal 100
variable efield equal 1e-2*36.36*cos((step/${PERIOD})*2*3.14)
variable efield equal 1e-2*36.36*cos((step/100000)*2*3.14)
fix born all addbornforce 0.0 0.0 v_efield

variable Px equal f_born[1]+c_polarization[1]
variable Py equal f_born[2]+c_polarization[2]
variable Pz equal (f_born[3]+c_polarization[3])/vol
variable pe equal pe

fix aveP all ave/time 1 $(v_interval/2) ${interval} v_efield v_Pz v_pe f_born file Pz.${MODEL}.${STRUCTURE}.${TEMP}.$L.${ITER}
fix aveP all ave/time 1 500 ${interval} v_efield v_Pz v_pe f_born file Pz.${MODEL}.${STRUCTURE}.${TEMP}.$L.${ITER}
fix aveP all ave/time 1 500 1000 v_efield v_Pz v_pe f_born file Pz.${MODEL}.${STRUCTURE}.${TEMP}.$L.${ITER}
fix aveP all ave/time 1 500 1000 v_efield v_Pz v_pe f_born file Pz.BaTiO3-E0.${STRUCTURE}.${TEMP}.$L.${ITER}
fix aveP all ave/time 1 500 1000 v_efield v_Pz v_pe f_born file Pz.BaTiO3-E0.BaTiO3-sc333.${TEMP}.$L.${ITER}
fix aveP all ave/time 1 500 1000 v_efield v_Pz v_pe f_born file Pz.BaTiO3-E0.BaTiO3-sc333.280.$L.${ITER}
fix aveP all ave/time 1 500 1000 v_efield v_Pz v_pe f_born file Pz.BaTiO3-E0.BaTiO3-sc333.280.2.${ITER}
fix aveP all ave/time 1 500 1000 v_efield v_Pz v_pe f_born file Pz.BaTiO3-E0.BaTiO3-sc333.280.2.7

thermo_style custom step time temp press pe f_born v_efield v_Pz spcpu cpuremain

# dump 4a all custom 1000 dump.hyst.${MODEL}.${STRUCTURE}.${TEMP}.$L.${ITER}.bin id type xu yu zu fx fy fz
# dump_modify 4a sort id

fix nvt all nvt temp ${TEMP} ${TEMP} $(100*dt)
fix nvt all nvt temp 280 ${TEMP} $(100*dt)
fix nvt all nvt temp 280 280 $(100*dt)
fix nvt all nvt temp 280 280 0.2000000000000000111

run $(v_PERIOD)
run 100000
WARNING: non-constant efield is experimental, strongly distrust scalar/vector output (src/fix_addbornforce.cpp:193)
Per MPI rank memory allocation (min/avg/max) = 3.516 | 3.516 | 3.516 Mbytes
   Step          Time           Temp          Press          PotEng         f_born        v_efield         v_Pz          S/CPU         CPULeft    
         0   0              293.36995      124535.11     -807644.15     -293.83205      0.3636         0.055261518    0              0            
        10   0.02           294.26455      133780.01     -807634.68     -303.45458      0.36359993     0.057071256    27.898411      3584.094     
        20   0.04           297.53653      140072.46     -807625.79     -312.94878      0.36359971     0.058856882    27.871567      3585.4522    
        30   0.06           287.542        144941.29     -807618.88     -318.60101      0.36359935     0.059919966    27.941017      3582.6952    
        40   0.08           274.11014      143248.53     -807618.96     -316.75824      0.36359885     0.059573475    27.94081       3581.1422    
        50   0.1            291.09049      135476.92     -807629.93     -308.24711      0.36359821     0.05797287     27.887826      3581.4274    
        60   0.12           281.93991      128352.74     -807639.31     -297.66155      0.36359742     0.055982136    27.890341      3581.4441    
        70   0.14           282.20973      121159.64     -807646.55     -290.59015      0.36359649     0.054652336    27.841434      3582.2527    
        80   0.16           267.773        122821.77     -807645.63     -289.57395      0.36359541     0.054461376    27.875952      3582.214     
        90   0.18           284.78982      124958.22     -807644.38     -293.47556      0.36359419     0.055195353    27.905632      3581.6809    
       100   0.2            285.10915      135136.41     -807632.51     -305.56507      0.36359283     0.057469301    27.927011      3580.908     
       110   0.22           288.0346       139441.47     -807625.41     -313.42711      0.36359132     0.058948201    27.912704      3580.3775    
       120   0.24           278.18787      146033.04     -807618.23     -319.24881      0.36358968     0.060043399    27.929065      3579.701     
       130   0.26           277.89431      140186.51     -807624.63     -313.09643      0.36358788     0.058886566    27.91297       3579.2321    
       140   0.28           290.90007      136838.98     -807631.37     -308.26411      0.36358595     0.057978022    27.89522       3578.9417    
       150   0.3            285.59118      125549.73     -807642.39     -296.75665      0.36358387     0.05581403     27.887082      3578.7118    
       160   0.32           268.0978       124206.77     -807644.77     -291.93206      0.36358165     0.054906955    27.910467      3578.2787    
       170   0.34           260.05066      121029.52     -807647.71     -288.1319       0.36357928     0.054192569    27.947562      3577.5745    
       180   0.36           271.03562      128993.56     -807640.42     -297.0782       0.36357677     0.055875597    27.916236      3577.1317    
       190   0.38           286.36579      133011.8      -807633.24     -306.63167      0.36357412     0.05767287     27.917907      3576.6866    
       200   0.4            279.88173      142406.2      -807623.51     -315.45451      0.36357132     0.059332772    27.919284      3576.2411    
       210   0.42           270.37745      142447.3      -807622.15     -315.6131       0.36356838     0.059363082    27.871236      3576.098     
       220   0.44           279.93195      141789.52     -807624.49     -314.55008      0.3635653      0.05916364     27.816046      3576.2576    
       230   0.46           282.02456      133147.65     -807633.35     -306.13226      0.36356207     0.057580846    27.800729      3576.4581    
       240   0.48           273.08925      127891.18     -807640.2      -297.98277      0.3635587      0.056048516    27.811415      3576.5547    
       250   0.5            266.97144      122477.12     -807647.88     -289.38254      0.36355519     0.054431399    27.857788      3576.3758    
       260   0.52           266.78425      123522.46     -807646.72     -290.48528      0.36355153     0.054639367    27.903647      3575.9567    
       270   0.54           272.21015      129312.49     -807638.69     -299.30437      0.36354773     0.056298799    27.885273      3575.6292    
       280   0.56           286.25753      134185.57     -807633.09     -306.92876      0.36354379     0.057733564    27.884469      3575.3032    
       290   0.58           284.55601      142287.52     -807624.81     -314.81692      0.3635397      0.059218       27.883296      3574.9803    
       300   0.6            267.73294      142323.55     -807622.44     -314.89694      0.36353547     0.059233741    27.865367      3574.7316    
       310   0.62           275.56813      142318.8      -807623.55     -314.73286      0.3635311      0.05920359     27.880044      3574.4151    
       320   0.64           282.83747      131550.83     -807635.55     -303.80049      0.36352658     0.057147839    27.830892      3574.2933    
       330   0.66           286.9684       127476.93     -807643.34     -296.33346      0.36352192     0.055743933    27.885664      3573.9439    
       340   0.68           262.41478      121048.8      -807646.71     -289.57824      0.36351712     0.054473913    27.897275      3573.5503    
       350   0.7            262.32461      126080.75     -807642.4      -293.73598      0.36351217     0.055256796    27.913357      3573.0997    
       360   0.72           287.90075      126467.17     -807641.1      -298.69867      0.36350708     0.05619115     27.921293      3572.626     
       370   0.74           279.3408       138315.69     -807628.75     -309.70361      0.36350185     0.058262238    27.970967      3571.9877    
       380   0.76           271.15449      140185.53     -807623.43     -313.92705      0.36349647     0.059057636    27.904887      3571.586     
       390   0.78           273.14927      144244.11     -807620.04     -317.39752      0.36349095     0.059711425    27.869565      3571.3023    
       400   0.8            285.68011      136918.17     -807628.65     -310.58479      0.36348529     0.05843067     27.883367      3570.9707    
       410   0.82           277.41469      133227.68     -807633.33     -304.53682      0.36347948     0.057293773    27.860222      3570.7102    
       420   0.84           283.1954       123616.32     -807645.43     -293.23659      0.36347353     0.055168717    27.833733      3570.5259    
       430   0.86           264.95882      124237.34     -807644.69     -291.24722      0.36346744     0.054795362    27.875425      3570.2092    
       440   0.88           274.26385      123776.51     -807644.7      -292.57297      0.3634612      0.055045734    27.912279      3569.7833    
       450   0.9            275.64983      131158.11     -807635.99     -301.33433      0.36345482     0.056695123    27.896019      3569.4066    
       460   0.92           291.91374      136681.3      -807630.23     -309.33758      0.3634483      0.058201954    27.89503       3569.0336    
       470   0.94           275.60476      142975.74     -807621.42     -315.80214      0.36344163     0.059419353    27.899194      3568.6497    
       480   0.96           275.97557      143247.42     -807620.97     -316.2005       0.36343482     0.05949542     27.894992      3568.2781    
       490   0.98           293.65441      137489.54     -807629.22     -310.28573      0.36342786     0.058383631    27.871855      3567.9674    
       500   1              290.20651      130860.91     -807637.1      -301.81415      0.36342077     0.056790719    27.873482      3567.6508    
       510   1.02           280.82845      124148.57     -807644.19     -9386.6911      0.36341353     0.055196174    27.795839      3567.5279    
       520   1.04           262.9013       124447.77     -807644.22     -9300.0363      0.36340614     0.054687733    27.793929      3567.4006    
       530   1.06           277.87031      123952.58     -807644.3      -9363.9986      0.36339862     0.055064996    27.799536      3567.2511    
       540   1.08           283.90671      132279.09     -807635.08     -9682.405       0.36339095     0.056938587    27.824662      3567.0337    
       550   1.1            287.29697      137683.97     -807628.54     -9909.827       0.36338313     0.058277223    27.7818        3566.9117    
       560   1.12           274.75138      144841.21     -807619.81     -10127.074      0.36337518     0.0595561      27.787041      3566.769     
       570   1.14           281.1051       140335.92     -807623.37     -10043.316      0.36336707     0.059064846    27.833922      3566.5128    
       580   1.16           282.09482      138755.4      -807626.83     -9929.5079      0.36335883     0.058396866    27.861799      3566.1916    
       590   1.18           289.12324      128653.81     -807638.38     -9592.4198      0.36335044     0.056415705    27.80798       3565.9861    
       600   1.2            275.75235      126736.82     -807641.51     -9424.1467      0.36334191     0.055427345    27.809282      3565.7727    
       610   1.22           278.08417      121142.12     -807647.43     -9246.5811      0.36333324     0.054384306    27.818115      3565.5359    
       620   1.24           271.72062      128209.07     -807639.39     -9469.994       0.36332442     0.055699673    27.840985      3565.2478    
       630   1.26           291.68345      130376.98     -807636.42     -9658.0882      0.36331546     0.056807388    27.831493      3564.9768    
       640   1.28           288.6126       140659.8      -807625.13     -9998.6954      0.36330636     0.058812261    27.806646      3564.7529    
       650   1.3            281.53032      140493.31     -807622.65     -10046.845      0.36329711     0.059096983    27.834366      3564.47      
       660   1.32           289.65552      143296.11     -807622.66     -10075.388      0.36328772     0.059266405    27.889917      3564.0771    
       670   1.34           287.33558      134852.71     -807629.93     -9832.8875      0.36327819     0.057841465    27.882449      3563.6995    
       680   1.36           295.75781      129752.36     -807637.96     -9605.816       0.36326851     0.056507233    27.853751      3563.3764    
       690   1.38           281.70126      123542.8      -807644.4      -9333.2949      0.36325869     0.054905583    27.803352      3563.146     
       700   1.4            271.23219      124707.49     -807643.32     -9316.3099      0.36324873     0.054807168    27.798786      3562.9202    
       710   1.42           289.49806      126733.04     -807641.27     -9463.0521      0.36323863     0.05567199     27.796508      3562.6948    
       720   1.44           289.0022       133537.26     -807632.37     -9742.7535      0.36322838     0.057319116    27.798332      3562.4624    
       730   1.46           288.33512      139517.22     -807625.33     -9962.2541      0.36321798     0.058612171    27.805031      3562.2147    
       740   1.48           284.36821      142734.7      -807621.77     -10057.128      0.36320745     0.059172072    27.81135       3561.953     
       750   1.5            280.03283      142151.3      -807621.32     -10048.565      0.36319677     0.059123428    27.757564      3561.781     
       760   1.52           299.428        135795.98     -807631.15     -9818.2989      0.36318595     0.057770317    27.720452      3561.6669    
       770   1.54           289.40286      129465.55     -807637.85     -9555.0315      0.36317498     0.056222965    27.739968      3561.5137    
       780   1.56           283.95621      124380.91     -807643.73     -9341.6386      0.36316387     0.054969016    27.768611      3561.3079    
       790   1.58           275.72786      125711.3      -807642.72     -9336.5328      0.36315262     0.054940675    27.803984      3561.0407    
       800   1.6            287.80124      127427.69     -807639.94     -9482.0915      0.36314122     0.055798963    27.770517      3560.8249    
       810   1.62           283.16716      135154.34     -807630.26     -9771.2723      0.36312968     0.057502523    27.748796      3560.6401    
       820   1.64           287.09442      139528.49     -807625.66     -9943.0035      0.363118       0.058515019    27.78689       3560.3912    
       830   1.66           280.124        143067.28     -807620.16     -10086.023      0.36310618     0.059358626    27.793573      3560.1293    
       840   1.68           289.93723      139806.17     -807625.26     -9973.9022      0.36309421     0.058700706    27.809206      3559.8412    
       850   1.7            289.69881      135722.5      -807630.71     -9800.7935      0.3630821      0.05768381     27.795451      3559.5723    
       860   1.72           292.46759      128195.26     -807640.19     -9515.374       0.36306984     0.056005828    27.805237      3559.2865    
       870   1.74           274.40732      125224.27     -807643.63     -9328.3145      0.36305745     0.054906704    27.801193      3559.005     
       880   1.76           272.44479      124164.78     -807643.27     -9340.463       0.3630449      0.054980109    27.83633       3558.6706    
       890   1.78           281.40881      128825.16     -807638.38     -9543.2973      0.36303222     0.056176001    27.828285      3558.3472    
       900   1.8            295.37817      134674.05     -807633.31     -9776.9789      0.36301939     0.057553586    27.835096      3558.0134    
       910   1.82           284.57818      140081.33     -807625.51     -9985.002       0.36300642     0.058780244    27.819018      3557.7016    
       920   1.84           282.21651      142280.06     -807622.7      -10071.939      0.36299331     0.059294172    27.82855       3557.3755    
       930   1.86           280.23051      139738.79     -807625.52     -9979.325       0.36298005     0.058751093    27.812409      3557.0709    
       940   1.88           276.95654      133903.12     -807632.81     -9738.2691      0.36296665     0.057334045    27.832223      3556.7381    
       950   1.9            268.36769      127370.45     -807639.7      -9485.0427      0.36295311     0.055845259    27.816986      3556.4253    
       960   1.92           263.08376      124752.29     -807643.24     -9350.1454      0.36293942     0.055053098    27.819807      3556.1078    
       970   1.94           262.42931      124468.65     -807642.61     -9371.8626      0.36292559     0.05518307     27.786793      3555.833     
       980   1.96           282.89974      128930.21     -807639.83     -9556.2874      0.36291162     0.05627116     27.799487      3555.5399    
       990   1.98           278.55365      134700.04     -807631.73     -9799.464       0.3628975      0.057705323    27.855046      3555.1737    
      1000   2              283.84235      140713.46     -807625.24     -10030.753      0.36288325     0.059069618    27.761654      3554.9271    
      1010   2.02           275.62787      140321.42     -807623.88     -313.78067      0.36286884     0.059132198    27.914374      3554.4852    
      1020   2.04           276.95002      138324.62     -807627.34     -310.51421      0.3628543      0.058518977    27.907737      3554.0533    
      1030   2.06           276.26738      131746.02     -807634.93     -302.87211      0.36283961     0.05708107     27.908308      3553.622     
      1040   2.08           268.22548      127585.24     -807639.76     -296.91078      0.36282478     0.055959851    27.940619      3553.1526    
      1050   2.1            265.26236      123148.24     -807644.78     -291.49111      0.3628098      0.054940653    27.909826      3552.7227    
      1060   2.12           264.67623      125326.19     -807642.72     -293.36261      0.36279469     0.0552957      27.919975      3552.2818    
      1070   2.14           285.9715       129156.72     -807640.01     -299.09844      0.36277943     0.056379215    27.873862      3551.8974    
      1080   2.16           273.32048      136558.24     -807628.84     -308.43451      0.36276402     0.058141505    27.852862      3551.5382    
      1090   2.18           279.89617      139996.48     -807626.07     -312.13464      0.36274848     0.058841522    27.861176      3551.1693    
      1100   2.2            271.7919       141509.6      -807624.24     -312.72405      0.36273279     0.058955181    27.924315      3550.7276    
      1110   2.22           283.10978      136795.78     -807629.6      -308.89679      0.36271695     0.058236204    27.914744      3550.2983    
      1120   2.24           274.42036      131805.76     -807634.39     -302.75405      0.36270098     0.05708063     27.885941      3549.9031    
      1130   2.26           273.6356       126371.59     -807641.85     -295.04763      0.36268486     0.05563015     27.845788      3549.5536    
      1140   2.28           268.46069      124345.13     -807644.77     -291.26867      0.3626686      0.054920102    27.933429      3549.1063    
      1150   2.3            276.5217       125774.72     -807642.42     -294.64409      0.36265219     0.055559067    27.923689      3548.6712    
      1160   2.32           282.7989       130480.34     -807635.97     -301.80721      0.36263564     0.056912366    27.910838      3548.2516    
      1170   2.34           290.1032       136237.97     -807630.65     -307.95919      0.36261895     0.05807513     27.856119      3547.8925    
      1180   2.36           275.13401      141038.08     -807624.64     -311.73856      0.36260212     0.058790574    27.882851      3547.5045    
      1190   2.38           284.11626      140837.62     -807624.84     -312.55165      0.36258514     0.058946674    27.895014      3547.104     
      1200   2.4            284.66298      136570.96     -807629.35     -307.91787      0.36256802     0.058075494    27.889043      3546.7106    
      1210   2.42           286.13929      130417.95     -807636.85     -300.35617      0.36255076     0.056652002    27.871838      3546.3358    
      1220   2.44           271.82098      125814.79     -807641.23     -293.64963      0.36253335     0.055389699    27.873472      3545.9596    
      1230   2.46           278.69734      124964.59     -807643.18     -292.35215      0.3625158      0.05514763     27.895954      3545.5604    
      1240   2.48           279.11395      126794.96     -807640.17     -295.21526      0.36249811     0.055690429    27.846838      3545.2123    
      1250   2.5            301.70331      131788.11     -807637.26     -300.97934      0.36248028     0.056780579    27.843421      3544.8673    
      1260   2.52           286.65431      137779.38     -807627.53     -308.36326      0.3624623      0.058176461    27.845874      3544.5198    
      1270   2.54           291.83736      140328.42     -807623.63     -312.81046      0.36244418     0.05901843     27.924451      3544.0936    
      1280   2.56           287.08295      140486.65     -807624.07     -311.47153      0.36242592     0.058768774    27.957559      3543.6356    
      1290   2.58           289.04204      135675.39     -807629.48     -306.18229      0.36240751     0.057773728    27.966509      3543.1705    
      1300   2.6            286.13726      130612.2      -807635.53     -299.56305      0.36238896     0.056527633    27.97259       3542.7011    
      1310   2.62           278.71871      125976.9      -807640.54     -293.41774      0.36237027     0.055370869    27.977706      3542.2285    
      1320   2.64           279.58095      125785.11     -807641.99     -292.02131      0.36235143     0.055110212    27.953836      3541.7804    
      1330   2.66           286.54029      127111.15     -807640.27     -294.73504      0.36233245     0.055625259    27.855002      3541.4279    
      1340   2.68           292.38298      133091.99     -807633.26     -302.53268      0.36231333     0.05709992     27.866484      3541.0644    
      1350   2.7            288.99408      138184.5      -807626.79     -308.614        0.36229407     0.058250804    27.895623      3540.6736    
      1360   2.72           300.31296      141864.92     -807624.39     -312.54661      0.36227466     0.058996242    27.949433      3540.2331    
      1370   2.74           286.84602      139061.83     -807624.67     -310.47806      0.36225511     0.058608946    27.886571      3539.852     
      1380   2.76           294.67859      135995.51     -807629.93     -306.28197      0.36223542     0.057819993    27.832845      3539.5207    
      1390   2.78           296.10838      128851.38     -807638.15     -298.37707      0.36221558     0.056330788    27.865758      3539.1588    
      1400   2.8            289.76335      126797.63     -807642.14     -293.48773      0.3621956      0.055410784    27.906991      3538.7597    
      1410   2.82           275.18392      123853.47     -807641.73     -292.00437      0.36217548     0.055133787    27.781466      3538.4743    
      1420   2.84           284.58637      128399.78     -807638.97     -296.12573      0.36215522     0.055915075    27.799995      3538.1712    
      1430   2.86           291.95711      132217.4      -807633.56     -302.75648      0.36213481     0.057170329    27.871605      3537.8036    
      1440   2.88           287.07343      138776.19     -807625.78     -309.94834      0.36211426     0.058531709    27.950704      3537.3667    
      1450   2.9            287.66899      139702.31     -807624.5      -311.33503      0.36209357     0.058796936    27.923863      3536.9542    
      1460   2.92           286.41842      139530.61     -807624.97     -310.71956      0.36207273     0.058684079    27.917945      3536.5476    
      1470   2.94           293.42945      133496.82     -807632.95     -303.82873      0.36205176     0.057385967    27.956631      3536.1084    
      1480   2.96           287.31151      129015.84     -807637.37     -298.54658      0.36203064     0.056391585    27.960682      3535.6669    
      1490   2.98           270.13244      125419.15     -807641.04     -292.66157      0.36200937     0.055283228    27.912383      3535.2674    
      1500   3              268.7068       126313.27     -807640.91     -292.624        0.36198796     0.055279401    27.871529      3534.903     
      1510   3.02           288.47586      127784.34     -807639.28     -9509.3547      0.36196642     0.056141022    27.883215      3534.5288    
      1520   3.04           287.59794      134630.96     -807631.81     -9747.5177      0.36194472     0.057550529    27.911137      3534.1316    
      1530   3.06           288.39819      138597.35     -807626.8      -9913.71        0.36192289     0.05853528     27.884399      3533.757     
      1540   3.08           279.8393       140648.86     -807624.31     -9958.911       0.36190091     0.05880574     27.844613      3533.4153    
      1550   3.1            285.91623      138286.11     -807627.8      -9877.8092      0.36187879     0.058330412    27.842322      3533.0753    
      1560   3.12           289.67191      133234.86     -807633.3      -9721.3197      0.36185653     0.057409842    27.870211      3532.7124    
      1570   3.14           283.01952      128268.94     -807639.5      -9495.5482      0.36183412     0.056080007    27.883514      3532.3389    
      1580   3.16           271.33712      124595.16     -807642.82     -9339.5782      0.36181157     0.055162297    27.859148      3531.985     
      1590   3.18           279.36066      125024.21     -807643.52     -9355.2068      0.36178888     0.05525807     27.848593      3531.6395    
      1600   3.2            282.78251      128861.95     -807638.34     -9540.2917      0.36176605     0.056354862    27.852683      3531.2906    
      1610   3.22           291.99442      134313.94     -807632.89     -9759.1551      0.36174307     0.057651357    27.819159      3530.968     
      1620   3.24           279.88484      138475.91     -807627.2      -9890.2008      0.36171995     0.058429232    27.781542      3530.6745    
      1630   3.26           278.98448      140029.51     -807624.96     -9959.458       0.36169669     0.058842173    27.803007      3530.3634    
      1640   3.28           274.26552      138045.32     -807627.56     -9856.8882      0.36167329     0.058239942    27.771024      3530.0766    
      1650   3.3            275.00211      132843.66     -807633.24     -9681.3563      0.36164974     0.057206527    27.776265      3529.7848    
      1660   3.32           278.89472      127048.75     -807640.84     -9455.8361      0.36162605     0.055877603    27.796298      3529.4768    
      1670   3.34           271.86991      125958.15     -807643.02     -9354.7806      0.36160222     0.055284076    27.789446      3529.1735    
      1680   3.36           271.95807      126026.73     -807641.64     -9401.6051      0.36157824     0.05556448     27.815905      3528.8494    
      1690   3.38           286.35269      130050.87     -807638.19     -9577.5811      0.36155413     0.056608293    27.857999      3528.4933    
      1700   3.4            282.4721       134830.05     -807632.23     -9753.1207      0.36152987     0.057649687    27.843838      3528.1477    
      1710   3.42           280.93838      139220.99     -807626.72     -9923.7041      0.36150546     0.058661948    27.8765        3527.7778    
      1720   3.44           278.45663      139116.55     -807626.24     -9930.0064      0.36148092     0.058703189    27.858102      3527.4216    
      1730   3.46           279.97778      137594.01     -807629.34     -9837.2926      0.36145623     0.058159064    27.807088      3527.1027    
      1740   3.48           275.95168      131285.22     -807635.89     -9609.6452      0.3614314      0.056817093    27.823396      3526.7715    
      1750   3.5            275.94218      127588.62     -807641.18     -9439.1426      0.36140643     0.055812852    27.803621      3526.4543    
      1760   3.52           269.10898      125041.25     -807643.17     -9344.9306      0.36138131     0.055259625    27.849453      3526.1035    
      1770   3.54           282.09588      126067.13     -807643.28     -9398.9173      0.36135605     0.05558275     27.898187      3525.7179    
      1780   3.56           280.2717       129815.15     -807638.04     -9558.7471      0.36133065     0.056531916    27.89916       3525.3319    
      1790   3.58           285.97395      135394.61     -807631.95     -9778.9825      0.36130511     0.057838511    27.856557      3524.9763    
      1800   3.6            268.43237      139895.1      -807624.3      -9945.9099      0.36127942     0.058829998    27.815012      3524.6498    
      1810   3.62           266.01136      139245.39     -807625.24     -9904.28        0.3612536      0.058587946    27.796691      3524.3359    
      1820   3.64           281.01252      136305.89     -807630.92     -9784.7799      0.36122763     0.057885214    27.812354      3524.0105    
      1830   3.66           276.751        130902.83     -807636.31     -9592.6679      0.36120151     0.056752812    27.846431      3523.6612    
      1840   3.68           275.59922      127406.53     -807640.19     -9455.754       0.36117526     0.05594686     27.909721      3523.2683    
      1850   3.7            267.46605      124714.85     -807644.01     -9294.5104      0.36114886     0.054996849    27.918679      3522.8697    
      1860   3.72           284.30145      127077.52     -807643.07     -9392.6589      0.36112232     0.055581691    27.93126       3522.463     
      1870   3.74           286.40073      129738.71     -807636.88     -9596.6584      0.36109564     0.056793069    27.921738      3522.0632    
      1880   3.76           281.88202      137698.41     -807628.66     -9832.6197      0.36106881     0.058193811    27.906903      3521.6738    
      1890   3.78           280.29754      138978.23     -807626.32     -9895.431       0.36104184     0.058569931    27.842056      3521.3281    
      1900   3.8            277.98151      140010.59     -807626.05     -9883.9608      0.36101474     0.058506434    27.797522      3521.0119    
      1910   3.82           280.64701      135312.55     -807629.94     -9764.649       0.36098748     0.057804551    27.809432      3520.6874    
      1920   3.84           288.79065      130188.6      -807636.56     -9579.8809      0.36096009     0.056715069    27.849193      3520.3363    
      1930   3.86           277.03672      125999.77     -807641.23     -9369.802       0.36093255     0.055475586    27.851344      3519.9837    
      1940   3.88           275.54117      126045.96     -807642.98     -9300.0622      0.36090487     0.055066902    27.817963      3519.6527    
      1950   3.9            272.36592      127552.95     -807638.3      -9431.7485      0.36087705     0.05585094     27.831427      3519.3128    
      1960   3.92           292.33473      132523.41     -807634.27     -9642.6559      0.36084909     0.057104272    27.747133      3519.0273    
      1970   3.94           287.23064      137256.64     -807628.29     -9805.5188      0.36082098     0.058073277    27.79191       3518.7121    
      1980   3.96           283.85505      139437.36     -807624.56     -9906.1619      0.36079273     0.05867393     27.804167      3518.3886    
      1990   3.98           291.28947      139616.8      -807626.12     -9883.226       0.36076434     0.058542689    27.820514      3518.0543    
      2000   4              287.52687      135201.74     -807630.19     -9731.998       0.36073581     0.057651458    27.806056      3517.7289    
      2010   4.02           289.20803      130493.84     -807636.72     -297.64251      0.36070713     0.056427101    27.92914       3517.326     
      2020   4.04           283.76514      126166.08     -807641.93     -291.61578      0.36067831     0.055288972    27.936884      3516.9186    
      2030   4.06           276.36292      126545.05     -807640.43     -291.96196      0.36064935     0.055359049    27.958191      3516.4986    
      2040   4.08           277.61512      128015.3      -807637.72     -294.86828      0.36062025     0.05591463     27.879848      3516.1275    
      2050   4.1            295.53209      133745.28     -807633.96     -301.08906      0.36059101     0.057098881    27.91777       3515.7331    
      2060   4.12           294.50182      137019.32     -807628.66     -306.2882       0.36056162     0.058089586    27.875777      3515.3649    
      2070   4.14           282.70017      141249.9      -807623.16     -310.14904      0.36053209     0.058826638    27.891704      3514.987     
      2080   4.16           295.49263      138212.29     -807628.15     -307.02469      0.36050242     0.058238829    27.829269      3514.6471    
      2090   4.18           282.13771      134649.68     -807630.49     -302.78187      0.36047261     0.057438768    27.797905      3514.3261    
      2100   4.2            294.7018       128235.99     -807639.8      -295.37133      0.36044265     0.05603762     27.850195      3513.9732    
      2110   4.22           279.71975      126686.25     -807640.93     -292.19952      0.36041256     0.055440495    27.943399      3513.5647    
      2120   4.24           273.60929      126560.18     -807641.34     -291.0929       0.36038232     0.055235164    27.971354      3513.1401    
      2130   4.26           289.11784      128866.35     -807639.26     -295.50613      0.36035193     0.056077308    27.931712      3512.7395    
      2140   4.28           286.57478      133998.58     -807632.32     -302.29991      0.36032141     0.057371402    27.91273       3512.3504    
      2150   4.3            287.99325      137896.81     -807628.17     -306.95598      0.36029075     0.058260004    27.899573      3511.9694    
      2160   4.32           284.38244      139723.55     -807625.49     -309.30797      0.36025994     0.05871143     27.957967      3511.5545    
      2170   4.34           281.12288      136407.95     -807628.31     -306.26257      0.36022899     0.05813836     27.919817      3511.1623    
      2180   4.36           286.73954      132866.55     -807634.54     -300.94902      0.36019789     0.057134613    27.876906      3510.7951    
      2190   4.38           282.41268      126388.96     -807640.95     -294.19131      0.36016666     0.055856517    27.90152       3510.4139    
      2200   4.4            270.90513      126322.89     -807641.52     -292.09058      0.36013528     0.055462494    27.851295      3510.0616    
      2210   4.42           278.16408      124888.63     -807644.2      -290.62435      0.36010377     0.055188915    27.843382      3509.7137    
      2220   4.44           278.94753      130974.77     -807637.47     -297.54157      0.36007211     0.056507448    27.823471      3509.3771    
      2230   4.46           276.71417      133251.55     -807632.57     -302.3754       0.3600403      0.057430534    27.836832      3509.0327    
      2240   4.48           273.92809      139707.81     -807626.45     -308.07765      0.36000836     0.058518761    27.885066      3508.661     
      2250   4.5            275.93114      137988.52     -807626.99     -307.96537      0.35997627     0.058502649    27.842392      3508.3134    
      2260   4.52           281.22496      137471.44     -807629.5      -306.14446      0.35994404     0.058161946    27.843707      3507.9649    
      2270   4.54           280.78645      130821.94     -807636.86     -298.81077      0.35991167     0.056773783    27.879088      3507.5967    
      2280   4.56           267.52848      129037.29     -807639.38     -294.33151      0.35987916     0.055927779    27.910184      3507.2114    
      2290   4.58           272.036        124499.64     -807644.22     -290.14757      0.35984651     0.055137766    27.945248      3506.8072    
      2300   4.6            276.95231      126026.05     -807643.09     -291.87736      0.35981371     0.05547154     27.955243      3506.398     
      2310   4.62           279.55914      129430.57     -807638.85     -296.56646      0.35978077     0.056367868    27.913927      3506.0116    
      2320   4.64           273.79859      134896.99     -807631.34     -303.22615      0.35974769     0.057638963    27.918858      3505.6228    
      2330   4.66           279.22067      138177.56     -807627.89     -307.35247      0.35971447     0.058428711    27.924597      3505.2311    
      2340   4.68           277.71484      139022.23     -807626.97     -308.02008      0.35968111     0.058561059    27.857169      3504.876     
      2350   4.7            279.67644      136655.33     -807630.49     -304.64485      0.3596476      0.057924753    27.866581      3504.5157    
      2360   4.72           281.93398      130845.72     -807636.95     -298.44689      0.35961396     0.05675159     27.858248      3504.1599    
      2370   4.74           277.02055      127078.69     -807641.49     -293.06005      0.35958017     0.055732485    27.856952      3503.8048    
      2380   4.76           270.55127      123578.21     -807644.19     -289.40064      0.35954624     0.055041754    27.873443      3503.4409    
      2390   4.78           271.18033      127312.67     -807641.08     -292.4222       0.35951216     0.055621702    27.882932      3503.0721    
      2400   4.8            272.53209      129371.73     -807637.36     -296.33176      0.35947795     0.056370705    27.894105      3502.6975    
      2410   4.82           283.1685       136075.99     -807630.78     -304.24218      0.35944359     0.057881022    27.890785      3502.3248    
      2420   4.84           281.6963       137444.84     -807627.98     -306.73856      0.35940909     0.058361552    27.843583      3501.9767    
      2430   4.86           281.91214      140040.08     -807626.62     -307.958        0.35937446     0.058599216    27.843724      3501.6285    
      2440   4.88           272.66298      134538.59     -807631.14     -302.12727      0.35933967     0.057495292    27.871691      3501.2657    
      2450   4.9            284.02088      132247.26     -807635.77     -298.83747      0.35930475     0.056874763    27.865155      3500.9064    
      2460   4.92           273.91753      125715.08     -807641.56     -291.60259      0.35926969     0.055503238    27.880787      3500.539     
      2470   4.94           267.33808      126380.04     -807641.7      -290.26043      0.35923448     0.055253188    27.912365      3500.1557    
      2480   4.96           277.30746      125451.43     -807641.96     -291.3861       0.35919913     0.055472926    27.910189      3499.7737    
      2490   4.98           281.60718      131882.61     -807635.17     -298.5988       0.35916364     0.056851668    27.899399      3499.3973    
      2500   5              289.2187       134441.86     -807631.53     -303.27709      0.35912801     0.05774812     27.896524      3499.0226    
[...]
     98740   197.48         277.22303      130406.76     -807635.87     -9609.39        0.36236891     0.056668592    27.466402      44.125916    
     98750   197.5          288.38628      133807.36     -807633.92     -9719.5138      0.36238762     0.057315057    27.479433      43.775884    
     98760   197.52         281.01814      130220.26     -807635.06     -9658.017       0.36240618     0.0569495      27.51042       43.425844    
     98770   197.54         282.09265      134100.38     -807633.66     -9704.1268      0.36242459     0.057218483    27.511604      43.075801    
     98780   197.56         276.92634      130165.06     -807636.18     -9606.8375      0.36244287     0.05664198     27.453884      42.725765    
     98790   197.58         276.76227      134391.66     -807631.8      -9744.8201      0.362461       0.057452653    26.359803      42.37591     
     98800   197.6          278.29182      130884.94     -807633.75     -9698.136       0.36247899     0.057174579    27.465685      42.025865    
     98810   197.62         281.5376       135431.15     -807632.62     -9745.5499      0.36249683     0.057451276    27.477919      41.675814    
     98820   197.64         267.304        131104.26     -807634.22     -9637.6171      0.36251453     0.056812223    27.450515      41.325766    
     98830   197.66         277.4498       134549.29     -807632.16     -9747.1545      0.36253209     0.057455146    27.449541      40.975714    
     98840   197.68         283.58759      130268.63     -807635.83     -9664.0653      0.36254951     0.056962636    27.470265      40.625656    
     98850   197.7          276.97044      134405.38     -807633.02     -9722.9116      0.36256678     0.057306761    27.506794      40.27559     
     98860   197.72         280.36272      130246.29     -807636.77     -9625.3955      0.36258391     0.056729322    27.465959      39.925528    
     98870   197.74         277.23509      133730.34     -807632.84     -9737.5683      0.3626009      0.057387748    27.524889      39.575453    
     98880   197.76         271.72642      131629.4      -807633.37     -9703.1939      0.36261774     0.057182508    27.50271       39.225379    
     98890   197.78         283.43427      133669.16     -807634.47     -9719.084       0.36263445     0.057273513    27.503222      38.875303    
     98900   197.8          276.22091      131135.33     -807635.17     -9670.489       0.362651       0.056984546    27.521471      38.525221    
     98910   197.82         276.11997      132604.83     -807633.76     -9717.5236      0.36266742     0.057259111    27.478114      38.175143    
     98920   197.84         281.56883      132357.88     -807635.22     -9699.4387      0.36268369     0.057149984    27.491198      37.825059    
     98930   197.86         274.12834      131828.75     -807635.47     -9661.8514      0.36269982     0.056925985    27.44428       37.47498     
     98940   197.88         271.61563      132897.56     -807634.39     -9686.8393      0.36271581     0.057070694    27.42107       37.124902    
     98950   197.9          276.04923      131607.91     -807634.93     -9695.2012      0.36273165     0.057117464    27.432286      36.774819    
     98960   197.92         272.45124      133470.44     -807633.25     -9733.7387      0.36274735     0.057342018    27.365993      36.424742    
     98970   197.94         268.7072       131919.36     -807635.08     -9662.3007      0.36276291     0.056918732    27.380871      36.07466     
     98980   197.96         270.053        133687.32     -807633.88     -9706.5327      0.36277832     0.057176865    27.405818      35.724571    
     98990   197.98         282.10811      131285.74     -807635.37     -9716.9317      0.36279359     0.057235711    27.409831      35.374479    
     99000   198            272.21683      133612.9      -807633.15     -9742.9395      0.36280872     0.057386512    27.407659      35.024385    
     99010   198.02         275.44796      130466.08     -807636.92     -301.22023      0.3628237      0.056772237    27.47426       34.674278    
     99020   198.04         274.87795      133204.17     -807634.42     -303.57969      0.36283855     0.057214594    27.508824      34.324164    
     99030   198.06         261.37978      131425.32     -807633.1      -303.13628      0.36285324     0.05712871     27.57561       33.974039    
     99040   198.08         272.62558      134327.99     -807632.63     -305.0121       0.3628678      0.05747992     27.59102       33.623909    
     99050   198.1          271.84144      130817.29     -807635.69     -301.89375      0.36288221     0.056890004    27.58976       33.273777    
     99060   198.12         279.37668      134363.45     -807634.35     -304.10334      0.36289648     0.057304134    27.566122      32.923646    
     99070   198.14         270.38841      132182.01     -807633.65     -303.58718      0.36291061     0.057204644    27.561113      32.573512    
     99080   198.16         280.82445      134687.48     -807633.64     -304.79683      0.36292459     0.057430364    27.57391       32.223375    
     99090   198.18         274.46516      130978.5      -807635.98     -301.54632      0.36293843     0.056815731    27.570772      31.873235    
     99100   198.2          275.60371      133364.32     -807634.22     -303.21739      0.36295213     0.057128429    27.535857      31.523097    
     99110   198.22         280.12539      130569.5      -807634.31     -303.64999      0.36296568     0.057207797    27.553704      31.172954    
     99120   198.24         276.32088      133620.61     -807632.74     -304.38996      0.36297909     0.05734509     27.557278      30.822808    
     99130   198.26         278.15589      131437.71     -807635.28     -301.92564      0.36299236     0.056878749    27.527149      30.472663    
     99140   198.28         284.9592       133763.22     -807633.57     -304.24581      0.36300548     0.057313765    27.529996      30.122515    
     99150   198.3          288.6513       132340.8      -807634.19     -303.98447      0.36301846     0.057262487    27.548694      29.772363    
     99160   198.32         279.13966      134237.44     -807631.89     -304.6627       0.3630313      0.057388218    27.527757      29.42221     
     99170   198.34         280.51184      132145.24     -807634.49     -302.12418      0.36304399     0.056908055    27.5095        29.072056    
     99180   198.36         281.1532       133140.22     -807632.68     -303.79538      0.36305655     0.057220865    27.499197      28.721901    
     99190   198.38         284.87553      132241.95     -807633.37     -303.49535      0.36306895     0.057162398    26.639859      28.371839    
     99200   198.4          284.69444      132224.67     -807633.56     -303.18607      0.36308122     0.057102218    27.47716       28.02168     
     99210   198.42         284.74001      132792.52     -807634.03     -302.53263      0.36309334     0.056977247    27.473332      27.671518    
     99220   198.44         285.11878      132766.38     -807633.97     -302.60111      0.36310532     0.056988263    27.472605      27.321353    
     99230   198.46         285.83943      133458.06     -807632.11     -304.46927      0.36311715     0.057338222    27.502789      26.971183    
     99240   198.48         288.17483      131766.78     -807634.02     -302.84372      0.36312885     0.057030259    27.501294      26.62101     
     99250   198.5          289.07425      133962.66     -807633        -303.85886      0.3631404      0.057219605    27.482676      26.270836    
     99260   198.52         285.68094      131498.39     -807633.47     -303.03169      0.3631518      0.057062049    27.490591      25.920659    
     99270   198.54         286.97123      133799.12     -807631.37     -305.26833      0.36316306     0.057481435    27.49275       25.570479    
     99280   198.56         280.23019      131740.38     -807633.58     -302.20828      0.36317418     0.056903491    27.516923      25.220294    
     99290   198.58         286.76666      134324.35     -807633.34     -303.29117      0.36318516     0.057105665    27.506519      24.870107    
     99300   198.6          285.81389      131754.96     -807633.49     -303.22689      0.36319599     0.057091859    27.516278      24.519916    
     99310   198.62         279.05962      135114.81     -807630.43     -305.25412      0.36320668     0.057471856    27.51411       24.169723    
     99320   198.64         294.48322      131048.42     -807636.08     -301.93995      0.36321723     0.056846228    27.543612      23.819525    
     99330   198.66         284.86069      133910.83     -807632.5      -304.15939      0.36322763     0.057262443    27.541339      23.469324    
     99340   198.68         291.79276      131571.14     -807634.86     -303.01417      0.36323789     0.057045227    27.560456      23.119119    
     99350   198.7          275.56104      134598.29     -807630.42     -305.2747       0.36324801     0.057469191    27.526387      22.768914    
     99360   198.72         282.48711      131335.09     -807634.44     -302.38815      0.36325798     0.056924225    27.523677      22.418707    
     99370   198.74         276.1505       133990.44     -807632.46     -303.57083      0.36326781     0.057145316    27.532384      22.068497    
     99380   198.76         288.56704      131069.87     -807634.63     -303.3996       0.3632775      0.057111561    27.571409      21.71828     
     99390   198.78         280.19189      133792.43     -807631.86     -305.10656      0.36328704     0.057431368    27.542139      21.368064    
     99400   198.8          282.57642      131734.71     -807634.7      -302.84405      0.36329644     0.057004012    27.527101      21.017846    
     99410   198.82         291.43162      132821.05     -807635.93     -302.97098      0.3633057      0.05702645     27.532172      20.667626    
     99420   198.84         278.50373      132762.63     -807633.05     -304.29544      0.36331481     0.057274308    27.480561      20.317406    
     99430   198.86         282.53743      132610.11     -807633.36     -304.74795      0.36332378     0.057358065    27.516225      19.967181    
     99440   198.88         276.23293      132541.16     -807633.96     -303.44308      0.36333261     0.057111081    27.528292      19.616953    
     99450   198.9          280.00833      131937.2      -807635.2      -302.88418      0.36334129     0.057004528    27.506086      19.266723    
     99460   198.92         289.58615      133501.45     -807634.54     -305.08664      0.36334983     0.057417694    27.516521      18.91649     
     99470   198.94         273.30511      132147.67     -807632.95     -304.59218      0.36335823     0.05732331     27.503222      18.566256    
     99480   198.96         281.03702      132306.82     -807635.56     -303.1322       0.36336648     0.057047251    27.494445      18.216019    
     99490   198.98         274.89071      131285.98     -807636.17     -301.81923      0.3633746      0.056798892    27.509077      17.865779    
     99500   199            269.42803      133319.14     -807632.76     -304.52874      0.36338256     0.057307533    27.537981      17.515534    
     99510   199.02         275.87891      131166.73     -807635.11     -9701.5538      0.36339039     0.057051281    27.492397      17.165289    
     99520   199.04         264.1436       132774.57     -807633.61     -9696.0935      0.36339807     0.057017966    27.487979      16.815042    
     99530   199.06         277.42337      131616.66     -807635.71     -9691.6031      0.3634056      0.056990378    27.435093      16.464796    
     99540   199.08         270.12343      134151.43     -807631.62     -9789.5295      0.363413       0.057565052    27.40736       16.114548    
     99550   199.1          288.15587      131634.41     -807635.2      -9756.4701      0.36342025     0.057369509    27.455689      15.764295    
     99560   199.12         276.78085      133611.19     -807633.99     -9742.1221      0.36342736     0.057284021    27.492972      15.414037    
     99570   199.14         280.08703      131640.27     -807635.02     -9725.2201      0.36343432     0.05718354     27.463365      15.063777    
     99580   199.16         281.05181      132948.82     -807634.07     -9757.1568      0.36344114     0.057370249    27.461207      14.713515    
     99590   199.18         281.35514      131085.82     -807635.76     -9705.9074      0.36344782     0.057067864    27.46775       14.36325     
     99600   199.2          275.24894      132150.9      -807635.2      -9693.265       0.36345435     0.056992505    27.479215      14.012981    
     99610   199.22         267.74591      132055.1      -807633.73     -9707.6822      0.36346074     0.057076269    27.47409       13.66271     
     99620   199.24         280.79245      132761.98     -807633.79     -9762.0701      0.36346699     0.057395056    27.452503      13.312438    
     99630   199.26         275.7691       132857.92     -807633.88     -9736.6063      0.3634731      0.057244383    27.433557      12.962163    
     99640   199.28         278.07387      133252.7      -807634.61     -9719.9983      0.36347906     0.057145803    27.452998      12.611885    
     99650   199.3          283.21844      132458.26     -807634.84     -9734.9572      0.36348487     0.057232833    27.448183      12.261604    
     99660   199.32         277.00655      132791.99     -807633.66     -9743.2651      0.36349055     0.057280782    27.457852      11.911319    
     99670   199.34         284.98953      131972.89     -807635.37     -9720.7402      0.36349608     0.057147488    27.456315      11.561032    
     99680   199.36         269.54996      131775.17     -807634.82     -9667.2095      0.36350147     0.056831943    27.487688      11.210741    
     99690   199.38         274.42387      133038.84     -807633.78     -9718.0338      0.36350671     0.057129906    27.496841      10.860447    
     99700   199.4          282.73126      132220.66     -807634.07     -9744.6781      0.36351181     0.057285738    27.495933      10.51015     
     99710   199.42         272.29277      134186.23     -807632.41     -9747.7361      0.36351677     0.057302933    27.515573      10.15985     
     99720   199.44         286.7534       132527.13     -807635.33     -9715.7983      0.36352158     0.057114428    27.473779      9.8095487    
     99730   199.46         285.81715      133067.18     -807633.66     -9761.1613      0.36352625     0.057380357    27.471049      9.4592447    
     99740   199.48         284.34025      132086.48     -807633.71     -9750.7715      0.36353078     0.057318568    27.509515      9.1089366    
     99750   199.5          281.76887      132894.02     -807633.55     -9739.4953      0.36353516     0.057251592    27.491324      8.7586265    
     99760   199.52         283.59654      130695.22     -807636.12     -9664.8348      0.3635394      0.056812053    27.496825      8.4083135    
     99770   199.54         277.36294      133334.52     -807633        -9730.8994      0.3635435      0.057199751    27.511487      8.0579974    
     99780   199.56         278.42757      131750.81     -807633.46     -9720.9689      0.36354745     0.057140757    27.491345      7.7076792    
     99790   199.58         270.7583       133854.32     -807631.89     -9730.7158      0.36355126     0.05719745     27.46146       7.3573592    
     99800   199.6          278.01557      132370.58     -807634.07     -9691.1642      0.36355493     0.05696439     27.41628       7.0070376    
     99810   199.62         283.56734      134175.74     -807632.36     -9767.3914      0.36355845     0.057411895    27.418281      6.6567131    
     99820   199.64         282.76674      133745.5      -807632.35     -9761.4767      0.36356183     0.057376595    27.453993      6.3063848    
     99830   199.66         287.94235      133394.05     -807633.9      -9730.794       0.36356507     0.057195738    27.467613      5.9560535    
     99840   199.68         288.51153      132279.95     -807635.3      -9686.2062      0.36356816     0.056933175    27.497602      5.6057187    
     99850   199.7          281.23805      133170.35     -807633.55     -9707.4481      0.36357111     0.057057567    27.498061      5.2553813    
     99860   199.72         283.14476      132449.06     -807633.05     -9729.783       0.36357392     0.057188403    27.484052      4.9050414    
     99870   199.74         278.54402      133067.36     -807633.18     -9701.7358      0.36357658     0.057023133    27.434635      4.5546997    
     99880   199.76         287.37698      132235.1      -807634.44     -9698.6149      0.3635791      0.057004395    27.438599      4.2043552    
     99890   199.78         287.74055      133916.76     -807632.49     -9759.7021      0.36358148     0.057363065    27.445415      3.8540076    
     99900   199.8          291.36806      132737.12     -807632.89     -9762.2709      0.36358371     0.057377811    27.456236      3.5036572    
     99910   199.82         290.1821       133923.62     -807632.19     -9775.8147      0.3635858      0.057457085    27.495848      3.1533035    
     99920   199.84         284.04405      131893.77     -807633.73     -9698.8406      0.36358775     0.057004366    27.540676      2.8029466    
     99930   199.86         284.48664      134095.03     -807632.41     -9741.3863      0.36358955     0.057254142    27.541804      2.4525872    
     99940   199.88         279.00068      131727.73     -807633.1      -9696.3489      0.36359121     0.056989179    27.541592      2.1022252    
     99950   199.9          282.56727      132589.89     -807633.45     -9698.4626      0.36359273     0.057001364    27.501832      1.751861     
     99960   199.92         287.48736      131150.69     -807636.06     -9637.5034      0.3635941      0.056642871    27.445189      1.4014944    
     99970   199.94         285.63372      133891.85     -807632.28     -9748.9568      0.36359533     0.057297726    27.476373      1.0511249    
     99980   199.96         293.13751      132785.32     -807632.88     -9767.6963      0.36359641     0.057407693    27.501204      0.70075255   
     99990   199.98         290.10748      134358.61     -807632.48     -9767.1068      0.36359736     0.05740408     27.525698      0.35037757   
    100000   200            289.36533      133915.88     -807633.18     -9745.2723      0.36359816     0.057275626    27.524713      0            
Loop time of 3503.79 on 32 procs for 100000 steps with 1080 atoms

Performance: 4.932 ns/day, 4.866 hours/ns, 28.541 timesteps/s, 30.824 katom-step/s
67.1% CPU use with 32 MPI tasks x 1 OpenMP threads

MPI task timing breakdown:
Section |  min time  |  avg time  |  max time  |%varavg| %total
---------------------------------------------------------------
Pair    | 2576.8     | 2792.4     | 3075.5     | 276.9 | 79.70
Neigh   | 0.0012239  | 0.0013316  | 0.001532   |   0.2 |  0.00
Comm    | 355.92     | 638.29     | 853.41     | 578.6 | 18.22
Output  | 2.3297     | 2.3371     | 2.3428     |   0.2 |  0.07
Modify  | 63.339     | 64.714     | 65.759     |   8.6 |  1.85
Other   |            | 6.06       |            |       |  0.17

Nlocal:          33.75 ave          45 max          28 min
Histogram: 3 6 6 5 7 2 2 0 0 1
Nghost:        1028.31 ave        1047 max        1006 min
Histogram: 2 4 1 5 3 3 3 3 3 5
Neighs:              0 ave           0 max           0 min
Histogram: 32 0 0 0 0 0 0 0 0 0
FullNghs:      5358.19 ave        7148 max        4388 min
Histogram: 3 4 7 6 7 2 2 0 0 1

Total # of neighbors = 171462
Ave neighs/atom = 158.76111
Neighbor list builds = 3
Dangerous builds = 0

Total wall time: 1:01:54
