
units		metal
atom_style	atomic

read_data ${STRUCTURE}.data
read_data BaTiO3-sc333.data
Reading data file ...
  orthogonal box = (0 0 0) to (11.898253 11.898253 12.912076)
  2 by 4 by 4 MPI processor grid
  reading atoms ...
  135 atoms
  read_data CPU = 0.010 seconds
replicate $L $L $L
replicate 2 $L $L
replicate 2 2 $L
replicate 2 2 2
Replication is creating a 2x2x2 = 8 times larger system...
  orthogonal box = (0 0 0) to (23.796507 23.796507 25.824152)
  2 by 4 by 4 MPI processor grid
  1080 atoms
  replicate CPU = 0.004 seconds

pair_style allegro
pair_coeff	* * ${MODEL}.pth Ba Ti O
pair_coeff	* * BaTiO3-E0.pth Ba Ti O
mass 1 137.3
mass 2 47.9
mass 3 15.9994

timestep 0.002
compute polarization all allegro polarization 3
compute allegro will evaluate the quantity polarization of length 3 (src/compute_allegro.cpp:53)
compute polarizability all allegro polarizability 9
compute allegro will evaluate the quantity polarizability of length 9 (src/compute_allegro.cpp:53)

thermo_style custom pe fmax fnorm spcpu cpuremain

variable efield equal 1e-2*36.36
fix born all addbornforce 0.0 0.0 ${efield}
fix born all addbornforce 0.0 0.0 0.3636

thermo 10
min_style fire
#minimize 0.0 1e-6 100 100
velocity all create ${TEMP} ${SEED} dist gaussian rot yes mom yes
velocity all create 290 ${SEED} dist gaussian rot yes mom yes
velocity all create 290 11289 dist gaussian rot yes mom yes
fix nvt all nvt temp ${TEMP} ${TEMP} $(100*dt)
fix nvt all nvt temp 290 ${TEMP} $(100*dt)
fix nvt all nvt temp 290 290 $(100*dt)
fix nvt all nvt temp 290 290 0.2000000000000000111
run 5000
Neighbor list info ...
  update: every = 1 steps, delay = 0 steps, check = yes
  max neighbors/atom: 2000, page size: 100000
  master list distance cutoff = 8
  ghost atom cutoff = 8
  binsize = 8, bins = 3 3 4
  1 neighbor lists, perpetual/occasional/extra = 1 0 0
  (1) pair allegro/kk, perpetual
      attributes: full, newton on, kokkos_device
      pair build: full/bin/kk/device
      stencil: full/bin/3d
      bin: kk/device
Per MPI rank memory allocation (min/avg/max) = 3.516 | 3.516 | 3.516 Mbytes
    PotEng          Fmax          Fnorm          S/CPU         CPULeft    
-807708.29      1.5959129      37.043964      0              0            
-807648.09      3.2021081      44.77289       2.5544434      1953.4598    
-807637.74      2.4549443      34.903857      25.884257      1070.97      
-807609.53      3.0692387      36.440468      25.901732      776.50598    
-807606.18      4.1587994      49.39187       25.818493      629.23523    
-807569.28      3.6421226      40.222085      25.8151        540.72298    
-807603.37      2.6179087      38.142478      25.908683      481.47045    
-807648.43      3.3300424      32.534108      25.875818      439.07147    
-807685.94      2.3783519      33.280541      25.850619      407.19876    
-807669.79      3.0863596      33.983         25.847231      382.32572    
-807653.45      3.1373333      34.315456      25.894106      362.31557    
-807663.34      2.2114863      27.132128      25.87514       345.886      
-807630.16      2.982834       30.222997      25.904113      332.1127     
-807587.22      3.2497423      39.826132      25.865511      320.42056    
-807569.76      3.4814619      38.375827      25.921244      310.31464    
-807634.21      3.466389       33.398198      25.886723      301.52138    
-807655.8       3.4597238      30.439703      25.879396      293.78227    
-807665.97      2.9062955      33.681462      25.87695       286.90926    
-807649.1       4.938623       43.705123      25.890889      280.75139    
-807682.03      2.8415262      35.76817       25.831279      275.22362    
-807644.32      3.9790563      37.959166      25.847348      270.20415    
-807617.74      3.0988145      37.768928      25.899614      265.60806    
-807565.83      4.059608       43.940903      25.915961      261.38941    
-807608.63      3.9989981      48.292151      25.880149      257.51512    
-807616.61      3.6108011      36.864728      25.839087      253.94366    
-807643.1       3.2839175      34.212916      25.890889      250.61224    
-807647.16      4.9729844      42.719847      25.893727      247.50661    
-807683.93      3.1170638      36.427794      25.857365      244.61193    
-807665.28      3.1456054      33.241306      25.794265      241.91234    
-807638.94      2.7821328      31.193918      25.890618      239.34876    
-807611.15      3.5025016      32.123741      25.905739      236.9268     
-807607.45      3.7995793      40.644231      25.887683      234.64026    
-807600.5       3.2204066      35.267054      25.845281      232.48177    
-807611.64      2.8848899      32.295172      25.896125      230.41989    
-807646.08      3.4364778      29.363159      25.91902       228.4519     
-807675.24      2.6067201      30.937723      25.868357      226.58437    
-807678.59      2.5154543      31.142469      25.809483      224.81047    
-807646         3.5511563      36.920472      25.884304      223.09751    
-807651.46      2.4287332      29.39012       25.908613      221.44996    
-807623.9       3.0494704      32.738223      25.917861      219.86547    
-807602.81      3.8656282      41.509796      25.86162       218.35057    
-807574.03      3.93115        39.835864      25.898026      216.88462    
-807629.23      3.0088508      33.945909      25.88546       215.47213    
-807652.15      3.3014534      33.461719      25.879368      214.10834    
-807674.28      2.8649478      33.569431      25.860139      212.79195    
-807645.82      4.4712639      44.380526      25.881637      211.51364    
-807669.46      3.2544068      33.696901      25.894902      210.27215    
-807646.93      3.9659185      34.897108      25.906644      209.06537    
-807624.77      3.3958388      36.496083      25.896968      207.89415    
-807569.51      4.5292107      41.455524      25.922417      206.75148    
-807606.28      4.6650366      41.716726      25.889579      205.64349    
-807627.41      4.175336       34.567798      25.830645      204.57156    
-807656.71      3.2018868      31.747614      25.86168       203.52197    
-807645.14      4.6756325      40.466257      25.918752      202.49022    
-807674.85      3.4551134      33.695398      25.878049      201.4874     
-807666.52      3.460663       32.465861      25.841508      200.51141    
-807643.83      4.0571472      29.829224      25.886307      199.55115    
-807601.3       3.0118629      34.081678      25.898237      198.60965    
-807602.4       3.8130262      37.011608      25.903063      197.68675    
-807609.73      4.4492822      36.401765      25.821431      196.79118    
-807625.42      2.9512011      30.129331      25.876768      195.90646    
-807640.63      3.1299077      30.94715       25.895497      195.03608    
-807667.88      2.896178       31.536096      25.908191      194.17998    
-807676.62      3.5014723      33.791018      25.819993      193.34794    
-807649.52      4.5825084      35.782927      25.869465      192.52477    
-807634.05      3.059011       32.513804      25.898846      191.71209    
-807615.77      3.8848848      34.441409      25.890908      190.91311    
-807606.51      3.830386       43.857569      25.811503      190.13414    
-807586.79      4.3199201      38.958839      25.834052      189.36453    
-807621.35      3.0578261      34.74384       25.930811      188.59699    
-807650.45      3.427355       34.639034      25.891653      187.84394    
-807675.06      2.7301397      35.612083      25.828609      187.10693    
-807651.03      4.2330979      40.561196      25.851572      186.37758    
-807654.56      2.9279459      33.705989      25.889181      185.65433    
-807641.66      3.9069517      33.276887      25.905177      184.93882    
-807627.23      3.4696004      36.791109      25.849906      184.23677    
-807577.04      3.4009652      38.631355      25.852169      183.54283    
-807597.44      3.4323265      38.581515      25.892374      182.85356    
-807632.48      3.1656599      31.622918      25.858005      182.17485    
-807663.4       2.6841816      31.25462       25.856908      181.50361    
-807651.03      3.6878883      36.769369      25.892777      180.83667    
-807660.64      3.181011       34.665015      25.773497      180.18591    
-807666.2       2.6529928      32.143513      25.84774       179.53587    
-807645.27      3.043128       30.964836      25.877624      178.88994    
-807602.25      3.5472432      35.297069      25.904844      178.24817    
-807590.01      3.2161277      37.036632      25.880879      177.61416    
-807612.08      3.3704891      36.817761      25.796808      176.99198    
-807633.61      2.9928845      30.084543      25.855367      176.37101    
-807643.56      3.7432924      32.212072      25.904136      175.75196    
-807655.91      3.8956507      34.72381       25.912223      175.1376     
-807674.26      2.658606       33.633627      25.855035      174.53219    
-807654.56      3.6596605      33.540456      25.866568      173.93082    
-807631.18      2.9278202      31.833047      25.891995      173.33243    
-807606.32      3.8056506      34.807405      25.890969      172.73867    
-807607.71      4.1503429      41.479415      25.8518        172.15186    
-807602.36      3.3026483      35.906508      25.829928      171.57065    
-807622.38      2.9085646      33.572823      25.891953      170.98958    
-807644.22      3.5796347      34.924377      25.893399      170.41244    
-807672.14      2.6547278      34.205582      25.824682      169.84341    
-807660.05      4.1769517      35.250609      25.823113      169.27815    
-807647.75      3.4261889      32.561254      25.894903      168.71216    
-807635.08      3.6130841      31.768785      25.920972      168.14819    
-807624.07      3.4712497      35.66472       25.867166      167.59085    
-807594.25      3.3800881      36.034036      25.846         167.03804    
-807597.91      2.9768257      35.464322      25.896678      166.48554    
-807631.71      3.2250708      30.682403      25.888685      165.93666    
-807662.64      2.4176766      31.038268      25.871798      165.39178    
-807661.5       2.4888388      31.900069      25.857137      164.85066    
-807653.38      3.5935312      34.420805      25.842599      164.3132     
-807658.95      2.9500465      30.098358      25.838141      163.77874    
-807642         2.4830222      30.508513      25.825087      163.24765    
-807610.4       2.9077664      34.363732      25.850568      162.71781    
-807585.82      4.2446668      37.438534      25.893324      162.18832    
-807613.54      3.7556274      35.189698      25.861237      161.663      
-807640.89      2.9655874      30.887837      25.864717      161.13994    
-807653.03      3.2131107      31.588563      25.906466      160.61717    
-807648.7       3.473598       36.73436       25.875061      160.09831    
-807668.19      2.4716496      32.771887      25.790697      159.58584    
-807653.18      2.8897679      32.576239      25.82397       159.07388    
-807632.51      3.8122043      31.865934      25.8566        158.56244    
-807596.31      3.3276927      35.861505      25.890497      158.05148    
-807606.71      3.3661766      38.950626      25.871569      157.54347    
-807614.04      3.6904268      34.048011      25.864077      157.03779    
-807635.05      3.191368       31.23758       25.896748      156.53256    
-807641.52      3.4975346      34.560343      25.861681      156.03083    
-807668.46      2.8224184      32.332189      25.890422      155.52966    
-807661.58      2.7392619      32.817399      25.824384      155.03324    
-807646.26      3.4726707      31.625326      25.853415      154.53727    
-807620.96      4.0686056      32.84104       25.898959      154.04102    
-807618.76      3.4427794      35.216559      25.912181      153.54592    
-807602.54      3.1620136      36.915575      25.816124      153.05658    
-807607.97      2.9443613      34.345931      25.824175      152.56846    
-807628.6       3.5042511      32.154545      25.874304      152.07978    
-807660.67      2.2646578      30.613933      25.88029       151.59238    
-807663.2       2.9016361      33.068122      25.758141      151.1115     
-807651.45      3.1196457      33.18075       25.779474      150.63112    
-807645.55      2.8525294      30.824055      25.861452      150.14882    
-807633.98      3.4461141      30.694096      25.846676      149.66849    
-807614.3       3.1889888      34.844962      25.86711       149.18871    
-807589.25      3.0388891      36.013021      25.902089      148.70892    
-807612.82      2.7043847      33.670042      25.838537      148.23291    
-807642.09      3.3847669      31.634518      25.898387      147.75589    
-807659.15      2.9846707      31.730966      25.846634      147.2821     
-807648.63      3.9579001      36.345449      25.889396      146.80792    
-807658.44      2.5674923      32.515741      25.824505      146.33737    
-807649.54      3.3524788      32.272283      25.823387      145.868      
-807630.9       2.7998536      32.707636      25.830105      145.39952    
-807594.19      3.7219943      35.932219      25.861998      144.931      
-807601.24      3.7916307      37.714473      25.877591      144.46303    
-807620.92      3.9525803      32.603897      25.773344      143.99983    
-807644.32      3.5895042      30.957951      25.805404      143.53652    
-807641.3       4.3100806      35.076221      25.837684      143.07309    
-807661.61      3.2227102      32.557288      25.870428      142.60954    
-807659.5       2.5608242      32.668639      25.791236      142.14969    
-807647.08      3.0282188      31.474947      25.809674      141.69015    
-807614.14      3.3230855      33.891222      25.825134      141.23103    
-807608.74      2.686822       35.006196      25.856576      140.7718     
-807607.88      4.1076587      36.395215      25.847768      140.31377    
-807620.22      2.8042101      33.549651      25.848618      139.85662    
-807630.3       3.1196136      32.588398      25.915211      139.39821    
-807654.14      2.4473671      32.585191      25.909433      138.9409     
-807664.52      2.4483826      33.232577      25.848506      138.48639    
-807653.59      2.684768       32.798834      25.843597      138.03287    
-807636.06      2.954799       32.405441      25.87327       137.57925    
-807625.83      2.8856213      31.414094      25.915759      137.12515    
-807613.14      3.0446657      35.967284      25.868231      136.67331    
-807600.88      2.9994949      35.201461      25.813169      136.22392    
-807614.31      3.2274805      32.958805      25.837633      135.77454    
-807642.35      3.266735       30.508006      25.863012      135.32516    
-807662.75      3.1752886      31.381524      25.888292      134.87577    
-807654.93      3.0511304      33.601425      25.874608      134.42753    
-807650.04      3.7085885      32.677391      25.896331      133.97938    
-807644.62      3.9754321      30.93856       25.893601      133.53203    
-807631.11      3.0064836      32.881921      25.88226       133.08571    
-807600.05      3.4818838      34.936415      25.85971       132.64071    
-807601.5       3.2464393      36.168751      25.818866      132.19751    
-807624.19      2.9150216      33.265518      25.830743      131.75462    
-807650.67      2.66202        31.388747      25.858229      131.31161    
-807648.67      3.1134326      34.375829      25.892411      130.86831    
-807655.43      3.6449832      33.276678      25.894874      130.42557    
-807657.55      2.4827591      31.924028      25.905416      129.98319    
-807644.99      2.870222       31.803283      25.86126       129.54259    
-807615.27      2.5574394      32.914178      25.877353      129.10217    
-807602.3       3.3451546      35.270829      25.881572      128.66222    
-807613.21      3.4261026      34.677395      25.831694      128.22414    
-807629.39      2.9682006      31.86745       25.867488      127.7857     
-807638.06      2.8321357      31.360232      25.879111      127.34752    
-807651.2       4.6422691      32.856096      25.900453      126.90937    
-807663.19      2.4697363      31.871621      25.876721      126.47235    
-807651.84      2.9522968      32.634598      25.847787      126.03658    
-807633.96      3.6905403      31.983836      25.849523      125.60129    
-807616         2.8724534      33.174227      25.88509       125.16564    
-807612.2       3.0412587      36.765583      25.841713      124.73154    
-807610.52      3.6349134      35.164608      25.81329       124.29861    
-807622         3.2698567      32.89126       25.851413      123.86525    
-807638.65      3.6159548      33.67373       25.89163       123.43143    
-807659.19      2.7977842      33.04737       25.833736      122.99943    
-807655.19      3.0266923      33.831604      25.795176      122.56878    
-807644.21      3.6485164      33.494429      25.824645      122.1379     
-807632.18      2.7037902      32.444302      25.841554      121.70706    
-807625.37      3.3151982      33.781217      25.83368       121.27684    
-807606.67      2.7387657      35.355572      25.844675      120.84681    
-807606.88      3.4414819      35.112683      25.89961       120.41599    
-807624.57      3.4550381      33.412207      25.91288       119.98532    
-807650.6       2.8934768      31.71882       25.896532      119.55545    
-807652.31      2.9074314      33.656809      25.808241      119.1279     
-807649.89      3.2121479      34.108444      25.872663      118.69937    
-807647.41      2.8059345      32.115765      25.870657      118.27128    
-807638.7       3.1269076      32.10219       25.837129      117.8443     
-807618.39      3.2056796      33.173723      25.863825      117.41714    
-807601.25      2.6413258      35.616692      25.895319      116.98972    
-807613.6       4.0008143      34.726898      25.868853      116.56323    
-807635.02      3.1035322      32.497052      25.870008      116.13709    
-807644.95      3.9364361      32.958014      25.873327      115.71126    
-807648         3.4311375      34.237788      25.894519      115.28538    
-807654.48      4.4843529      33.721429      25.847325      114.8608     
-807650.7       2.6495139      32.197464      25.798922      114.43752    
-807631.66      3.4268451      32.276184      25.800238      114.01454    
-807609.17      3.8629772      33.594762      25.845897      113.59101    
-807609.84      3.1381881      35.146898      25.880641      113.16714    
-807617.46      2.8660532      33.644027      25.888764      112.74346    
-807632.47      2.6459818      31.464992      25.853826      112.32077    
-807640.36      3.412108       33.238025      25.857025      111.89835    
-807656.6       2.662942       32.607454      25.861074      111.47618    
-807655.73      2.8263687      33.124947      25.80566       111.05534    
-807645.06      3.2397814      32.277078      25.792063      110.63505    
-807625.48      3.545612       33.071143      25.805999      110.2148     
-807618.22      3.4489486      34.071689      25.841116      109.7942     
-807612.13      3.7432884      34.768916      25.824803      109.37418    
-807616.53      3.137829       33.448116      25.862232      108.95379    
-807629.31      3.4322654      31.583724      25.899765      108.53304    
-807649.83      2.6389216      31.715137      25.883517      108.11286    
-807657.39      2.6918814      31.912204      25.858075      107.69342    
-807649.15      3.0478815      33.052298      25.840379      107.27456    
-807641.53      3.1313517      31.792359      25.872148      106.85544    
-807631.72      2.9502209      32.530987      25.886634      106.43634    
-807619.01      3.1361166      33.894408      25.865034      106.01789    
-807607.93      2.6791536      34.150637      25.861531      105.59976    
-807616.68      2.8224341      33.083852      25.877675      105.18164    
-807637.1       2.8139349      31.446917      25.870946      104.76388    
-807651.88      2.5852286      31.637115      25.836634      104.34695    
-807649.56      2.9624678      32.744493      25.868446      103.92975    
-807649.81      3.3454285      32.425863      25.831679      103.51339    
-807645.31      2.4610157      31.013495      25.826503      103.09735    
-807632.89      2.7188294      31.980003      25.831871      102.68146    
-807611.25      2.8723537      33.725255      25.856025      102.26544    
-807610.31      2.8160561      34.286157      25.88809       101.84915    
-807623.31      3.7805135      33.072819      25.896827      101.43298    
-807639.35      3.0609461      32.019975      25.886756      101.0172     
-807644.44      4.2059453      33.113099      25.898237      100.60148    
-807653.29      3.2989329      32.963223      25.872512      100.18639    
-807651.99      3.3541159      33.162441      25.85885       99.771722    
-807644.61      2.4284311      31.380678      25.898925      99.356691    
-807624.08      2.8841154      32.583112      25.889251      98.942029    
-807612.74      2.9720296      34.178952      25.891554      98.527557    
-807614.19      3.0358126      34.709999      25.860307      98.113756    
-807623.46      2.715726       33.319183      25.886662      97.69979     
-807634.07      3.5006814      32.037498      25.900767      97.285841    
-807646.78      2.8835788      32.239352      25.852402      96.872786    
-807656.84      2.9787392      32.180523      25.818702      96.460403    
-807649.38      3.5119611      32.534076      25.828175      96.048081    
-807637.12      2.887008       31.834503      25.834844      95.635861    
-807624.39      2.8808571      32.616124      25.84661       95.223673    
-807617.53      3.15936        34.529029      25.870371      94.811357    
-807612.93      3.1647163      34.601503      25.850554      94.399501    
-807620.57      2.8756398      32.707266      25.906006      93.987099    
-807636.32      2.7203944      32.045715      25.888609      93.575125    
-807650.18      2.9397737      32.790139      25.857355      93.16375     
-807650.39      2.9330968      32.674859      25.835245      92.752845    
-807645.15      2.4924591      32.859755      25.839148      92.342068    
-807635.41      3.6959011      32.55504       25.864843      91.931139    
-807629.47      3.8339367      32.621896      25.850316      91.520573    
-807612.29      3.1343804      34.520252      25.827318      91.11047     
-807611.82      3.7926753      35.382315      25.916505      90.699427    
-807624.35      3.9501064      33.2835        25.899919      90.288772    
-807642.63      3.2099734      31.971021      25.885066      89.878477    
-807644.88      3.9378493      33.546287      25.869222      89.468547    
-807648         3.1986959      32.870701      25.879012      89.058669    
-807645.2       3.3648286      32.600951      25.808901      88.649797    
-807639.11      2.50137        31.346802      25.825935      88.240877    
-807621.13      3.8391544      33.392492      25.879658      87.83148     
-807612.24      3.1838473      33.745611      25.841535      87.422691    
-807615.19      2.9821334      34.101273      25.870586      87.01372     
-807629.87      3.0310687      32.813249      25.836905      86.605295    
-807639.15      2.6364278      32.123958      25.860657      86.19675     
-807645.88      2.9164642      32.804988      25.876356      85.788181    
-807650         2.5389805      32.518629      25.861932      85.379929    
-807646.05      3.937541       32.781429      25.803976      84.972471    
-807634.19      3.1243212      32.355624      25.832346      84.564838    
-807620.55      2.692569       32.327545      25.868969      84.156947    
-807613.73      2.8450559      34.566822      25.881726      83.749065    
-807618.18      3.4958015      33.895421      25.881697      83.341332    
-807630.57      2.706949       31.395764      25.886564      82.933693    
-807637.89      3.2524656      32.16432       25.890725      82.526155    
-807650.92      3.4060329      32.08429       25.885174      82.118821    
-807651.16      2.7909825      32.426016      25.821496      81.712291    
-807646.54      3.59067        31.314346      25.822423      81.305882    
-807630.69      3.2730661      32.267033      25.865165      80.899164    
-807623.26      2.814139       33.332303      25.899909      80.492229    
-807614.69      2.7518173      34.318431      25.879751      80.085636    
-807618.59      2.7572446      33.383551      25.867408      79.679301    
-807627.02      3.2497841      32.660776      25.863904      79.273131    
-807645.38      2.7346753      32.300128      25.892991      78.866806    
-807650.53      3.356166       32.859994      25.873756      78.460801    
-807650.65      3.9657678      32.312414      25.832551      78.055321    
-807642.09      3.9710653      31.893989      25.839637      77.649894    
-807634.22      2.8048782      31.779998      25.857323      77.24442     
-807622.01      2.877805       33.099157      25.822292      76.839397    
-807613.2       2.6370172      33.742249      25.821817      76.434494    
-807618.14      2.6496078      32.683654      25.882329      76.029146    
-807636.66      2.4821017      30.873657      25.89404       75.623813    
-807646.46      2.7562392      31.341093      25.872484      75.218798    
-807648.99      2.543334       31.783629      25.897529      74.813678    
-807648.16      3.112721       31.931536      25.856267      74.409046    
-807643.7       2.9321831      32.740352      25.85906       74.004504    
-807633.47      3.2812175      32.322215      25.857589      73.600088    
-807616.83      3.2949075      34.094759      25.877857      73.195607    
-807614.21      3.2887374      34.738508      25.8661        72.791341    
-807622.71      3.0808419      34.216825      25.89671       72.386926    
-807637.66      3.7882186      31.929741      25.899661      71.982599    
-807640.26      3.4045464      33.270049      25.965147      71.577839    
-807649.86      3.3068026      32.565235      25.915299      71.173614    
-807647.72      3.7382354      32.915838      25.840798      70.770118    
-807642.32      3.0136646      31.657462      25.842692      70.366709    
-807625.94      3.8413054      32.39581       25.894087      69.962985    
-807618.19      3.5825796      33.57606       25.92974       69.559082    
-807616.7       2.6891382      33.409991      25.922281      69.15535     
-807624.84      2.4681769      33.073755      25.919301      68.751752    
-807631.64      3.6062427      33.210089      25.935146      68.348138    
-807644.07      3.1673571      33.2351        25.928329      67.944687    
-807649.27      3.282575       34.067057      25.915295      67.541444    
-807648.68      2.7736043      32.88505       25.870054      67.13865     
-807635.58      3.3198577      33.234481      25.864166      66.735998    
-807626.87      2.8785883      33.229947      25.909565      66.333103    
-807618.31      3.2045443      34.360386      25.936674      65.930109    
-807614.94      3.1652143      35.206412      25.924309      65.527309    
-807618.45      3.1703905      33.582671      25.952832      65.124404    
-807635.04      2.9728413      32.235903      25.962724      64.721533    
-807646.17      2.6794135      32.713062      25.989972      64.318573    
-807648.84      2.7719932      32.804691      25.913058      63.916262    
-807643.43      3.2447438      33.441296      25.899043      63.514147    
-807637.34      2.7543992      32.519212      25.927764      63.111925    
-807628.95      2.8970461      33.654153      25.927651      62.709801    
-807614.8       3.6807074      35.144028      25.928938      62.307764    
-807614.67      3.0132144      34.184168      25.954502      61.90565     
-807622.83      4.5511161      34.457969      25.927107      61.503817    
-807639.37      3.073931       33.062624      25.910685      61.102185    
-807643.48      4.2147852      33.637529      25.864479      60.700948    
-807646.9       2.9179954      33.393105      25.873743      60.299735    
-807644.42      3.2539781      33.439189      25.862354      59.898679    
-807640.16      3.3294273      32.123499      25.902604      59.497449    
-807623.34      3.0823104      33.179526      25.897418      59.096337    
-807614.51      3.9178572      34.701196      25.91235       58.695217    
-807616.59      3.454862       34.450579      25.915731      58.294162    
-807628.04      4.0120834      34.012961      25.863493      57.893515    
-807636.22      3.535793       32.684022      25.900636      57.49272     
-807644.81      4.4471182      33.334462      25.923736      57.091868    
-807648.67      3.2887733      32.900581      25.852235      56.691528    
-807645.81      3.5530148      32.869009      25.890904      56.291035    
-807633.89      2.9266147      32.887013      25.912678      55.890494    
-807623.6       3.3687518      33.688723      25.958435      55.489769    
-807618.9       3.5312243      34.334047      25.9451        55.089206    
-807620.85      3.0142379      34.151148      25.93579       54.68878     
-807626.68      3.2128352      32.750852      25.929802      54.288469    
-807638.12      3.1893623      32.638121      25.991392      53.887898    
-807648.77      2.8646019      31.417171      25.956652      53.487603    
-807647.15      2.3691606      32.76213       25.959094      53.087378    
-807641.49      3.1938379      32.275716      25.94274       52.687322    
-807633.07      2.4201207      31.923914      25.966495      52.287219    
-807628.35      2.9877028      32.177696      25.95143       51.887277    
-807617.39      3.3219536      33.586992      25.942256      51.487461    
-807619.47      3.0270397      33.589619      25.920399      51.087836    
-807628.2       3.0369981      32.898333      25.89857       50.688397    
-807642.41      4.1785059      32.432276      25.877923      50.289134    
-807645.45      2.7932112      33.042765      25.852473      49.890068    
-807644.93      3.8939849      33.425277      25.854723      49.491057    
-807641.89      3.8187655      32.808695      25.942477      49.091679    
-807636.07      3.506723       32.885165      25.903152      48.692565    
-807623.48      3.7018121      34.250334      25.901105      48.293531    
-807616.26      3.2470962      34.029874      25.89103       47.894613    
-807620.05      3.1496694      33.641521      25.934517      47.495557    
-807632.19      2.8555627      32.987571      25.913274      47.09667     
-807639.61      3.4427788      32.757737      25.893044      46.697945    
-807644.92      3.6658201      32.930461      25.899554      46.299255    
-807644.06      3.6043719      33.795656      25.949464      45.900407    
-807644.1       2.7851211      32.438829      25.896622      45.501863    
-807630.46      3.3128144      33.827814      25.9303        45.103236    
-807619.88      2.7838929      34.139271      25.925511      44.704696    
-807616.42      2.4949401      33.960924      25.923356      44.306232    
-807622.22      2.5279451      34.362376      25.916824      43.907861    
-807631.38      2.8689371      32.594278      25.936255      43.509473    
-807638.57      3.5249151      33.341043      25.948679      43.111098    
-807644.65      4.1150363      33.373932      25.944113      42.712809    
-807647.89      3.4809194      33.105294      25.91795       42.314691    
-807637.76      4.1983863      33.655726      25.914704      41.916649    
-807626.95      3.8707945      34.346192      25.887763      41.518774    
-807621.45      4.3325033      34.18545       25.91492       41.120852    
-807617.87      3.6601937      35.733683      25.862438      40.723194    
-807619.4       5.4496787      35.131076      25.943422      40.325282    
-807629.17      4.3282759      34.156149      25.958144      39.927377    
-807641.56      5.2549972      33.543809      25.95661       39.529541    
-807645.4       3.3714369      33.938057      25.950376      39.13179     
-807643.42      2.7183625      33.349839      25.943182      38.734127    
-807635.37      3.2018403      33.61086       25.913804      38.33663     
-807630.58      3.3008263      33.337987      25.920686      37.939166    
-807622.95      3.312737       34.066889      25.882536      37.541893    
-807617.15      3.1846552      34.332092      25.91287       37.144569    
-807620.31      3.3369649      34.392759      25.927285      36.747253    
-807634.56      3.5546539      32.880363      25.92606       36.349997    
-807642.04      3.1779256      32.689886      25.922291      35.95281     
-807643.67      3.0200239      32.867854      25.925773      35.555667    
-807641.54      3.2756827      33.113669      25.913719      35.158619    
-807640.31      2.7188912      31.889174      25.92391       34.761593    
-807631.12      4.0180335      32.473663      25.935316      34.364586    
-807620.19      3.4503649      33.915872      25.925008      33.967665    
-807618.68      4.8779346      33.762156      25.932014      33.570778    
-807626.55      3.008808       33.667793      25.914962      33.173995    
-807635.45      4.3340324      32.717959      25.921742      32.777245    
-807639.7       3.6652722      33.456585      25.884365      32.380657    
-807643.4       2.9157236      33.492508      25.893812      31.98409     
-807643.45      3.1896857      33.362869      25.879004      31.587615    
-807638.71      3.4036897      33.104936      25.905603      31.191113    
-807627.53      3.3445364      33.5731        25.931957      30.794589    
-807621.94      3.3243276      33.757839      25.931986      30.398115    
-807621.51      3.3536418      34.352881      25.927398      30.001706    
-807626.16      2.98333        33.19916       25.92714       29.605347    
-807634.06      2.9785907      32.602459      25.954346      29.208968    
-807641.66      3.4144572      33.212134      25.960798      28.812625    
-807645.83      3.3443413      32.78756       25.95932       28.416337    
-807644.27      3.4637796      32.144598      25.899568      28.020249    
-807635.84      2.8136714      32.60597       25.873458      27.62427     
-807628.85      3.5131461      33.082576      25.924562      27.228213    
-807624.72      2.8609993      32.728124      25.928703      26.832194    
-807620.64      2.8801223      34.111774      25.923886      26.436234    
-807624.79      2.5829928      32.791389      25.966476      26.040225    
-807636.63      3.0048045      31.889758      25.917101      25.644376    
-807643.27      3.0610905      32.474012      25.925975      25.248553    
-807645.71      2.7661175      32.808346      25.929004      24.85277     
-807640.62      3.3443364      33.077197      25.911736      24.457069    
-807636.94      3.3760768      33.126757      25.897774      24.061442    
-807628.55      2.739196       33.389575      25.826289      23.666004    
-807621.63      2.7683827      34.237012      25.884042      23.270488    
-807618.31      2.951533       34.991972      25.920282      22.874942    
-807628.44      3.0655714      33.692633      25.916609      22.479447    
-807636.43      3.2850276      32.615337      25.859481      22.084103    
-807639.79      3.7016372      33.653796      25.914399      21.688697    
-807641.72      3.2204377      33.133912      25.915595      21.293331    
-807641.53      3.341337       32.542651      25.863886      20.8981      
-807633.93      2.6085886      33.56869       25.918631      20.502812    
-807625.53      3.3109882      33.973105      25.894725      20.107606    
-807619.62      3.3867896      34.820206      25.929304      19.712383    
-807622.01      3.4840428      34.757161      25.909996      19.317234    
-807628.31      2.9460147      34.653855      25.908027      18.922129    
-807635.46      3.0780914      33.328213      25.936096      18.527021    
-807639.97      3.5354745      33.678639      25.954036      18.131928    
-807642.22      3.6895049      34.428106      25.983303      17.736835    
-807639.22      3.3456884      33.308065      25.914076      17.341886    
-807630.59      2.9809709      33.796056      25.93161       16.946952    
-807625.81      3.6985383      33.837642      25.936645      16.552051    
-807621.67      3.3286919      34.267424      25.958435      16.157163    
-807621.86      3.8058976      35.826988      25.923229      15.762362    
-807628.4       3.8610842      34.512718      25.93891       15.367581    
-807635.83      4.5025638      34.426816      25.914549      14.972869    
-807642.2       4.0573012      34.385217      25.912894      14.578198    
-807642.09      3.2600717      33.904209      25.868568      14.183616    
-807636.6       3.5459724      33.49806       25.836435      13.789104    
-807632.49      4.2237688      32.828606      25.830608      13.394631    
-807624.67      3.3862212      33.748122      25.854821      13.000164    
-807622.49      3.4837891      34.329895      25.898851      12.605684    
-807621.4       2.938357       33.97318       25.93766       12.211202    
-807630.88      3.3319998      33.518202      25.925727      11.816769    
-807637.47      3.0174973      33.313404      25.924562      11.422375    
-807641.83      3.2871674      33.451376      25.925121      11.028016    
-807641.58      3.0188093      33.217794      25.921211      10.633698    
-807639.5       3.2186257      32.675273      25.880964      10.239448    
-807631.6       2.5508261      33.044089      25.922295      9.8451991    
-807625.41      2.9317433      34.134398      25.928543      9.4509811    
-807619.76      3.0422018      34.116207      25.970272      9.056769     
-807625.42      3.0634016      33.585055      25.961504      8.6626013    
-807631.99      3.2946682      33.318171      25.972717      8.2684637    
-807637.47      3.0257296      33.614054      25.945523      7.8743809    
-807642         3.3960808      32.593447      25.956219      7.4803279    
-807641.57      3.8567833      32.586174      25.960219      7.0863091    
-807638.22      3.7545697      32.412883      25.966796      6.6923234    
-807631.13      3.1644547      32.191032      25.995908      6.2983602    
-807624.15      3.4053017      32.875643      25.980653      5.9044422    
-807622.1       3.0746898      33.658097      25.973363      5.5105644    
-807626.21      3.3011303      32.563436      25.966768      5.1167256    
-807632.3       3.2355064      32.826051      25.930309      4.722936     
-807640.49      3.9949172      32.689718      25.932145      4.329179     
-807642.66      3.4316184      33.400993      25.907478      3.9354627    
-807641.37      3.6946831      33.638404      25.843084      3.5417956    
-807636.17      2.4713261      32.812779      25.805288      3.1481649    
-807630.12      3.1417714      33.572303      25.851423      2.7545492    
-807623         3.2840758      34.462993      25.89133       2.3609538    
-807622.27      3.2307169      34.117529      25.909021      1.9673855    
-807625.71      3.1904604      34.6336        25.920531      1.5738464    
-807633.97      3.0228979      33.760657      25.92269       1.1803384    
-807640.91      2.5809059      33.096915      25.932554      0.78686079   
-807643.84      3.3494955      33.276124      25.934268      0.39341468   
-807640.07      3.1225934      32.928235      25.92998       0            
Loop time of 196.7 on 32 procs for 5000 steps with 1080 atoms

Performance: 4.392 ns/day, 5.464 hours/ns, 25.419 timesteps/s, 27.453 katom-step/s
67.6% CPU use with 32 MPI tasks x 1 OpenMP threads

MPI task timing breakdown:
Section |  min time  |  avg time  |  max time  |%varavg| %total
---------------------------------------------------------------
Pair    | 105.14     | 145.23     | 192.5      | 305.6 | 73.83
Neigh   | 0          | 0          | 0          |   0.0 |  0.00
Comm    | 1.9024     | 49.176     | 89.257     | 525.1 | 25.00
Output  | 0.025544   | 0.02784    | 0.029557   |   0.3 |  0.01
Modify  | 1.9442     | 1.9538     | 1.9654     |   0.4 |  0.99
Other   |            | 0.3156     |            |       |  0.16

Nlocal:          33.75 ave          48 max          21 min
Histogram: 8 8 0 0 0 0 0 8 0 8
Nghost:        1106.25 ave        1119 max        1092 min
Histogram: 8 0 8 0 0 0 0 0 8 8
Neighs:              0 ave           0 max           0 min
Histogram: 32 0 0 0 0 0 0 0 0 0
FullNghs:       5494.5 ave        7896 max        3378 min
Histogram: 8 8 0 0 0 0 0 8 0 8

Total # of neighbors = 175824
Ave neighs/atom = 162.8
Neighbor list builds = 0
Dangerous builds = 0

reset_timestep 0


variable interval equal 1000
thermo 10

variable nintervals equal $(v_PERIOD/v_interval)
variable nintervals equal 100
variable efield equal 1e-2*36.36*cos((step/${PERIOD})*2*3.14)
variable efield equal 1e-2*36.36*cos((step/100000)*2*3.14)
fix born all addbornforce 0.0 0.0 v_efield

variable Px equal f_born[1]+c_polarization[1]
variable Py equal f_born[2]+c_polarization[2]
variable Pz equal (f_born[3]+c_polarization[3])/vol
variable pe equal pe

fix aveP all ave/time 1 $(v_interval/2) ${interval} v_efield v_Pz v_pe f_born file Pz.${MODEL}.${STRUCTURE}.${TEMP}.$L.${ITER}
fix aveP all ave/time 1 500 ${interval} v_efield v_Pz v_pe f_born file Pz.${MODEL}.${STRUCTURE}.${TEMP}.$L.${ITER}
fix aveP all ave/time 1 500 1000 v_efield v_Pz v_pe f_born file Pz.${MODEL}.${STRUCTURE}.${TEMP}.$L.${ITER}
fix aveP all ave/time 1 500 1000 v_efield v_Pz v_pe f_born file Pz.BaTiO3-E0.${STRUCTURE}.${TEMP}.$L.${ITER}
fix aveP all ave/time 1 500 1000 v_efield v_Pz v_pe f_born file Pz.BaTiO3-E0.BaTiO3-sc333.${TEMP}.$L.${ITER}
fix aveP all ave/time 1 500 1000 v_efield v_Pz v_pe f_born file Pz.BaTiO3-E0.BaTiO3-sc333.290.$L.${ITER}
fix aveP all ave/time 1 500 1000 v_efield v_Pz v_pe f_born file Pz.BaTiO3-E0.BaTiO3-sc333.290.2.${ITER}
fix aveP all ave/time 1 500 1000 v_efield v_Pz v_pe f_born file Pz.BaTiO3-E0.BaTiO3-sc333.290.2.5

thermo_style custom step time temp press pe f_born v_efield v_Pz spcpu cpuremain

# dump 4a all custom 1000 dump.hyst.${MODEL}.${STRUCTURE}.${TEMP}.$L.${ITER}.bin id type xu yu zu fx fy fz
# dump_modify 4a sort id

fix nvt all nvt temp ${TEMP} ${TEMP} $(100*dt)
fix nvt all nvt temp 290 ${TEMP} $(100*dt)
fix nvt all nvt temp 290 290 $(100*dt)
fix nvt all nvt temp 290 290 0.2000000000000000111

run $(v_PERIOD)
run 100000
WARNING: non-constant efield is experimental, strongly distrust scalar/vector output (src/fix_addbornforce.cpp:193)
Per MPI rank memory allocation (min/avg/max) = 3.516 | 3.516 | 3.516 Mbytes
   Step          Time           Temp          Press          PotEng         f_born        v_efield         v_Pz          S/CPU         CPULeft    
         0   0              282.89801      127446.99     -807640.07     -295.55077      0.3636         0.05558476     0              0            
        10   0.02           287.95553      131205.08     -807634.74     -301.64154      0.36359993     0.056730274    26.953518      3709.7394    
        20   0.04           303.25848      136445.83     -807630.02     -308.49486      0.36359971     0.058019224    27.037968      3703.5654    
        30   0.06           286.74307      141216.28     -807622.81     -313.41815      0.36359935     0.058945215    27.025286      3701.8394    
        40   0.08           285.71131      141924.21     -807622.37     -313.67447      0.36359885     0.058993502    26.996293      3701.7845    
        50   0.1            295.83374      137713        -807628.44     -309.06359      0.36359821     0.058126428    27.013447      3701.1332    
        60   0.12           294.75124      131950.4      -807635.36     -301.94954      0.36359742     0.056788591    27.003069      3700.8135    
        70   0.14           291.0126       126407.91     -807641.56     -295.15819      0.36359649     0.055511464    27.000808      3700.5226    
        80   0.16           285.87326      125387.35     -807643.01     -292.93651      0.36359541     0.055093787    27.019778      3699.8867    
        90   0.18           278.49318      127547.73     -807639.76     -295.22388      0.36359419     0.055524168    26.99699       3699.6571    
       100   0.2            298.94322      132745.85     -807635.53     -302.29187      0.36359283     0.056853692    27.007449      3699.2561    
       110   0.22           299.47582      137263.18     -807628.81     -309.11891      0.36359132     0.058137932    26.99699       3698.9909    
       120   0.24           287.60184      142272.07     -807621.76     -314.4494       0.36358968     0.059140739    27.014497      3698.5084    
       130   0.26           291.44778      140690.87     -807623.96     -312.72713      0.36358788     0.05881711     27.018799      3697.9979    
       140   0.28           289.26861      136712.17     -807628.21     -308.10866      0.36358595     0.057948786    27.021303      3697.483     
       150   0.3            304.05882      130484.31     -807637.28     -301.034        0.36358387     0.056618513    27.024536      3696.9579    
       160   0.32           279.94449      126998.16     -807638.72     -296.21639      0.36358165     0.055712757    27.026128      3696.4386    
       170   0.34           279.19029      125819.39     -807641.41     -293.29701      0.36357928     0.055164036    26.997657      3696.166     
       180   0.36           289.74169      126850.05     -807640.81     -295.31427      0.36357677     0.05554383     26.951377      3696.2353    
       190   0.38           296.87358      132417.21     -807633.3      -303.71624      0.36357412     0.057124522    26.977554      3696.0693    
       200   0.4            292.54638      137983.47     -807626.05     -310.31926      0.36357132     0.058366901    26.985476      3695.8281    
       210   0.42           295.05586      141922.35     -807622.95     -313.57772      0.36356838     0.058980249    27.027653      3695.3       
       220   0.44           292.47833      139680.79     -807624.77     -311.26903      0.3635653      0.058546509    27.045286      3694.6769    
       230   0.46           306.91894      135974.94     -807629.84     -308.03389      0.36356207     0.057938527    27.036635      3694.1271    
       240   0.48           293.3588       130269        -807635.12     -300.75426      0.3635587      0.056569816    27.014736      3693.7169    
       250   0.5            293.81783      127207.08     -807640.27     -295.40932      0.36355519     0.055565006    26.990349      3693.4436    
       260   0.52           278.75093      125728.87     -807640.87     -292.57848      0.36355153     0.055033093    26.943648      3693.4088    
       270   0.54           290.54848      129750.32     -807637.73     -297.19518      0.36354773     0.055902063    26.950022      3693.3168    
       280   0.56           301.33729      133588.72     -807631.24     -305.18549      0.36354379     0.057405654    26.956989      3693.1708    
       290   0.58           296.6039       140354.54     -807623.83     -311.68385      0.3635397      0.058628659    26.961004      3692.9902    
       300   0.6            290.74757      140565.63     -807622.92     -311.70063      0.36353547     0.058632499    26.988823      3692.6699    
       310   0.62           304.49086      140627.32     -807624.65     -311.72763      0.3635311      0.058638283    27.002636      3692.2854    
       320   0.64           307.52118      134372.26     -807629.98     -306.78106      0.36352658     0.057708514    27.042033      3691.7337    
       330   0.66           302.59763      130557.09     -807635.49     -300.43238      0.36352192     0.05651499     27.0023        3691.3574    
       340   0.68           286.772        125978.39     -807641.2      -292.46675      0.36351712     0.055017285    27.005697      3690.9679    
       350   0.7            290.28523      127240.79     -807640.03     -294.04583      0.36351217     0.055315084    26.988212      3690.6476    
       360   0.72           300.89688      128821.28     -807636.77     -298.8386       0.36350708     0.056217475    26.968327      3690.4002    
       370   0.74           302.78999      134352.94     -807629.98     -305.84984      0.36350185     0.057537256    26.977986      3690.1104    
       380   0.76           308.18978      137715.4      -807627.15     -309.44162      0.36349647     0.058213814    26.991438      3689.7679    
       390   0.78           299.62421      141605.34     -807622.81     -312.57717      0.36349095     0.058804583    27.013712      3689.346     
       400   0.8            293.09881      139560.82     -807622.96     -311.73501      0.36348529     0.058647061    27.028571      3688.876     
       410   0.82           298.82713      135199.89     -807629.39     -306.12958      0.36347948     0.057593426    27.052358      3688.3318    
       420   0.84           295.84357      129846.29     -807636.99     -298.22758      0.36347353     0.056107709    27.012738      3687.9245    
       430   0.86           290.39382      126357.15     -807640.05     -294.52894      0.36346744     0.055412785    26.945275      3687.7335    
       440   0.88           282.99484      127994.43     -807637.55     -296.2117       0.3634612      0.055730337    26.901671      3687.6704    
       450   0.9            299.55736      129123.19     -807637.03     -299.34127      0.36345482     0.056320135    26.894547      3687.6155    
       460   0.92           314.01207      134884.13     -807633.23     -305.34491      0.3634483      0.057450732    26.964137      3687.3391    
       470   0.94           288.14352      138423.81     -807624.97     -310.33117      0.36344163     0.058389968    26.937175      3687.1372    
       480   0.96           302.2813       141226.15     -807623.7      -313.83674      0.36343482     0.059050662    26.949708      3686.8926    
       490   0.98           290.59557      137387.06     -807626.23     -309.97146      0.36342786     0.058324497    26.98187       3686.5529    
       500   1              300.07563      134302.07     -807633.41     -304.32321      0.36342077     0.057262835    26.989703      3686.1906    
       510   1.02           289.75683      127743.41     -807639.08     -9519.4008      0.36341353     0.055976542    26.937737      3685.9674    
       520   1.04           279.41514      128311.68     -807638.48     -9496.185       0.36340614     0.055841162    26.960659      3685.6782    
       530   1.06           286.5576       125630.47     -807641.93     -9425.0528      0.36339862     0.055424025    26.961273      3685.3843    
       540   1.08           292.69099      131987.3      -807636.18     -9637.6949      0.36339095     0.056675663    26.990649      3685.0131    
       550   1.1            283.81236      134051.54     -807631.2      -9767.0738      0.36338313     0.057437727    27.024664      3684.5577    
       560   1.12           284.32616      141757.49     -807623.65     -10010.334      0.36337518     0.058869569    26.99758       3684.1713    
       570   1.14           289.18823      137988.35     -807626.61     -9943.2529      0.36336707     0.058476376    26.988497      3683.8071    
       580   1.16           289.94965      138735.63     -807627.53     -9913.6738      0.36335883     0.058303744    26.982902      3683.4559    
       590   1.18           288.3219       130931.38     -807634.66     -9682.5592      0.36335044     0.05694584     26.963162      3683.1498    
       600   1.2            282.17396      130138.2      -807636.63     -9589.1834      0.36334191     0.056397995    26.930158      3682.9168    
       610   1.22           279.09799      125111.08     -807641.63     -9418.9463      0.36333324     0.055398082    26.948338      3682.6384    
       620   1.24           283.59169      128204.57     -807640.08     -9486.2707      0.36332442     0.055795408    26.948207      3682.3574    
       630   1.26           284.93145      130343.91     -807635.41     -9644.5852      0.36331546     0.056727966    26.992735      3681.9769    
       640   1.28           292.60285      136310.2      -807630.47     -9834.8028      0.36330636     0.057848246    26.925423      3681.7405    
       650   1.3            286.90013      138461.74     -807626.23     -9944.6861      0.36329711     0.058496067    26.929413      3681.4916    
       660   1.32           285.45642      138846.93     -807626.48     -9927.9178      0.36328772     0.058398943    26.886956      3681.3272    
       670   1.34           295.83276      136578.73     -807630.32     -9847.5895      0.36327819     0.057927949    26.910221      3681.109     
       680   1.36           289.39009      132086.4      -807634.01     -9697.3309      0.36326851     0.05704558     26.903654      3680.8995    
       690   1.38           295.49873      128297.45     -807640.26     -9521.4967      0.36325869     0.05601273     26.932656      3680.6276    
       700   1.4            278.57009      126192.32     -807641.02     -9418.8704      0.36324873     0.055410524    26.930083      3680.358     
       710   1.42           287.95362      128216.27     -807638.84     -9527.6082      0.36323863     0.056051779    26.938139      3680.0699    
       720   1.44           283.30499      131450.22     -807633.26     -9685.3793      0.36322838     0.056981569    26.964981      3679.7287    
       730   1.46           293.15291      137133.95     -807629.29     -9850.7102      0.36321798     0.057955911    26.897872      3679.5124    
       740   1.48           289.58753      138578.91     -807626.48     -9922.5924      0.36320745     0.058380518    26.869489      3679.3446    
       750   1.5            282.04068      140536.84     -807623.49     -9978.456       0.36319677     0.058710923    26.910171      3679.0969    
       760   1.52           292.29842      134930.28     -807630.02     -9812.3248      0.36318595     0.057735166    26.907972      3678.8499    
       770   1.54           293.39497      132058.78     -807634.48     -9666.0563      0.36317498     0.056876248    26.962295      3678.5032    
       780   1.56           291.89587      126690.94     -807640.19     -9472.3059      0.36316387     0.055737902    26.927591      3678.2166    
       790   1.58           281.78483      128717.46     -807638.26     -9481.3939      0.36315262     0.055793107    26.95631       3677.8782    
       800   1.6            294.02239      127437.36     -807638.72     -9519.5423      0.36314122     0.056019349    26.956792      3677.5382    
       810   1.62           296.25522      134215.51     -807632.98     -9707.0957      0.36312968     0.057124853    26.948411      3677.2115    
       820   1.64           297.2707       135843.47     -807629.26     -9828.0659      0.363118       0.057838606    26.913019      3676.9428    
       830   1.66           286.33022      140858.81     -807622.12     -10001.084      0.36310618     0.058858741    26.894027      3676.703     
       840   1.68           293.27879      137331.81     -807626.11     -9902.742       0.36309421     0.058281897    26.882303      3676.4791    
       850   1.7            296.26992      136389.84     -807629.43     -9801.0207      0.3630821      0.057685148    26.927383      3676.1791    
       860   1.72           289.51088      131189.82     -807634.42     -9608.7526      0.36306984     0.056555439    27.0125        3675.7426    
       870   1.74           298.99068      128962.18     -807638.91     -9499.0817      0.36305745     0.055911844    26.981556      3675.356     
       880   1.76           290.43298      126375.34     -807640.02     -9421.0134      0.3630449      0.055454247    26.971569      3674.9852    
       890   1.78           297.0129       130363.5      -807637.19     -9534.8038      0.36303222     0.056126005    26.900919      3674.7228    
       900   1.8            300.66996      133550.09     -807632.4      -9699.2462      0.36301939     0.057096002    26.954483      3674.3766    
       910   1.82           305.08858      137761.6      -807626.85     -9889.5229      0.36300642     0.058218173    26.958254      3674.0243    
       920   1.84           299.4853       139185.12     -807623.75     -9956.2041      0.36299331     0.058612833    26.957269      3673.673     
       930   1.86           293.66649      139110.55     -807624.32     -9903.6445      0.36298005     0.05830554     26.882984      3673.4305    
       940   1.88           304.52135      135059.8      -807629.43     -9779.6685      0.36296665     0.057577785    26.862507      3673.2151    
       950   1.9            300.14657      131550.94     -807633.63     -9616.4697      0.36295311     0.056619064    26.943578      3672.8796    
       960   1.92           296.98293      128599.33     -807637.83     -9453.9002      0.36293942     0.055664       26.885811      3672.6257    
       970   1.94           299.02524      127728.87     -807638.96     -9415.4555      0.36292559     0.055439752    26.838882      3672.4357    
       980   1.96           303.24823      130826.06     -807635.01     -9552.4327      0.36291162     0.056248462    26.803727      3672.2914    
       990   1.98           299.77593      135277.3      -807628.27     -9743.4833      0.3628975      0.057375675    26.842806      3672.0881    
      1000   2              313.86355      137968.21     -807626.36     -9858.6738      0.36288325     0.058056268    26.815062      3671.9196    
      1010   2.02           302.25047      140267.94     -807621.88     -310.69294      0.36286884     0.058550313    26.917902      3671.6074    
      1020   2.04           319.25575      138579.74     -807625.13     -309.62263      0.3628543      0.058350952    26.936431      3671.2692    
      1030   2.06           313.46019      134328.4      -807628.96     -304.8524       0.36283961     0.057454287    26.962249      3670.8963    
      1040   2.08           311.99328      130873.19     -807634.55     -298.94571      0.36282478     0.056343382    26.962264      3670.5233    
      1050   2.1            301.01326      127604.06     -807637.7      -294.29255      0.3628098      0.055468672    26.988427      3670.1166    
      1060   2.12           300.51027      129422.25     -807635.42     -296.54113      0.36279469     0.055894817    26.996009      3669.7008    
      1070   2.14           298.15688      131455.33     -807632.5      -299.32865      0.36277943     0.056422607    27.00303       3669.2769    
      1080   2.16           314.1518       135949.4      -807630.21     -303.98971      0.36276402     0.057303637    26.966784      3668.8996    
      1090   2.18           311.24341      137312.33     -807626.3      -307.736        0.36274848     0.058012318    26.955975      3668.536     
      1100   2.2            305.69076      140577.31     -807622.47     -311.00749      0.36273279     0.058631574    26.967845      3668.1575    
      1110   2.22           314.38173      136808.75     -807627.33     -307.72363      0.36271695     0.058015028    26.958959      3667.79      
      1120   2.24           305.67221      133860.38     -807631.05     -303.0904       0.36270098     0.057144044    26.955219      3667.427     
      1130   2.26           298.64545      130324.81     -807635.37     -298.1159       0.36268486     0.05620866     26.988493      3667.0239    
      1140   2.28           289.08423      129115.66     -807635.86     -296.56181      0.3626686      0.055918149    27.025578      3666.5773    
      1150   2.3            297.79379      128586.04     -807637.66     -296.20763      0.36265219     0.055853893    27.018311      3666.1405    
      1160   2.32           297.4841       131499.48     -807634.1      -299.9489       0.36263564     0.05656194     27.034018      3665.6865    
      1170   2.34           301.34323      135550.94     -807630.15     -304.63546      0.36261895     0.057448338    27.023849      3665.2458    
      1180   2.36           302.36926      138565.5      -807625.52     -309.58118      0.36260212     0.058383715    27.03119       3664.7978    
      1190   2.38           296.68381      138143.04     -807624.93     -309.57169      0.36258514     0.05838466     26.999918      3664.3867    
      1200   2.4            295.07793      136875.35     -807628.24     -306.12293      0.36256802     0.057736955    27.011817      3663.9629    
      1210   2.42           291.04527      133143.68     -807632.09     -301.88472      0.36255076     0.05694031     26.993505      3663.5605    
      1220   2.44           290.37906      129408.16     -807635.73     -298.24021      0.36253335     0.056255598    26.991627      3663.1607    
      1230   2.46           288.03017      128303.97     -807638.29     -295.41322      0.3625158      0.055725055    26.991688      3662.7612    
      1240   2.48           292.38115      128232.78     -807639.2      -295.28137      0.36249811     0.055702902    26.930903      3662.4289    
      1250   2.5            297.03659      132971.26     -807633.6      -301.63221      0.36248028     0.056903744    26.90241       3662.127     
      1260   2.52           296.45993      134711.86     -807629.86     -305.49989      0.3624623      0.057636252    26.884054      3661.8439    
      1270   2.54           295.24659      140090.38     -807626.22     -309.04218      0.36244418     0.058307463    26.938438      3661.5009    
      1280   2.56           291.8302       138137.21     -807626.46     -308.4942       0.36242592     0.058207008    26.981922      3661.1115    
      1290   2.58           294.53197      137104.33     -807628.33     -307.06415      0.36240751     0.057940127    26.995943      3660.7075    
      1300   2.6            294.00916      131537.14     -807634.81     -300.70232      0.36238896     0.056742613    26.958548      3660.3431    
      1310   2.62           295.82822      128810.53     -807638.79     -297.04389      0.36237027     0.056055159    26.904463      3660.0348    
      1320   2.64           290.35691      126693.64     -807640.46     -294.76892      0.36235143     0.05562874     26.95766       3659.6707    
      1330   2.66           287.3458       129747.75     -807637.31     -297.61842      0.36233245     0.05616944     26.960386      3659.3037    
      1340   2.68           282.87937      131885.35     -807633.47     -301.0385       0.36231333     0.056817908    26.942888      3658.9544    
      1350   2.7            289.00965      136648.39     -807629.12     -306.30281      0.36229407     0.057814568    26.964057      3658.5835    
      1360   2.72           283.19914      137584.83     -807626.17     -308.64647      0.36227466     0.058260053    26.973246      3658.2034    
      1370   2.74           285.93107      138529.21     -807625.73     -309.5041       0.36225511     0.058425092    26.978811      3657.8179    
      1380   2.76           294.01452      134154.19     -807631.67     -304.81399      0.36223542     0.057542868    27.008266      3657.4038    
      1390   2.78           285.82104      132372.05     -807633.86     -301.48498      0.36221558     0.056917532    26.977738      3657.02      
      1400   2.8            285.98848      128597.42     -807638.8      -296.74767      0.3621956      0.056026264    27.015466      3656.5999    
      1410   2.82           284.70563      128395.67     -807639.08     -296.3936       0.36217548     0.055962523    27.019861      3656.1764    
      1420   2.84           280.10526      128862.99     -807636.86     -298.01886      0.36215522     0.05627254     27.017658      3655.7556    
      1430   2.86           283.11252      132723.87     -807633.65     -301.72505      0.36213481     0.05697556     26.967048      3655.3835    
      1440   2.88           287.99912      135223.56     -807630.49     -305.64993      0.36211426     0.057719982    26.984856      3654.9947    
      1450   2.9            293.69069      138039.3      -807628.2      -308.75157      0.36209357     0.058309038    27.02542       3654.5683    
      1460   2.92           289.76131      137012.06     -807628.83     -307.62515      0.36207273     0.058099653    26.96555       3654.1981    
      1470   2.94           284.75         134250.37     -807632.56     -303.18045      0.36205176     0.057263522    26.948456      3653.8436    
      1480   2.96           292.34377      130689.46     -807636.71     -300.04185      0.36203064     0.056674021    26.966266      3653.4727    
      1490   2.98           278.42512      128312.08     -807638.03     -296.78529      0.36200937     0.056062192    26.984541      3653.0851    
      1500   3              276.48339      129169.2      -807638.46     -296.01459      0.36198796     0.055919916    26.975751      3652.7057    
      1510   3.02           287.16393      128774.3      -807638.84     -9506.4443      0.36196642     0.056123839    26.925495      3652.3715    
      1520   3.04           295.29984      133639.53     -807633.83     -9698.7993      0.36194472     0.05726289     26.955188      3652.0104    
      1530   3.06           279.74183      136115.32     -807627.82     -9821.8799      0.36192289     0.057993071    26.948411      3651.6551    
      1540   3.08           291.45983      138561.08     -807627.73     -9871.3113      0.36190091     0.058288477    26.897852      3651.3442    
      1550   3.1            282.84281      135756.17     -807629.4      -9776.1439      0.36187879     0.057730058    26.829191      3651.0929    
      1560   3.12           280.75487      135719.32     -807629.95     -9743.0869      0.36185653     0.05753839     26.839209      3650.8313    
      1570   3.14           281.82833      129199.05     -807635.04     -9582.3165      0.36183412     0.056592454    26.888679      3650.5254    
      1580   3.16           282.9213       128833.1      -807638.04     -9479.935       0.36181157     0.055991286    26.930255      3650.1828    
      1590   3.18           284.83814      126598.16     -807639.83     -9425.7885      0.36178888     0.055674973    26.925125      3649.8442    
      1600   3.2            291.84885      131615        -807634.93     -9604.3103      0.36176605     0.056733022    26.898686      3649.5277    
      1610   3.22           294.48395      133260.52     -807631.81     -9709.9652      0.36174307     0.057360772    26.906687      3649.2038    
      1620   3.24           292.2131       138167.19     -807627.59     -9821.8364      0.36171995     0.05802535     26.966728      3648.8289    
      1630   3.26           291.37831      136810.78     -807628.21     -9790.8767      0.36169669     0.057846167    26.952398      3648.4661    
      1640   3.28           295.10789      137933.77     -807627.22     -9826.9929      0.36167329     0.058063304    26.92945       3648.1221    
      1650   3.3            295.14703      132115.26     -807632.15     -9664.9801      0.36164974     0.057109761    26.877665      3647.8204    
      1660   3.32           301.19543      130543.98     -807636.26     -9548.9348      0.36162605     0.056427753    26.874643      3647.5204    
      1670   3.34           296.66785      126962.59     -807639.43     -9421.8048      0.36160222     0.05568017     26.949506      3647.1586    
      1680   3.36           294.15869      129547.62     -807636.47     -9498.236       0.36157824     0.056135579    26.94009       3646.8043    
      1690   3.38           294.55793      130495.65     -807633.48     -9594.3932      0.36155413     0.05670766     26.943375      3646.4472    
      1700   3.4            301.32305      134913.43     -807630.66     -9709.3268      0.36152987     0.057390826    26.96362       3646.0738    
      1710   3.42           295.94295      137191.06     -807627.43     -9786.0522      0.36150546     0.057848247    26.954422      3645.7077    
      1720   3.44           290.39634      138157.18     -807624.26     -9861.3881      0.36148092     0.058297538    26.937378      3645.3549    
      1730   3.46           296.26063      136216        -807627.97     -9767.2881      0.36145623     0.057745191    26.881818      3645.0456    
      1740   3.48           301.82562      132825.22     -807633.22     -9621.1803      0.3614314      0.056885295    26.94408       3644.687     
      1750   3.5            292.70708      129532.92     -807636.54     -9473.6173      0.36140643     0.056016698    26.959386      3644.3163    
      1760   3.52           296.19023      128051.68     -807637.54     -9458.5662      0.36138131     0.055931589    26.924933      3643.9722    
      1770   3.54           294.30354      129768.72     -807635.81     -9505.2001      0.36135605     0.056211279    26.938585      3643.6174    
      1780   3.56           297.67952      131614.16     -807634.86     -9554.5804      0.36133065     0.056507273    26.907552      3643.2859    
      1790   3.58           304.00278      135651.12     -807630.35     -9728.2113      0.36130511     0.057538221    26.944343      3642.9262    
      1800   3.6            292.74662      136894.28     -807626.45     -9808.5618      0.36127942     0.058017584    26.9591        3642.5553    
      1810   3.62           294.90626      139186.08     -807625.13     -9859.0799      0.3612536      0.058320568    26.923929      3642.2106    
      1820   3.64           298.4115       133920.79     -807630.98     -9694.0679      0.36122763     0.057348576    26.895673      3641.8867    
      1830   3.66           291.6126       134145.78     -807631.81     -9637.1391      0.36120151     0.057015916    26.873149      3641.579     
      1840   3.68           290.20289      128332.57     -807636.42     -9489.7122      0.36117526     0.05614778     26.919869      3641.2362    
      1850   3.7            289.66915      130543.67     -807636.29     -9491.2561      0.36114886     0.056161019    26.952985      3640.8688    
      1860   3.72           291.49578      127964.91     -807638.39     -9436.762       0.36112232     0.055842675    26.907996      3640.5341    
      1870   3.74           301.27717      133211.37     -807634.05     -9620.3954      0.36109564     0.056933544    26.869811      3640.2267    
      1880   3.76           292.5286       133700.4      -807630.62     -9697.9233      0.36106881     0.057396618    26.904825      3639.8934    
      1890   3.78           294.76157      138657.94     -807626.47     -9839.3033      0.36104184     0.058237718    26.883185      3639.5752    
      1900   3.8            295.66878      134554.76     -807630.24     -9729.1662      0.36101474     0.057590153    26.871767      3639.2646    
      1910   3.82           299.7478       135853.49     -807630.67     -9733.0998      0.36098748     0.057617787    26.885391      3638.9437    
      1920   3.84           286.12944      130455.91     -807633.54     -9586.3473      0.36096009     0.056753352    26.876176      3638.6287    
      1930   3.86           287.59514      130792.29     -807635.72     -9520.5365      0.36093255     0.056368037    26.914991      3638.2859    
      1940   3.88           281.81795      128112.91     -807638.56     -9407.5885      0.36090487     0.05570358     26.930188      3637.9321    
      1950   3.9            286.18607      131102.83     -807635.52     -9523.5856      0.36087705     0.056394761    26.90973       3637.5924    
      1960   3.92           294.91145      131688.55     -807633.67     -9624.9551      0.36084909     0.056999447    26.906964      3637.2544    
      1970   3.94           299.79087      134987.6      -807631.45     -9715.5396      0.36082098     0.057540374    26.933643      3636.8976    
      1980   3.96           288.32761      135898.76     -807628.83     -9750.0837      0.36079273     0.057749483    26.960765      3636.5222    
      1990   3.98           286.60126      135955.4      -807628.45     -9755.3826      0.36076434     0.057785416    26.953477      3636.1517    
      2000   4              301.06678      134364.67     -807632.25     -9698.3699      0.36073581     0.057452249    26.956994      3635.7789    
      2010   4.02           287.17913      131361.85     -807633.9      -299.53401      0.36070713     0.056785693    27.016673      3635.3662    
      2020   4.04           289.49871      130108.67     -807637.63     -296.08692      0.36067831     0.056136678    27.056862      3634.9272    
      2030   4.06           283.47037      127987.28     -807637.38     -295.48828      0.36064935     0.056027676    27.00775       3634.5214    
      2040   4.08           297.53787      130924.46     -807636.41     -298.35476      0.36062025     0.056575757    27.019574      3634.1081    
      2050   4.1            287.07882      131668.07     -807633.41     -299.9837       0.36059101     0.056889259    27.018916      3633.6956    
      2060   4.12           293.68971      136756.1      -807629.96     -304.26883      0.36056162     0.0577066      27.034006      3633.2738    
      2070   4.14           285.10441      135053.29     -807628.73     -304.3867       0.36053209     0.057733683    27.015246      3632.8646    
      2080   4.16           291.06972      137296.59     -807627.39     -306.39616      0.36050242     0.058119604    26.990542      3632.4717    
      2090   4.18           295.95366      131180.71     -807633.8      -300.74695      0.36047261     0.057052737    26.966092      3632.0948    
      2100   4.2            292.07761      133857.5      -807633.91     -299.92032      0.36044265     0.056900651    26.998293      3631.6973    
      2110   4.22           287.50389      127563.49     -807638.82     -294.49295      0.36041256     0.055875639    26.970841      3631.3176    
      2120   4.24           285.66489      131935.45     -807635.64     -297.21454      0.36038232     0.056396752    26.973264      3630.9364    
      2130   4.26           289.2452       127803.83     -807637.84     -295.66754      0.36035193     0.056107937    26.926177      3630.5851    
      2140   4.28           288.13556      136153.14     -807631.13     -302.01456      0.36032141     0.057317249    26.953345      3630.2165    
      2150   4.3            288.29318      133235.15     -807630.9      -302.46018      0.36029075     0.057406705    26.99896       3629.8193    
      2160   4.32           282.47317      139543.31     -807625.01     -307.28423      0.36025994     0.058327293    26.987276      3629.4297    
      2170   4.34           298.61041      133162.61     -807632.82     -301.86923      0.36022899     0.057304365    26.983385      3629.0426    
      2180   4.36           297.64322      135345.68     -807631.23     -303.03915      0.36019789     0.05753142     26.981341      3628.657     
      2190   4.38           287.67506      128756.6      -807636.44     -296.52889      0.36016666     0.056300341    26.981239      3628.2715    
      2200   4.4            288.95632      130695.46     -807636.46     -296.48264      0.36013528     0.056296464    26.928283      3627.9186    
      2210   4.42           285.62006      125948.5      -807639.2      -293.33378      0.36010377     0.05570343     26.952036      3627.5511    
      2220   4.44           285.5977       132000.43     -807634.09     -298.30981      0.36007211     0.056653347    26.985328      3627.1633    
      2230   4.46           294.1202       132445.16     -807633.27     -300.37839      0.3600403      0.05705124     26.997499      3626.7684    
      2240   4.48           295.92964      136833.18     -807629.27     -304.43819      0.36000836     0.057827453    26.985394      3626.3809    
      2250   4.5            296.66523      136039.97     -807629.35     -304.41743      0.35997627     0.057828663    26.975414      3625.9996    
      2260   4.52           295.51915      136398.58     -807630.02     -303.45658      0.35994404     0.057651297    27.005559      3625.6004    
      2270   4.54           289.05937      133855.01     -807631.08     -301.38493      0.35991167     0.05726287     27.024444      3625.1904    
      2280   4.56           285.84105      129844.55     -807635.4      -296.45127      0.35987916     0.056330568    27.004062      3624.7927    
      2290   4.58           289.5259       129569.84     -807638.1      -294.0773       0.35984651     0.055884546    26.989387      3624.4038    
      2300   4.6            285.31684      128365.02     -807637.57     -293.88828      0.35981371     0.055853716    27.010262      3624.003     
      2310   4.62           288.8284       133215.12     -807632.43     -299.24347      0.35978077     0.056876681    27.040929      3623.5845    
      2320   4.64           302.03223      132144.54     -807633.28     -300.09593      0.35974769     0.057043951    27.048096      3623.1625    
      2330   4.66           295.25896      137993.94     -807627.86     -304.20889      0.35971447     0.057831108    26.977005      3622.7817    
      2340   4.68           300.26118      134478.88     -807629.52     -303.11685      0.35968111     0.057628851    26.940474      3622.4219    
      2350   4.7            294.28676      137719.51     -807626.53     -304.94375      0.3596476      0.057981585    27.051157      3621.999     
      2360   4.72           297.0903       130178.77     -807634.25     -297.57646      0.35961396     0.056586072    27.006818      3621.6016    
      2370   4.74           294.93825      132160.53     -807634.34     -296.78778      0.35958017     0.056441403    26.948394      3621.2375    
      2380   4.76           288.10724      127198.84     -807637.75     -292.38411      0.35954624     0.055609185    26.951219      3620.8718    
      2390   4.78           302.75707      131946.43     -807635.01     -296.89974      0.35951216     0.056473376    27.002346      3620.4773    
      2400   4.8            299.46097      129573.48     -807635.12     -296.34769      0.35947795     0.056373736    26.958633      3620.1075    
      2410   4.82           313.75457      136816.22     -807631.35     -301.76841      0.35944359     0.057410396    26.971654      3619.7304    
      2420   4.84           297.39395      134170.65     -807628.67     -302.28942      0.35940909     0.057515037    26.941452      3619.3701    
      2430   4.86           301.87085      139067.29     -807625.97     -305.36278      0.35937446     0.058105388    26.976372      3618.9904    
      2440   4.88           298.59177      133464.57     -807630.2      -300.79928      0.35933967     0.057242573    26.984695      3618.6062    
      2450   4.9            305.39464      133430.07     -807632.67     -299.19212      0.35930475     0.05694226     26.956184      3618.2378    
      2460   4.92           293.29501      129154.35     -807636        -294.26453      0.35926969     0.056009908    26.922246      3617.8878    
      2470   4.94           288.17429      130572.89     -807634.72     -294.78536      0.35923448     0.056114541    26.902063      3617.5487    
      2480   4.96           300.51476      128436.16     -807636.39     -295.0118       0.35919913     0.056163172    26.9903        3617.1616    
      2490   4.98           298.44569      133816.72     -807632.68     -298.50276      0.35916364     0.056833382    26.991226      3616.774     
      2500   5              299.56525      134220.64     -807631.13     -300.3994       0.35912801     0.057200168    27.009092      3616.3771    
[...]
     98740   197.48         287.20628      134411.9      -807633.69     -9648.8339      0.36236891     0.056901201    29.353078      45.331446    
     98750   197.5          285.78299      130581.38     -807634.28     -9632.4791      0.36238762     0.056801822    29.390006      44.971426    
     98760   197.52         291.98406      135520.14     -807630.2      -9788.1309      0.36240618     0.05771673     29.418822      44.611405    
     98770   197.54         286.3586       131178.23     -807634.47     -9630.9429      0.36242459     0.056786969    29.400615      44.251391    
     98780   197.56         291.77354      134679.2      -807634.15     -9660.4494      0.36244287     0.056958076    29.35312       43.891388    
     98790   197.58         284.77974      131462.78     -807633.13     -9667.6282      0.362461       0.056997551    29.350497      43.531389    
     98800   197.6          290.14376      135717.27     -807629.75     -9798.6991      0.36247899     0.057767441    29.308496      43.1714      
     98810   197.62         286.3751       131471.95     -807634.1      -9644.1661      0.36249683     0.056853605    29.260299      42.811422    
     98820   197.64         288.14022      133961.56     -807634.09     -9648.5506      0.36251453     0.056876674    29.282812      42.451444    
     98830   197.66         279.82054      131886.1      -807632.67     -9662.3751      0.36253209     0.056955409    29.294345      42.091468    
     98840   197.68         284.42152      133843.18     -807630.81     -9740.2693      0.36254951     0.057411803    29.330674      41.731491    
     98850   197.7          290.55329      131685.12     -807635.58     -9614.8347      0.36256678     0.056669757    29.360241      41.371514    
     98860   197.72         292.45142      132949.77     -807635.28     -9631.5487      0.36258391     0.056765587    29.369841      41.01154     
     98870   197.74         291.43071      132598.44     -807632.3      -9719.7889      0.3626009      0.057282966    29.387617      40.651567    
     98880   197.76         301.31591      132718.11     -807633.15     -9736.1197      0.36261774     0.057376545    29.41687       40.291594    
     98890   197.78         289.50482      133849.43     -807632.64     -9697.0771      0.36263445     0.057143828    29.385537      39.931629    
     98900   197.8          289.85106      132927.93     -807634        -9654.1393      0.362651       0.056888203    29.376306      39.57167     
     98910   197.82         295.00761      133835.71     -807631.56     -9752.8057      0.36266742     0.057467006    29.31862       39.211722    
     98920   197.84         275.40818      132604.07     -807630.6      -9698.4648      0.36268369     0.057144246    29.400839      38.851767    
     98930   197.86         283.60736      134471.58     -807632.47     -9671.1812      0.36269982     0.056980954    29.392317      38.491817    
     98940   197.88         285.23585      131030.24     -807634.37     -9617.7501      0.36271581     0.05666365     29.387768      38.131872    
     98950   197.9          305.32491      133823.62     -807633.04     -9744.366       0.36273165     0.057407109    29.417517      37.771928    
     98960   197.92         288.60067      131571.14     -807631.9      -9709.5394      0.36274735     0.057199459    29.420237      37.411987    
     98970   197.94         294.7511       135252.38     -807632.44     -9712.7904      0.36276291     0.057216157    29.436392      37.052048    
     98980   197.96         290.08423      131574.88     -807634.28     -9635.0421      0.36277832     0.056755745    29.386912      36.692119    
     98990   197.98         290.01861      135409.76     -807629.94     -9767.3736      0.36279359     0.057532829    29.348584      36.332198    
     99000   198            281.81793      132341.92     -807631.23     -9691.1126      0.36280872     0.057081248    29.361921      35.97228     
     99010   198.02         292.79812      134911.12     -807632.15     -303.21398      0.3628237      0.057148006    29.471522      35.612353    
     99020   198.04         294.99787      130965.11     -807635.13     -300.52523      0.36283855     0.056638929    29.474634      35.25243     
     99030   198.06         297.86639      134808.02     -807630.97     -304.8479       0.36285324     0.057451281    29.485481      34.89251     
     99040   198.08         285.99         131823.72     -807631.33     -302.82791      0.3628678      0.057068307    29.477571      34.532595    
     99050   198.1          303.11546      134496.5      -807633.33     -302.91354      0.36288221     0.057082177    29.461019      34.172686    
     99060   198.12         305.27506      130563.24     -807635.01     -301.51614      0.36289648     0.056816611    29.451166      33.812782    
     99070   198.14         295.32583      134949.28     -807629.59     -305.3589       0.36291061     0.057538486    29.432901      33.452884    
     99080   198.16         281.88263      132871.81     -807629.98     -303.1165       0.36292459     0.057113754    29.418816      33.092992    
     99090   198.18         301.78994      134174.95     -807632.36     -303.27779      0.36293843     0.057141964    29.436283      32.733102    
     99100   198.2          296.52563      132140.06     -807632.93     -301.92114      0.36295213     0.056884205    29.436683      32.373216    
     99110   198.22         299.11646      134464.98     -807630.57     -304.5317       0.36296568     0.057373912    29.459892      32.013332    
     99120   198.24         296.58857      133616.88     -807631.51     -303.1465       0.36297909     0.057110829    29.419517      31.653456    
     99130   198.26         305.22086      133008.97     -807633.81     -301.83367      0.36299236     0.056861423    29.42462       31.293583    
     99140   198.28         299.11912      133850.03     -807632.37     -302.32597      0.36300548     0.056952107    29.467222      30.93371     
     99150   198.3          292.2329       134194.15     -807629.27     -304.49369      0.36301846     0.057358409    29.477808      30.573841    
     99160   198.32         299.86479      134016.03     -807630.64     -304.05839      0.3630313      0.057274385    29.44385       30.213978    
     99170   198.34         295.39948      132754.36     -807632.23     -301.81341      0.36304399     0.056849518    29.465287      29.854118    
     99180   198.36         297.99478      134071.3      -807630.74     -303.67005      0.36305655     0.057197257    29.470764      29.494262    
     99190   198.38         294.0414       132704.39     -807630.38     -303.61394      0.36306895     0.057184735    29.479792      29.134408    
     99200   198.4          303.80766      133665.26     -807631        -304.25281      0.36308122     0.057303128    29.4846        28.774559    
     99210   198.42         300.36768      131237.27     -807634.98     -299.93134      0.36309334     0.056487335    29.473124      28.414714    
     99220   198.44         303.28122      134169.47     -807631.97     -303.35273      0.36310532     0.057129815    29.490631      28.054873    
     99230   198.46         292.08879      132099.64     -807630.15     -303.90522      0.36311715     0.057231998    29.496597      27.695035    
     99240   198.48         306.25162      135302.08     -807631.16     -304.83823      0.36312885     0.057405856    29.474483      27.335203    
     99250   198.5          294.2885       131918.64     -807633.43     -301.25424      0.3631404      0.056729131    29.477219      26.975374    
     99260   198.52         296.45813      135745.87     -807630.51     -304.64992      0.3631518      0.057366769    29.470727      26.615551    
     99270   198.54         285.97271      131741.67     -807629.75     -304.40959      0.36316306     0.057319735    29.4768        26.255731    
     99280   198.56         298.22788      135385.71     -807631.43     -304.57878      0.36317418     0.057349837    29.477371      25.895916    
     99290   198.58         289.9326       131519.45     -807634.67     -300.6512       0.36318516     0.056608594    29.499629      25.536102    
     99300   198.6          292.44498      135183.25     -807631.33     -304.54499      0.36319599     0.057340032    29.489774      25.176294    
     99310   198.62         292.53903      131867.8      -807633.73     -302.60558      0.36320668     0.0569732      29.476637      24.816491    
     99320   198.64         290.61478      134725.02     -807631.46     -304.75692      0.36321723     0.057376579    29.4352        24.456695    
     99330   198.66         288.14234      131290.74     -807635.02     -301.1797       0.36322763     0.056701473    29.459837      24.096901    
     99340   198.68         282.1801       134804.03     -807630.94     -304.55311      0.36323789     0.057334947    29.463583      23.737112    
     99350   198.7          288.87602      132302.32     -807631.78     -304.92902      0.36324801     0.057404116    29.457461      23.377326    
     99360   198.72         292.05111      133340.94     -807632.24     -304.93357      0.36325798     0.057403396    29.431515      23.017547    
     99370   198.74         280.63269      132849.18     -807633.72     -302.02697      0.36326781     0.056854695    29.409462      22.657774    
     99380   198.76         282.7428       133822.55     -807633.04     -303.05902      0.3632775      0.057047449    29.411408      22.298004    
     99390   198.78         283.36511      133008.43     -807631.84     -304.51963      0.36328704     0.057320888    29.476891      21.938233    
     99400   198.8          291.24416      133000.03     -807634.28     -303.2188       0.36329644     0.05707455     29.486276      21.578466    
     99410   198.82         274.74307      133620.95     -807632.69     -302.50689      0.3633057      0.056939098    29.437094      21.218707    
     99420   198.84         292.61646      132084.46     -807634.72     -303.09812      0.36331481     0.057048949    29.429477      20.858952    
     99430   198.86         282.53639      135251.9      -807630.2      -306.17074      0.36332378     0.057625853    29.466215      20.499199    
     99440   198.88         281.75251      133183.29     -807631.9      -304.44642      0.36333261     0.05729992     29.501003      20.139447    
     99450   198.9          282.97918      134019.19     -807632.72     -303.67468      0.36334129     0.057153303    29.433584      19.779704    
     99460   198.92         293.4547       131424.2      -807634.92     -302.97187      0.36334983     0.057019691    29.421712      19.419966    
     99470   198.94         282.28786      133603.32     -807631.01     -305.30915      0.36335823     0.057458243    29.425418      19.060232    
     99480   198.96         284.51986      132263.63     -807633.57     -303.06022      0.36336648     0.057033705    29.438849      18.700501    
     99490   198.98         296.82158      132388.5      -807635.82     -302.36434      0.3633746      0.056901475    29.446896      18.340773    
     99500   199            287.76293      132732.61     -807633.99     -302.91266      0.36338256     0.057003413    29.436428      17.98105     
     99510   199.02         285.63402      134559.66     -807631.45     -9763.6509      0.36339039     0.057416452    29.388969      17.621334    
     99520   199.04         278.73859      134298.16     -807631.5      -9728.6169      0.36339807     0.05720922     29.377319      17.261622    
     99530   199.06         283.50037      134441.58     -807631.97     -9730.5131      0.3634056      0.057219184    29.332489      16.901916    
     99540   199.08         280.4951       134148.42     -807631.94     -9716.8971      0.363413       0.057137954    29.347255      16.542214    
     99550   199.1          294.00174      133529.92     -807632.24     -9762.3257      0.36342025     0.057403941    29.366943      16.182514    
     99560   199.12         284.38848      133338.74     -807632.13     -9716.5397      0.36342736     0.057133595    29.358158      15.822819    
     99570   199.14         289.27071      132772.83     -807633.73     -9679.7067      0.36343432     0.056915925    29.359687      15.463127    
     99580   199.16         301.63188      132430.1      -807634.81     -9695.7175      0.36344114     0.057008998    29.404274      15.103437    
     99590   199.18         281.68509      133473.82     -807630.79     -9731.5897      0.36344782     0.057218868    29.37057       14.743753    
     99600   199.2          289.72467      133602.45     -807631.94     -9723.771       0.36345435     0.057171868    29.389729      14.384072    
     99610   199.22         296.13         133271.99     -807632.82     -9717.201       0.36346074     0.057132235    29.393469      14.024394    
     99620   199.24         290.80373      134355.66     -807631.31     -9735.4597      0.36346699     0.057238603    29.408146      13.664719    
     99630   199.26         301.47994      134723.07     -807632.28     -9745.9447      0.3634731      0.057299286    29.399837      13.305049    
     99640   199.28         287.43979      134037.16     -807630.56     -9732.065       0.36347906     0.057216745    29.363619      12.945385    
     99650   199.3          301.59025      132992.12     -807634.07     -9675.1467      0.36348487     0.056881201    29.376885      12.585723    
     99660   199.32         298.17436      132726.85     -807633.05     -9687.6426      0.36349055     0.056953777    29.35767       12.226066    
     99670   199.34         294.38852      132489.99     -807631.17     -9727.5615      0.36349608     0.05718759     29.348073      11.866414    
     99680   199.36         290.86038      133744.8      -807630.98     -9711.5457      0.36350147     0.057092588    29.351255      11.506765    
     99690   199.38         300.32484      133068.41     -807632.43     -9702.0934      0.36350671     0.057036197    29.350365      11.14712     
     99700   199.4          303.63205      134065.84     -807631.76     -9736.2677      0.36351181     0.057236296    29.385482      10.787477    
     99710   199.42         311.18646      134027.86     -807631.65     -9770.5893      0.36351677     0.057437278    29.403375      10.427838    
     99720   199.44         295.1233       134651.88     -807629.71     -9757.7567      0.36352158     0.057361081    29.361264      10.068204    
     99730   199.46         294.65417      133639.63     -807632.29     -9673.6616      0.36352625     0.056865996    29.356142      9.708574     
     99740   199.48         292.97888      134756.91     -807630.73     -9713.6887      0.36353078     0.057100582    29.366391      9.3489475    
     99750   199.5          303.60913      132240.12     -807632.56     -9705.2658      0.36353516     0.057050381    29.374507      8.9893246    
     99760   199.52         293.10977      134144.52     -807630.79     -9713.4377      0.3635394      0.057097752    29.424247      8.6297042    
     99770   199.54         299.85166      133196.03     -807633.26     -9668.431       0.3635435      0.056832552    29.433871      8.2700875    
     99780   199.56         293.58735      134689.39     -807629.51     -9762.0498      0.36354745     0.057382234    29.419115      7.9104752    
     99790   199.58         304.26174      133573.2      -807630.66     -9778.5016      0.36355126     0.057478337    29.413186      7.5508669    
     99800   199.6          294.44848      134811.82     -807630.46     -9747.8784      0.36355493     0.057297755    29.435141      7.191262     
     99810   199.62         291.47976      132931.03     -807631.73     -9703.1434      0.36355845     0.057034251    29.369825      6.8316626    
     99820   199.64         295.94238      133210.64     -807632.55     -9709.0002      0.36356183     0.057068146    29.374428      6.4720669    
     99830   199.66         281.54419      132958.7      -807630.9      -9714.5343      0.36356507     0.057100166    29.382488      6.1124749    
     99840   199.68         289.27726      133223.09     -807632.6      -9708.4743      0.36356816     0.057064061    29.408057      5.7528863    
     99850   199.7          284.42054      132892.85     -807633.59     -9672.0838      0.36357111     0.056849705    29.393007      5.3933019    
     99860   199.72         294.10435      134277.68     -807632.93     -9749.4695      0.36357392     0.057304114    29.385189      5.0337214    
     99870   199.74         283.91296      133635.23     -807630.93     -9781.0284      0.36357658     0.057489186    29.380028      4.6741449    
     99880   199.76         288.44678      134273.73     -807632.09     -9768.9427      0.3635791      0.057417752    29.409259      4.3145719    
     99890   199.78         288.00419      132872.68     -807634.31     -9703.4643      0.36358148     0.057032525    29.388621      3.955003     
     99900   199.8          286.80535      134154.05     -807633.03     -9743.8964      0.36358371     0.057269814    29.375417      3.5954381    
     99910   199.82         280.5703       133208.37     -807632.24     -9745.5918      0.3635858      0.05727945     29.413089      3.2358767    
     99920   199.84         279.87527      132901.39     -807633.84     -9692.3488      0.36358775     0.056966211    29.419586      2.8763191    
     99930   199.86         286.6965       131684.43     -807636.42     -9643.065       0.36358955     0.056676267    29.363242      2.5167659    
     99940   199.88         285.00605      133179.7      -807633.66     -9723.0518      0.36359121     0.057146122    29.378894      2.1572164    
     99950   199.9          287.32114      133020.93     -807632.33     -9777.3052      0.36359273     0.05746475     29.415071      1.7976706    
     99960   199.92         284.00714      133872.27     -807632.66     -9749.9064      0.3635941      0.057303501    29.395149      1.4381287    
     99970   199.94         293.33283      133452.34     -807634.55     -9730.4048      0.36359533     0.05718869     29.34926       1.0785909    
     99980   199.96         288.63028      133262.65     -807632.89     -9762.0118      0.36359641     0.057374283    29.384067      0.71905675   
     99990   199.98         280.89953      132990.93     -807631.26     -9777.8586      0.36359736     0.057467271    29.352172      0.35952649   
    100000   200            283.78228      132347.04     -807634.08     -9697.9922      0.36359816     0.056997748    29.380534      0            
Loop time of 3595.25 on 32 procs for 100000 steps with 1080 atoms

Performance: 4.806 ns/day, 4.993 hours/ns, 27.815 timesteps/s, 30.040 katom-step/s
63.7% CPU use with 32 MPI tasks x 1 OpenMP threads

MPI task timing breakdown:
Section |  min time  |  avg time  |  max time  |%varavg| %total
---------------------------------------------------------------
Pair    | 2547.3     | 2804.1     | 3129.7     | 280.1 | 77.99
Neigh   | 0.0008249  | 0.00089707 | 0.0010467  |   0.0 |  0.00
Comm    | 391        | 717.3      | 975        | 553.3 | 19.95
Output  | 2.3227     | 2.3668     | 2.375      |   0.5 |  0.07
Modify  | 64.004     | 65.422     | 66.579     |  11.1 |  1.82
Other   |            | 6.06       |            |       |  0.17

Nlocal:          33.75 ave          42 max          24 min
Histogram: 1 1 4 5 3 2 7 5 3 1
Nghost:        1038.19 ave        1052 max        1023 min
Histogram: 3 4 1 4 2 4 4 4 2 4
Neighs:              0 ave           0 max           0 min
Histogram: 32 0 0 0 0 0 0 0 0 0
FullNghs:      5360.25 ave        6704 max        3809 min
Histogram: 1 1 4 5 4 2 8 3 2 2

Total # of neighbors = 171528
Ave neighs/atom = 158.82222
Neighbor list builds = 2
Dangerous builds = 0

Total wall time: 1:03:25
