
units		metal
atom_style	atomic

read_data ${STRUCTURE}.data
read_data BaTiO3-sc333.data
Reading data file ...
  orthogonal box = (0 0 0) to (11.898253 11.898253 12.912076)
  2 by 4 by 4 MPI processor grid
  reading atoms ...
  135 atoms
  read_data CPU = 0.005 seconds
replicate $L $L $L
replicate 2 $L $L
replicate 2 2 $L
replicate 2 2 2
Replication is creating a 2x2x2 = 8 times larger system...
  orthogonal box = (0 0 0) to (23.796507 23.796507 25.824152)
  2 by 4 by 4 MPI processor grid
  1080 atoms
  replicate CPU = 0.003 seconds

pair_style allegro
pair_coeff	* * ${MODEL}.pth Ba Ti O
pair_coeff	* * BaTiO3-E0.pth Ba Ti O
mass 1 137.3
mass 2 47.9
mass 3 15.9994

timestep 0.002
compute polarization all allegro polarization 3
compute allegro will evaluate the quantity polarization of length 3 (src/compute_allegro.cpp:53)
compute polarizability all allegro polarizability 9
compute allegro will evaluate the quantity polarizability of length 9 (src/compute_allegro.cpp:53)

thermo_style custom pe fmax fnorm spcpu cpuremain

variable efield equal 1e-2*36.36
fix born all addbornforce 0.0 0.0 ${efield}
fix born all addbornforce 0.0 0.0 0.3636

thermo 10
min_style fire
#minimize 0.0 1e-6 100 100
velocity all create ${TEMP} ${SEED} dist gaussian rot yes mom yes
velocity all create 350 ${SEED} dist gaussian rot yes mom yes
velocity all create 350 3139 dist gaussian rot yes mom yes
fix nvt all nvt temp ${TEMP} ${TEMP} $(100*dt)
fix nvt all nvt temp 350 ${TEMP} $(100*dt)
fix nvt all nvt temp 350 350 $(100*dt)
fix nvt all nvt temp 350 350 0.2000000000000000111
run 5000
Neighbor list info ...
  update: every = 1 steps, delay = 0 steps, check = yes
  max neighbors/atom: 2000, page size: 100000
  master list distance cutoff = 8
  ghost atom cutoff = 8
  binsize = 8, bins = 3 3 4
  1 neighbor lists, perpetual/occasional/extra = 1 0 0
  (1) pair allegro/kk, perpetual
      attributes: full, newton on, kokkos_device
      pair build: full/bin/kk/device
      stencil: full/bin/3d
      bin: kk/device
Per MPI rank memory allocation (min/avg/max) = 3.516 | 3.516 | 3.516 Mbytes
    PotEng          Fmax          Fnorm          S/CPU         CPULeft    
-807708.29      1.5955889      37.043885      0              0            
-807644.97      3.1936464      45.075042      2.1597643      2310.4383    
-807633.27      2.6009789      35.64369       25.916856      1248.9804    
-807604.53      3.5667397      37.703903      25.935216      894.8588     
-807600.02      4.1652048      50.314311      25.854567      717.75428    
-807568.2       4.1369866      41.347097      25.806681      611.40792    
-807600.03      2.9991352      39.65736       25.903681      540.26171    
-807645.25      4.2256801      34.958862      25.901066      489.33543    
-807681.39      2.6878309      34.860176      25.861936      451.08012    
-807667.44      3.5793496      35.246874      25.844617      421.25422    
-807647.5       3.6056871      37.393639      25.904013      397.27262    
-807657.96      2.6689266      30.127286      25.888487      377.59145    
-807622.27      3.2644942      34.356505      25.919389      361.10732    
-807582.73      3.4919008      43.077914      25.872998      347.12579    
-807562.89      3.6693735      41.20356       25.915435      335.06444    
-807629.78      3.2875896      37.229062      25.891216      324.57148    
-807648.85      3.4637677      35.163004      25.873956      315.34967    
-807660.97      3.1348509      37.059367      25.887251      307.16165    
-807641.11      4.755377       48.530416      25.893923      299.83786    
-807676.41      3.2571242      38.497036      25.866393      293.2547     
-807637.66      3.9880707      41.821574      25.844956      287.29893    
-807613.73      3.0858259      40.194885      25.876854      281.86263    
-807557.81      4.7608701      47.525031      25.932086      276.86753    
-807600.35      4.3344265      50.710874      25.860318      272.29545    
-807609.88      4.1380928      40.548056      25.860496      268.07209    
-807639.97      3.4717271      36.748164      25.917492      264.13952    
-807639.87      5.2156084      46.408209      25.945088      260.47228    
-807678.74      3.1426566      38.247997      25.860281      257.07029    
-807662.17      3.8217542      36.001642      25.841532      253.88841    
-807635.67      3.76997        33.242269      25.908385      250.88305    
-807605.4       3.4202682      34.51258       25.925446      248.04835    
-807600.84      3.695461       42.207167      25.898286      245.37777    
-807593.92      3.4265515      39.012235      25.823566      242.8663     
-807604.59      3.6242535      35.039077      25.930883      240.46089    
-807639.92      2.9070192      31.558151      25.921546      238.1762     
-807668.03      2.7968191      33.898457      25.915095      236.00129    
-807674.57      2.6332347      35.469507      25.821903      233.94373    
-807640.17      4.7000798      41.74385       25.893214      231.9631     
-807644.89      3.258803       33.903048      25.896225      230.06584    
-807617.18      4.9019631      37.568162      25.888817      228.24738    
-807598.21      4.6023564      45.829479      25.821596      226.5121     
-807563.83      4.6515852      44.766676      25.887998      224.83145    
-807617.75      3.3497685      38.684602      25.905103      223.20966    
-807644.2       4.3071016      37.869379      25.867046      221.65139    
-807669.67      2.7244484      36.687551      25.821852      220.15337    
-807639.8       4.4627629      46.991113      25.880385      218.69587    
-807663.01      2.8410458      36.2591        25.907147      217.28101    
-807643.57      3.9701259      36.498925      25.871734      215.91501    
-807623.1       3.598492       38.190332      25.878481      214.58888    
-807562.11      4.2559617      43.374651      25.912628      213.29642    
-807593.77      4.2731926      44.94863       25.9192        212.03934    
-807618.86      3.7145704      36.581534      25.89386       210.81975    
-807650.57      2.9432506      33.12554       25.902235      209.63114    
-807640.86      4.4783011      40.904062      25.901378      208.47292    
-807666.8       3.2720823      35.703326      25.866233      207.34763    
-807663.93      3.9182375      35.137383      25.822541      206.25449    
-807640.33      3.4595932      32.986338      25.848479      205.18349    
-807599.88      3.1986232      36.424652      25.939424      204.12594    
-807589.65      4.2250329      39.176767      25.926683      203.09302    
-807598.87      4.5452272      42.373602      25.84333       202.09133    
-807613.62      4.9251692      35.006053      25.895852      201.10438    
-807632.08      3.5116368      34.700551      25.935869      200.13283    
-807656.21      4.4620302      37.378979      25.918325      199.18204    
-807670.87      2.8483094      38.191374      25.811046      198.2603     
-807642.99      5.4281285      41.680313      25.80205       197.35618    
-807632.38      3.2683035      36.239153      25.855273      196.46262    
-807609.32      3.8668864      38.986115      25.90902       195.57914    
-807600.87      4.4927078      46.436829      25.843615      194.71682    
-807575.07      4.0588849      41.92214       25.865833      193.86637    
-807607.93      3.395734       38.131815      25.846074      193.03121    
-807638.71      4.6326013      37.014046      25.860451      192.20754    
-807667.73      2.7870045      37.295081      25.813903      191.40039    
-807648.78      5.0128         41.246037      25.808761      190.60536    
-807647.89      3.3922654      37.410493      25.8167        189.8208     
-807641.16      3.823857       35.433768      25.869693      189.0424     
-807624.05      4.001893       38.208975      25.869245      188.2745     
-807579.1       3.8649609      40.785676      25.882839      187.51549    
-807580.9       3.6331936      42.016323      25.915257      186.76351    
-807618.53      3.8994202      35.498761      25.878909      186.02385    
-807650.66      3.1454234      33.569296      25.84878       185.29553    
-807648.42      4.5744365      36.980867      25.864983      184.57448    
-807649.9       4.7974015      38.581284      25.740792      183.87134    
-807662.31      2.4450897      34.662737      25.831432      183.16891    
-807641.23      3.7226468      34.867433      25.818567      182.47506    
-807608.11      2.9637226      36.627294      25.885501      181.78354    
-807581.57      3.7640275      40.11015       25.919859      181.09671    
-807599.61      3.5303345      41.832868      25.830752      180.42328    
-807618.2       3.0467889      35.586467      25.824714      179.75687    
-807635.81      3.4620333      35.03776       25.873064      179.09341    
-807643.59      3.7011255      38.996877      25.839553      178.43849    
-807667.11      2.5740677      36.419867      25.82375       177.7906     
-807648.7       3.4088114      38.26842       25.797257      177.15023    
-807633.41      2.7388135      34.856572      25.885333      176.5095     
-807604.4       3.8057135      37.680083      25.894185      175.87367    
-807602.12      4.0366255      42.91476       25.878142      175.24418    
-807591.19      3.4304436      39.268557      25.821691      174.62341    
-807612.24      2.7685035      36.892672      25.859592      174.00512    
-807631.31      4.2727762      36.528497      25.902491      173.38894    
-807662.41      2.6713056      35.71962       25.819773      172.78253    
-807654.11      3.4891515      37.571038      25.752672      172.18463    
-807644.56      3.4137405      36.246858      25.78815       171.58879    
-807632.79      3.285254       35.089122      25.793855      170.99673    
-807621.69      3.5965513      36.36081       25.848924      170.40546    
-807595.2       3.4988737      39.147882      25.83043       169.81922    
-807586.47      3.4002841      39.617923      25.850992      169.23564    
-807616.76      3.0551579      34.714182      25.870165      168.65473    
-807646         3.6191499      34.501519      25.888188      168.07648    
-807655.6       3.5658675      35.359728      25.840854      167.50442    
-807644.35      5.4271356      39.659089      25.886905      166.93329    
-807652.89      3.2004704      34.890302      25.87226       166.36634    
-807638.9       4.4655506      34.617375      25.901521      165.80112    
-807615.95      3.9194448      36.589323      25.886353      165.23992    
-807580.07      5.0458413      40.468714      25.928674      164.67965    
-807600.24      3.42289        39.696302      25.886068      164.12466    
-807621.1       4.3191316      36.018666      25.860064      163.57393    
-807644.14      2.8169947      34.802467      25.857402      163.0262     
-807641.42      4.0228169      39.908721      25.886629      162.47979    
-807657.05      3.2898789      37.390994      25.828305      161.93897    
-807650.06      3.5986597      36.994017      25.793363      161.40246    
-807633.66      3.4289069      35.637426      25.820369      160.86715    
-807598.14      5.5174643      38.332661      25.857953      160.33253    
-807594.85      3.4570301      41.284595      25.858378      159.80033    
-807597.85      4.9950041      39.322638      25.797713      159.27333    
-807620.67      3.0801314      35.854815      25.841623      158.74658    
-807629.59      4.1189253      37.026296      25.869544      158.22082    
-807655.09      3.0077373      35.918682      25.862208      157.69761    
-807653.82      4.1007255      36.742104      25.810808      157.17886    
-807646.08      2.734376       35.078255      25.84459       156.66068    
-807622.28      3.4810184      35.766467      25.894658      156.14239    
-807612.26      3.1538686      37.098313      25.833441      155.62877    
-807597.78      3.6126032      39.47296       25.823722      155.11751    
-807595.12      3.2944827      38.876339      25.791597      154.60951    
-807612.96      3.5676708      36.303938      25.878287      154.09971    
-807641.58      3.0835958      35.489286      25.851659      153.59286    
-807654.81      2.9182948      35.84395       25.822078      153.08902    
-807645.43      4.397881       38.132081      25.815736      152.58715    
-807641.42      3.8538697      35.479555      25.79907       152.08765    
-807631.52      3.4425625      34.891489      25.81306       151.58921    
-807614.59      3.268953       37.53462       25.828329      151.09179    
-807586.06      3.3105071      39.528735      25.817221      150.59639    
-807596.33      3.1451855      38.962179      25.891577      150.09967    
-807622.76      2.8035699      34.917018      25.829671      149.60687    
-807646.75      2.7004839      34.483268      25.865529      149.11421    
-807641.83      3.4841421      38.473598      25.838131      148.62405    
-807650.42      3.213393       36.08341       25.831623      148.13557    
-807643.65      4.1173061      35.965063      25.788132      147.65009    
-807633.14      3.0075165      34.705029      25.788712      147.16592    
-807598.96      3.4186962      38.022677      25.838135      146.68128    
-807593.23      3.6915273      39.518824      25.80564       146.19912    
-807603.79      3.6351428      38.576795      25.780512      145.71912    
-807629.32      3.5179002      35.266168      25.72425       145.24233    
-807635.85      4.1766195      36.380425      25.789497      144.76443    
-807648.01      3.1174749      36.383254      25.846316      144.28577    
-807653.08      2.9689511      36.121553      25.796063      143.81001    
-807643.96      4.0164079      35.462521      25.791908      143.33554    
-807622.05      3.1312685      35.740584      25.767341      142.86302    
-807602.87      3.0790537      37.669929      25.877338      142.38793    
-807601.93      4.0211941      39.199643      25.858859      141.91458    
-807606.67      3.3755206      37.50046       25.818455      141.44364    
-807623.92      3.3039939      34.743543      25.7879        140.97473    
-807638.79      4.3979673      36.338278      25.888075      140.50365    
-807654.63      3.3239913      36.323917      25.837566      140.03521    
-807648.22      3.9335431      36.889332      25.830379      139.568      
-807639.11      3.2656817      34.654371      25.87485       139.1004     
-807621.33      3.4298112      35.502957      25.87549       138.63376    
-807612.07      3.4999747      38.008139      25.86303       138.16848    
-807593.75      3.7892764      39.090495      25.835613      137.70497    
-807604.36      3.4903279      37.289564      25.793233      137.24364    
-807624.61      3.5162868      35.295471      25.777421      136.78366    
-807647.35      3.8057255      35.469615      25.778001      136.32452    
-807647.68      3.6008757      36.301857      25.773547      135.86634    
-807646.58      3.1385245      35.932306      25.800785      135.4082     
-807638.58      3.6988579      35.485863      25.841101      134.94972    
-807626.99      2.9658806      34.864386      25.853452      134.49172    
-807602.95      3.0176576      37.318138      25.87261       134.034      
-807593.89      3.4730213      39.242593      25.877693      133.57696    
-807608.73      3.9365748      36.236092      25.875776      133.12077    
-807633.43      3.1606634      34.757487      25.837053      132.66642    
-807642.34      4.5674285      35.296608      25.852289      132.21242    
-807645.77      4.3447705      36.261909      25.86616       131.7588     
-807647.32      3.3476062      36.35133       25.838392      131.30666    
-807639.92      3.5538812      35.426924      25.831194      130.85543    
-807619.52      3.3761881      36.291626      25.86232       130.40409    
-807597.81      3.7401291      38.831708      25.83994       129.95404    
-807600.23      3.384795       40.111505      25.796272      129.5058     
-807611.89      3.7662283      37.462965      25.773927      129.05878    
-807629.31      2.9958334      36.123471      25.83015       128.61098    
-807637.91      4.5216571      37.317415      25.882736      128.1625     
-807649.49      2.9585871      36.353307      25.861129      127.71523    
-807644.77      3.4278502      36.846336      25.807989      127.2699     
-807636.35      2.7726168      35.482854      25.8626        126.82385    
-807612.62      3.7831318      36.983939      25.873919      126.37815    
-807606.63      3.598724       37.875158      25.872386      125.9331     
-807601.48      3.7400246      38.968947      25.855301      125.48906    
-807612.6       3.7122861      37.050679      25.898522      125.0446     
-807624.46      3.2985609      36.365751      25.887467      124.60099    
-807643.15      3.1660516      36.141395      25.824304      124.15943    
-807645.7       4.1083319      37.026513      25.831073      123.71827    
-807641.99      4.05143        37.047313      25.828112      123.27772    
-807630.12      3.3468586      35.922453      25.859838      122.83699    
-807619.97      4.0491024      37.463082      25.856434      122.39687    
-807605.22      3.9666537      39.023035      25.837141      121.95772    
-807600.21      3.4186617      38.955471      25.853269      121.51873    
-807611.98      3.0251108      36.465291      25.862786      121.08004    
-807629.8       3.5025808      36.784173      25.855575      120.64202    
-807643.68      3.29445        36.548412      25.839053      120.20485    
-807642.62      3.9040361      37.482177      25.832806      119.76831    
-807641.66      3.7786751      36.508088      25.846735      119.33194    
-807630.85      3.9844651      37.034871      25.86159       118.89574    
-807622.02      2.8766894      35.876559      25.837216      118.46053    
-807600.43      3.3385606      38.463723      25.842718      118.02566    
-807601.7       3.2937403      38.799644      25.844985      117.59119    
-807615.36      3.8412553      37.012096      25.85199       117.15703    
-807634.89      3.5553658      35.838552      25.818608      116.72399    
-807639.55      3.5285016      37.270171      25.851248      116.29073    
-807646.69      2.5403632      36.340065      25.859614      115.85773    
-807643.6       3.5998028      36.781777      25.833053      115.42568    
-807633.76      2.8846111      35.196957      25.819273      114.99431    
-807612.16      3.2819145      36.595548      25.815559      114.56342    
-807602.99      3.5793108      38.8998        25.880339      114.13169    
-807606.16      2.9807277      38.222606      25.87145       113.70054    
-807619.9       3.4040638      37.130418      25.855701      113.27008    
-807629.73      4.3004047      36.503972      25.82625       112.84058    
-807642.43      3.5437006      36.636496      25.81505       112.41166    
-807648.76      3.1227736      35.650527      25.844618      111.98256    
-807640.77      3.9861653      36.600716      25.846124      111.55382    
-807627.23      3.7786386      35.057376      25.818506      111.12594    
-807613.18      4.5455912      37.359674      25.835575      110.69812    
-807606.94      3.3651738      37.861054      25.815834      110.271      
-807607.07      4.0568224      38.2172        25.839776      109.84381    
-807619.03      3.6988643      36.339833      25.842952      109.41691    
-807634.15      3.5898963      35.014332      25.855291      108.99014    
-807645.98      3.3263723      35.256054      25.820471      108.56432    
-807644.27      3.3979199      36.672355      25.827168      108.13872    
-807636.61      3.2004173      36.066871      25.822697      107.71352    
-807626.47      3.7656954      36.585011      25.834862      107.28844    
-807615.42      3.6812739      37.691957      25.82007       106.86392    
-807603.95      3.7914448      38.835484      25.811766      106.43986    
-807607.38      4.7985345      37.994848      25.848798      106.0155     
-807622.06      3.1958898      35.914855      25.86188       105.59124    
-807636.69      2.9368757      35.826345      25.861829      105.16729    
-807641.13      4.0844585      36.936495      25.839557      104.74401    
-807642.34      3.7449164      36.96068       25.877272      104.32042    
-807637.04      3.1063062      35.859176      25.856206      103.89748    
-807626.94      3.244386       35.972897      25.837449      103.47512    
-807611.03      3.5586599      37.606508      25.826274      103.05323    
-807600.4       3.2988602      38.688499      25.848257      102.63129    
-807606.73      3.2513272      37.851334      25.839389      102.20976    
-807624.94      2.924249       35.743487      25.853181      101.7883     
-807634.09      3.6292014      35.900308      25.811757      101.36774    
-807640.38      4.5126554      36.673501      25.819214      100.94734    
-807643.79      3.4650296      36.828496      25.837491      100.52693    
-807639.28      3.4918807      35.831234      25.836778      100.10679    
-807624.3       4.2522941      36.373567      25.823051      99.68712     
-807605.71      3.7435762      39.143377      25.856678      99.267214    
-807603.88      3.9134724      38.29053       25.870628      98.847369    
-807610.54      3.6879071      38.501256      25.839086      98.428233    
-807620.28      3.4579582      36.893513      25.822953      98.009576    
-807633.54      3.7077138      36.776425      25.8773        97.5904      
-807643.42      3.6295633      37.317246      25.865487      97.171641    
-807642.86      3.6910833      36.958862      25.819307      96.753766    
-807635         5.4199449      36.930486      25.850072      96.335705    
-807618.5       3.8301176      37.257464      25.898789      95.91722     
-807612.17      3.5928873      37.695768      25.869702      95.499372    
-807603.25      3.5981194      38.164745      25.839175      95.082171    
-807611.12      3.3895377      36.958066      25.857742      94.66495     
-807622.7       3.6205985      37.042087      25.842523      94.24816     
-807639.13      2.7240402      35.499385      25.812692      93.831983    
-807644.03      3.5652744      35.95095       25.813516      93.41601     
-807638.72      3.2960529      36.580819      25.840541      92.999901    
-807632.86      3.3995191      35.755414      25.815685      92.584326    
-807621.57      3.5059857      36.21179       25.806686      92.169073    
-807609.7       3.0397318      37.248876      25.842808      91.75357     
-807603.64      3.0689576      37.70229       25.847352      91.338219    
-807613.65      4.1817219      37.476692      25.887017      90.922588    
-807627.69      3.6185771      36.18323       25.936329      90.506568    
-807638.57      3.4731936      35.642738      25.897014      90.091245    
-807640.09      3.480947       36.633019      25.877164      89.676371    
-807641.43      3.6947098      35.744154      25.876346      89.261711    
-807631.56      3.1947748      36.602911      25.872984      88.847293    
-807619.35      3.7663066      36.830745      25.863109      88.43319     
-807608.25      3.5879885      37.269426      25.840671      88.019545    
-807606.18      3.4748965      38.97252       25.820419      87.606323    
-807613.12      3.9344935      39.163774      25.785661      87.193684    
-807627.56      3.7142876      36.177173      25.797196      86.78109     
-807636.32      3.2103094      36.575302      25.85403       86.368026    
-807643.74      3.0695559      35.763408      25.857387      85.955109    
-807638.94      3.2678062      36.652189      25.821202      85.542777    
-807632.54      3.4914258      34.392737      25.824597      85.130582    
-807618.55      2.9070279      34.2866        25.859853      84.718173    
-807609.5       2.728604       36.657436      25.849867      84.30605     
-807606.09      3.3671291      37.554178      25.850945      83.89409     
-807617.74      3.4178806      35.923725      25.860381      83.4822      
-807627.06      3.8927296      35.888947      25.828011      83.070825    
-807638.33      3.4993007      35.677607      25.807193      82.659834    
-807642.67      3.7238249      36.213658      25.767295      82.249419    
-807638.6       2.9000336      35.74545       25.804015      81.838775    
-807628.11      3.0877023      35.1515        25.800876      81.428317    
-807617.47      3.3606217      35.348791      25.825024      81.017768    
-807609.27      3.9067571      37.007326      25.848656      80.607137    
-807606.85      4.2915626      37.282321      25.782743      80.197323    
-807616.01      4.7191792      36.458933      25.829366      79.787193    
-807630.28      2.9260054      35.337014      25.859254      79.376922    
-807639.61      4.1353817      36.179072      25.844173      78.966952    
-807640.63      4.8033154      36.214884      25.815711      78.55741     
-807636.58      4.6731132      35.646295      25.825084      78.147923    
-807626.66      3.591425       36.06801       25.871369      77.738142    
-807616.91      4.0424562      36.906455      25.926954      77.327992    
-807607.42      2.8851789      37.359374      25.913927      76.918121    
-807604.32      3.394205       38.905138      25.888008      76.508645    
-807618.99      3.0267939      36.980988      25.864401      76.099534    
-807631.58      3.2425292      36.766434      25.91502       75.690108    
-807639.06      3.0783042      35.633016      25.873342      75.281208    
-807638.58      3.1711311      36.098489      25.869719      74.872484    
-807636.17      4.2370688      36.136598      25.86906       74.463907    
-807624.93      3.288201       36.870214      25.914284      74.055073    
-807613.89      4.0309378      37.539634      25.900657      73.646503    
-807606.83      3.6335567      37.936208      25.840884      73.238591    
-807606.83      4.2813177      38.947788      25.816698      72.831017    
-807621.48      3.2108927      36.550271      25.842493      72.42335     
-807630.09      3.9188924      37.418758      25.893865      72.015382    
-807636.2       3.4321211      37.725921      25.912319      71.607396    
-807638.85      4.1575924      36.680786      25.899331      71.199653    
-807633.71      3.2100561      36.720955      25.907733      70.791976    
-807626.84      3.7788616      35.318504      25.913735      70.384384    
-807611.04      2.9536628      37.130436      25.902873      69.977014    
-807609.28      3.0369818      37.095017      25.854211      69.570161    
-807613.06      3.310263       37.468379      25.809541      69.163786    
-807621.52      4.4360461      36.870824      25.797985      68.757617    
-807631.51      3.3051662      35.601313      25.889019      68.350852    
-807638.86      3.6450643      36.36747       25.831034      67.944658    
-807638.31      2.9038724      36.493352      25.817401      67.538684    
-807633.43      3.2099042      36.941117      25.822327      67.132784    
-807622.71      3.5460524      36.487313      25.871678      66.726627    
-807615.98      3.6519174      37.571816      25.922987      66.320206    
-807610.03      3.8059117      37.423062      25.884896      65.914188    
-807614.38      4.0412202      37.010992      25.870477      65.508393    
-807623.74      2.5689027      34.796718      25.917098      65.102375    
-807636.14      3.5258756      34.731642      25.923339      64.696433    
-807640.09      3.3751055      35.079394      25.92717       64.290582    
-807638.91      3.1090329      35.895504      25.894675      63.885078    
-807630.68      2.9438952      35.222726      25.93839       63.479384    
-807624.2       3.3492701      36.522687      25.908329      63.074014    
-807615.81      4.0303738      37.286375      25.91109       62.668738    
-807610.84      4.1971768      38.227694      25.89785       62.263665    
-807613.49      4.1000627      37.902274      25.935647      61.858448    
-807627.87      5.2281306      36.301786      25.890629      61.453644    
-807635.57      3.1220141      35.580663      25.872936      61.049062    
-807637.59      4.1490664      36.74792       25.855948      60.644696    
-807635.93      3.5183179      36.273873      25.845092      60.240501    
-807632.04      3.3723406      35.69424       25.89253       59.836101    
-807623.83      3.4324614      36.580792      25.908657      59.431702    
-807612.01      3.0691833      36.737771      25.89187       59.027513    
-807610.42      3.2162138      37.224974      25.910621      58.62331     
-807617.52      3.2877676      36.796433      25.88746       58.219352    
-807627.31      3.368056       36.457524      25.890189      57.815477    
-807633.3       4.4071894      36.983271      25.910199      57.411581    
-807637.69      3.6297505      36.511781      25.854225      57.00812     
-807636.25      3.4409241      36.646163      25.843683      56.604814    
-807629.43      3.161          36.231275      25.899926      56.20127     
-807620.36      3.841451       37.228539      25.881545      55.797929    
-807613.65      2.9112773      37.104113      25.898342      55.394586    
-807611.59      3.569095       37.41534       25.865172      54.991526    
-807619.4       3.3898887      37.23371       25.859286      54.588591    
-807624.93      4.8927983      37.273259      25.881153      54.185622    
-807633.26      3.7885366      37.471465      25.879946      53.782751    
-807636         4.1763061      38.033228      25.874357      53.380001    
-807632.97      3.5014808      37.773586      25.865345      52.977388    
-807627.12      3.367632       37.774743      25.895738      52.574699    
-807618.2       4.0955061      37.331207      25.897054      52.172093    
-807610.87      3.0387225      39.058868      25.910837      51.769504    
-807610.57      4.4133736      38.686999      25.898319      51.367069    
-807616.6       3.4496536      37.648214      25.849688      50.964972    
-807626.86      4.3513012      36.929689      25.886412      50.562769    
-807632.85      2.8775267      37.09499       25.843198      50.16087     
-807635.07      5.0289545      37.345744      25.857068      49.758981    
-807633.39      3.4956662      36.621189      25.862533      49.357145    
-807626.78      3.3031117      36.61295       25.899944      48.955208    
-807617.09      3.7361206      37.812393      25.903337      48.553339    
-807612.53      4.123007       37.529849      25.90665       48.151537    
-807611         3.6975467      38.410115      25.892647      47.749884    
-807618.45      4.6917535      37.600202      25.897977      47.348287    
-807626.2       3.0723138      37.718246      25.890662      46.946805    
-807634.38      3.3771746      37.400742      25.872739      46.545485    
-807635.61      3.5555977      37.973458      25.892053      46.144154    
-807630.61      3.5452866      37.756478      25.885832      45.74293     
-807626.77      3.1107586      36.917646      25.911339      45.34167     
-807615.95      2.9659513      37.607323      25.853398      44.940743    
-807611.7       3.0437944      38.146426      25.904851      44.539666    
-807612.55      2.929269       38.161178      25.865826      44.138833    
-807622.68      2.7946798      36.665534      25.856243      43.738114    
-807628.28      4.053003       37.599036      25.872656      43.337397    
-807635.89      2.9404426      37.194874      25.856859      42.936818    
-807636.14      3.2762016      37.199078      25.879156      42.536219    
-807632.47      4.2714217      36.740798      25.872006      42.13572     
-807624.3       3.8327286      37.220792      25.864328      41.735322    
-807615.92      3.8029615      37.927741      25.79181       41.33528     
-807612.58      3.2840384      38.423685      25.83847       40.935118    
-807614.29      3.3310196      37.606018      25.82789       40.535063    
-807621.88      4.5548548      36.983522      25.780535      40.135253    
-807629.24      3.6921809      36.865292      25.812138      39.735383    
-807638.35      4.2285473      35.834844      25.906469      39.335227    
-807634.59      3.7505723      37.049048      25.884321      38.935222    
-807632.65      4.6191634      37.194083      25.882113      38.535293    
-807623.42      3.432646       37.513398      25.876462      38.135451    
-807616.58      3.1226402      38.112474      25.905902      37.735572    
-807612.78      3.8780744      38.21727       25.852634      37.335945    
-807616.53      3.9442394      37.887347      25.877856      36.936296    
-807622.39      3.7919713      36.698758      25.856985      36.536781    
-807630.68      3.0977222      36.205447      25.854828      36.137336    
-807635.59      3.2392505      36.295463      25.921909      35.737734    
-807636.78      3.5308417      35.710514      25.91014       35.338236    
-807631.18      3.0467003      36.123983      25.935314      34.938724    
-807624.19      2.9834184      36.576261      25.911002      34.539356    
-807617.9       3.5130078      37.148902      25.943984      34.139951    
-807614.27      3.4198077      37.714591      25.909469      33.740719    
-807617.53      3.0669977      36.761078      25.879849      33.341639    
-807625.68      3.2983082      36.102557      25.857209      32.942687    
-807631.55      4.0319489      36.088313      25.84514       32.54383     
-807633.7       3.60903        36.330306      25.840554      32.145042    
-807635.72      3.5344689      36.296249      25.863674      31.746245    
-807629.6       3.3106081      36.096826      25.808579      31.347661    
-807623.65      3.564933       37.043904      25.876285      30.948942    
-807617.05      4.2086126      37.158938      25.866258      30.550308    
-807615.84      3.6773669      37.66773       25.910557      30.151612    
-807618.2       3.5948363      37.120696      25.929096      29.752928    
-807626.12      3.7406319      36.521729      25.908555      29.354358    
-807630.84      3.2929079      36.428338      25.867846      28.955951    
-807635.55      3.1280907      35.971674      25.85897       28.557621    
-807634.63      3.380954       36.239256      25.901928      28.159239    
-807628.92      3.5310051      36.29174       25.938053      27.760827    
-807622.42      3.3764042      35.903778      25.942349      27.362465    
-807618.18      3.7415792      36.909679      25.892405      26.964279    
-807614.35      3.1349102      36.549468      25.845177      26.566258    
-807619.14      3.3683458      36.62885       25.863884      26.168246    
-807625.21      2.92142        36.495214      25.8515        25.770313    
-807630.16      3.4148727      36.259897      25.863818      25.372404    
-807635.01      3.1503286      36.681856      25.854436      24.974567    
-807633.11      3.6028274      36.780579      25.868342      24.576752    
-807625.46      3.408512       37.014079      25.890176      24.178942    
-807621.65      2.9927748      37.204392      25.955295      23.781052    
-807617.16      3.0346279      37.453719      25.9261        23.383278    
-807614.16      2.9089959      37.290315      25.928438      22.985554    
-807619.36      3.0377491      36.571308      25.912742      22.587914    
-807625.8       3.3864998      36.792026      25.909741      22.190333    
-807631.35      2.9709953      36.671975      25.872114      21.792873    
-807630.37      3.8124717      37.675643      25.870095      21.395466    
-807632.37      3.9565713      36.789655      25.877486      20.998094    
-807625.94      3.7258608      36.93438       25.872694      20.60078     
-807620.39      3.6302362      37.086373      25.89439       20.203477    
-807613.62      3.0167117      38.04563       25.851659      19.806295    
-807617.3       3.8495928      37.016525      25.829698      19.409194    
-807619.88      3.6588903      37.0968        25.852144      19.012101    
-807626.68      3.2540914      36.876837      25.869781      18.615026    
-807630.6       3.6743865      36.892883      25.902345      18.217949    
-807632.08      3.9023019      37.696841      25.906656      17.820913    
-807631.49      3.4806913      36.940466      25.925805      17.423899    
-807624.5       3.1306923      37.964925      25.922392      17.026938    
-807619         3.296615       36.931425      25.880915      16.630084    
-807615.66      3.6911857      38.12825       25.89116       16.233261    
-807618.15      3.7136948      37.957837      25.889615      15.836486    
-807622.24      3.4880245      36.59778       25.851817      15.439805    
-807625.39      3.4086859      37.521845      25.860932      15.043155    
-807632.99      3.4370251      36.769572      25.895758      14.646507    
-807633.64      3.2593473      35.98897       25.840214      14.249968    
-807632.6       3.3321565      35.980514      25.908452      13.853393    
-807624.66      3.3715787      36.300811      25.891366      13.456883    
-807621.77      3.0042911      36.542037      25.873044      13.060436    
-807618.93      2.8077926      36.49759       25.85276       12.664052    
-807617.28      4.1060313      36.992727      25.919215      12.267644    
-807620.62      3.3585759      37.356623      25.890616      11.871308    
-807628.46      4.5601787      36.92711       25.876402      11.475027    
-807632.36      3.2903834      36.624201      25.90615       11.078762    
-807633         3.5240441      36.65625       25.919365      10.68253     
-807630.25      4.4495448      36.804086      25.876406      10.286376    
-807626.75      3.4722963      36.505679      25.909478      9.890237     
-807621.62      4.3799024      36.685217      25.903122      9.4941457    
-807617.38      3.1823774      37.000155      25.848732      9.0981357    
-807618.02      4.0449092      36.752455      25.820438      8.7021835    
-807622.6       3.9265287      36.971247      25.833277      8.3062589    
-807628.36      3.2636641      35.694186      25.886909      7.9103378    
-807631.53      3.2646839      35.97173       25.896854      7.5144508    
-807631.75      3.2306947      36.885269      25.917859      7.1185925    
-807628.3       2.8667146      35.859312      25.895945      6.7227872    
-807624.8       2.8634766      36.764392      25.916504      6.3270117    
-807620.85      4.0945448      36.821988      25.9093        5.9312804    
-807616.16      3.0391175      37.501049      25.924486      5.5355827    
-807619.95      3.6802415      37.23866       25.916668      5.1399291    
-807624.59      2.8996579      36.94497       25.926227      4.7443122    
-807627.9       4.2034124      37.068577      25.888117      4.3487486    
-807632.25      3.7123573      36.512315      25.898789      3.9532196    
-807631.01      2.9020154      35.955966      25.849974      3.5577423    
-807629.96      3.2927419      36.1807        25.919722      3.1622831    
-807620.72      2.9785008      36.610891      25.886652      2.7668702    
-807620.81      3.5852332      36.264074      25.833883      2.3715037    
-807616.97      3.0013681      36.730571      25.833454      1.9761707    
-807620.98      3.257122       37.20144       25.830257      1.5808713    
-807623.95      3.3653385      36.31543       25.842369      1.1856036    
-807627.9       2.8055802      36.052924      25.830403      0.79037004   
-807632.36      3.2128456      36.266737      25.909452      0.39516653   
-807631.56      4.0841055      35.645185      25.909362      0            
Loop time of 197.574 on 32 procs for 5000 steps with 1080 atoms

Performance: 4.373 ns/day, 5.488 hours/ns, 25.307 timesteps/s, 27.332 katom-step/s
67.3% CPU use with 32 MPI tasks x 1 OpenMP threads

MPI task timing breakdown:
Section |  min time  |  avg time  |  max time  |%varavg| %total
---------------------------------------------------------------
Pair    | 101.48     | 144.29     | 193.36     | 310.8 | 73.03
Neigh   | 0          | 0          | 0          |   0.0 |  0.00
Comm    | 1.9386     | 51.012     | 93.82      | 522.7 | 25.82
Output  | 0.026837   | 0.027548   | 0.029606   |   0.3 |  0.01
Modify  | 1.9251     | 1.9327     | 1.9415     |   0.3 |  0.98
Other   |            | 0.3163     |            |       |  0.16

Nlocal:          33.75 ave          48 max          21 min
Histogram: 8 8 0 0 0 0 0 8 0 8
Nghost:        1106.25 ave        1119 max        1092 min
Histogram: 8 0 8 0 0 0 0 0 8 8
Neighs:              0 ave           0 max           0 min
Histogram: 32 0 0 0 0 0 0 0 0 0
FullNghs:       5494.5 ave        7896 max        3378 min
Histogram: 8 8 0 0 0 0 0 8 0 8

Total # of neighbors = 175824
Ave neighs/atom = 162.8
Neighbor list builds = 0
Dangerous builds = 0

reset_timestep 0


variable interval equal 1000
thermo 10

variable nintervals equal $(v_PERIOD/v_interval)
variable nintervals equal 100
variable efield equal 1e-2*36.36*cos((step/${PERIOD})*2*3.14)
variable efield equal 1e-2*36.36*cos((step/100000)*2*3.14)
fix born all addbornforce 0.0 0.0 v_efield

variable Px equal f_born[1]+c_polarization[1]
variable Py equal f_born[2]+c_polarization[2]
variable Pz equal (f_born[3]+c_polarization[3])/vol
variable pe equal pe

fix aveP all ave/time 1 $(v_interval/2) ${interval} v_efield v_Pz v_pe f_born file Pz.${MODEL}.${STRUCTURE}.${TEMP}.$L.${ITER}
fix aveP all ave/time 1 500 ${interval} v_efield v_Pz v_pe f_born file Pz.${MODEL}.${STRUCTURE}.${TEMP}.$L.${ITER}
fix aveP all ave/time 1 500 1000 v_efield v_Pz v_pe f_born file Pz.${MODEL}.${STRUCTURE}.${TEMP}.$L.${ITER}
fix aveP all ave/time 1 500 1000 v_efield v_Pz v_pe f_born file Pz.BaTiO3-E0.${STRUCTURE}.${TEMP}.$L.${ITER}
fix aveP all ave/time 1 500 1000 v_efield v_Pz v_pe f_born file Pz.BaTiO3-E0.BaTiO3-sc333.${TEMP}.$L.${ITER}
fix aveP all ave/time 1 500 1000 v_efield v_Pz v_pe f_born file Pz.BaTiO3-E0.BaTiO3-sc333.350.$L.${ITER}
fix aveP all ave/time 1 500 1000 v_efield v_Pz v_pe f_born file Pz.BaTiO3-E0.BaTiO3-sc333.350.2.${ITER}
fix aveP all ave/time 1 500 1000 v_efield v_Pz v_pe f_born file Pz.BaTiO3-E0.BaTiO3-sc333.350.2.1

thermo_style custom step time temp press pe f_born v_efield v_Pz spcpu cpuremain

# dump 4a all custom 1000 dump.hyst.${MODEL}.${STRUCTURE}.${TEMP}.$L.${ITER}.bin id type xu yu zu fx fy fz
# dump_modify 4a sort id

fix nvt all nvt temp ${TEMP} ${TEMP} $(100*dt)
fix nvt all nvt temp 350 ${TEMP} $(100*dt)
fix nvt all nvt temp 350 350 $(100*dt)
fix nvt all nvt temp 350 350 0.2000000000000000111

run $(v_PERIOD)
run 100000
WARNING: non-constant efield is experimental, strongly distrust scalar/vector output (src/fix_addbornforce.cpp:193)
Per MPI rank memory allocation (min/avg/max) = 3.516 | 3.516 | 3.516 Mbytes
   Step          Time           Temp          Press          PotEng         f_born        v_efield         v_Pz          S/CPU         CPULeft    
         0   0              357.46887      130973.15     -807631.56     -296.65206      0.3636         0.055791882    0              0            
        10   0.02           342.36729      133863.31     -807624.94     -301.22955      0.36359993     0.05665279     27.896473      3584.3429    
        20   0.04           352.02209      138336.72     -807621.97     -305.53749      0.36359971     0.057463026    27.892148      3584.2529    
        30   0.06           347.9434       139795.31     -807619.07     -307.88378      0.36359935     0.057904355    27.849587      3585.8097    
        40   0.08           360.36946      141531.42     -807618.57     -310.05241      0.36359885     0.058312294    27.882621      3585.3455    
        50   0.1            355.32021      138482.69     -807620.25     -307.80654      0.36359821     0.05789001     27.90942       3584.2349    
        60   0.12           350.73197      136814.88     -807622.97     -304.38802      0.36359742     0.057247205    27.935427      3582.8197    
        70   0.14           359.27469      131519.25     -807631.17     -297.44933      0.36359649     0.055942366    27.929024      3581.8224    
        80   0.16           341.43367      130970.77     -807629.87     -296.24403      0.36359541     0.055715845    27.932473      3580.932     
        90   0.18           349.72064      129947.86     -807630.08     -297.32098      0.36359419     0.05591858     27.964737      3579.7002    
       100   0.2            353.84972      134776.06     -807626.04     -301.94959      0.36359283     0.056789318    27.987558      3578.3521    
       110   0.22           356.93566      135886.36     -807624.55     -304.00774      0.36359132     0.057176642    28.005169      3576.9801    
       120   0.24           345.82438      141248.77     -807617.7      -309.38158      0.36358968     0.058187598    27.952306      3576.3395    
       130   0.26           354.35676      139471.19     -807618.55     -309.94444      0.36358788     0.058293745    27.960745      3575.659     
       140   0.28           356.20163      139459.83     -807619.99     -308.86555      0.36358595     0.05809114     27.998707      3574.679     
       150   0.3            342.74319      134901.03     -807625.3      -301.86745      0.36358387     0.056775268    28.002797      3573.7476    
       160   0.32           349.40615      133146.24     -807628.89     -299.35913      0.36358165     0.056303849    27.953266      3573.2823    
       170   0.34           342.64789      130364.82     -807630.59     -297.06705      0.36357928     0.055873115    27.947826      3572.8708    
       180   0.36           346.07006      131548.6      -807630.06     -298.31614      0.36357677     0.056108433    27.913147      3572.712     
       190   0.38           344.91285      133361.51     -807627.78     -300.70626      0.36357412     0.056558389    27.920408      3572.4831    
       200   0.4            345.10999      136805.57     -807624.04     -304.82954      0.36357132     0.057334357    27.963661      3571.9648    
       210   0.42           342.99046      139811.12     -807618.97     -309.92915      0.36356838     0.058293996    28.001138      3571.2341    
       220   0.44           337.45419      138803.76     -807619.97     -308.51526      0.3635653      0.058028554    27.907816      3571.0793    
       230   0.46           332.78056      139298.63     -807621.37     -306.63373      0.36356207     0.057675169    27.980432      3570.5033    
       240   0.48           346.08979      133489.94     -807628.19     -301.99248      0.3635587      0.056802716    27.902491      3570.3605    
       250   0.5            333.84852      133458.14     -807627.8      -300.7963       0.36355519     0.05657827     27.987268      3569.7673    
       260   0.52           345.16052      129186.17     -807634.38     -296.05484      0.36355153     0.055686984    27.898311      3569.6294    
       270   0.54           339.4087       132251.48     -807631.66     -298.027        0.36354773     0.056058527    27.968009      3569.1451    
       280   0.56           344.91713      132196.39     -807630.06     -300.61166      0.36354379     0.056545312    27.931972      3568.8342    
       290   0.58           331.5342       139470.51     -807620.78     -308.05089      0.3635397      0.057945289    27.90663       3568.6318    
       300   0.6            333.55985      138620        -807621.27     -308.04815      0.36353547     0.057945448    27.949054      3568.2385    
       310   0.62           333.98725      141422.86     -807620.25     -309.02241      0.3635311      0.058129411    27.969637      3567.7624    
       320   0.64           335.46391      136007.68     -807624.17     -305.41502      0.36352658     0.057451549    27.904482      3567.5539    
       330   0.66           339.31467      136046.9      -807625.39     -304.50745      0.36352192     0.05728156     27.925342      3567.2555    
       340   0.68           335.96145      130262.76     -807631.64     -297.76464      0.36351712     0.056013894    27.886737      3567.0988    
       350   0.7            335.57183      131396.97     -807632.4      -296.72807      0.36351217     0.055819661    27.884548      3566.9388    
       360   0.72           340.20449      130544.77     -807631.77     -297.90189      0.36350708     0.056041261    27.957207      3566.5096    
       370   0.74           347.76227      134771.35     -807626.88     -303.62361      0.36350185     0.057118452    27.960985      3566.0714    
       380   0.76           324.92786      137795.64     -807621.38     -305.80832      0.36349647     0.057530297    28.014473      3565.4584    
       390   0.78           343.83043      140178.01     -807621.99     -307.50917      0.36349095     0.057851148    28.035366      3564.7905    
       400   0.8            348.81709      138778.71     -807621.47     -308.45953      0.36348529     0.058030842    27.926971      3564.4829    
       410   0.82           348.53657      137424.27     -807622.71     -306.85105      0.36347948     0.057729159    27.918802      3564.1983    
       420   0.84           335.36173      134580.94     -807625.86     -301.48304      0.36347353     0.056720182    27.915564      3563.9202    
       430   0.86           356.99687      130250.27     -807633.48     -296.522        0.36346744     0.055787761    27.91071       3563.6527    
       440   0.88           339.40569      131886.88     -807629.72     -297.44789      0.3634612      0.055962919    27.923098      3563.3449    
       450   0.9            347.20224      131743.94     -807628.72     -299.38509      0.36345482     0.056328378    27.995154      3562.8312    
       460   0.92           337.93984      136901.06     -807623.96     -302.56493      0.3634483      0.056927677    28.009535      3562.2845    
       470   0.94           359.39015      136540.3      -807624.52     -304.872        0.36344163     0.057362806    28.005749      3561.7561    
       480   0.96           352.36095      141169.25     -807618.07     -310.11895      0.36343482     0.058351132    27.98729       3561.2837    
       490   0.98           355.64831      138431.55     -807619.77     -308.88914      0.36342786     0.058120846    27.97737       3560.8417    
       500   1              355.90098      139053.1      -807622.41     -306.06087      0.36342077     0.057589802    27.916282      3560.5588    
       510   1.02           353.09004      132581.49     -807628.82     -9574.4878      0.36341353     0.056300468    27.880291      3560.3631    
       520   1.04           340.11187      133468.68     -807627.46     -9556.0574      0.36340614     0.056193234    27.866243      3560.1958    
       530   1.06           338.96514      129136.4      -807629.85     -9477.0215      0.36339862     0.055729627    27.870257      3560.0113    
       540   1.08           349.80687      133766.26     -807627.96     -9580.0931      0.36339095     0.056336929    27.895609      3559.7606    
       550   1.1            349.95748      133334.41     -807626.37     -9634.7186      0.36338313     0.056659379    27.796899      3559.736     
       560   1.12           353.7454       140373.76     -807619.25     -9875.1745      0.36337518     0.058074712    27.811764      3559.6654    
       570   1.14           359.75313      139191.38     -807620.64     -9862.027       0.36336707     0.057998686    27.796586      3559.6188    
       580   1.16           350.16018      142025.12     -807618.65     -9875.3409      0.36335883     0.058078303    27.864676      3559.4108    
       590   1.18           352.06982      135340.9      -807624.03     -9714.8564      0.36335044     0.057135789    27.742927      3559.463     
       600   1.2            348.26128      134815.85     -807625.64     -9643.8436      0.36334191     0.056719475    27.800208      3559.3784    
       610   1.22           354.69357      130440.45     -807630.9      -9505.2299      0.36333324     0.055905564    27.739183      3559.4138    
       620   1.24           352.03554      131425.79     -807631.43     -9474.1808      0.36332442     0.055724299    27.804789      3559.2999    
       630   1.26           341.03991      132981.36     -807627.79     -9545.2217      0.36331546     0.056143525    27.87351       3559.0385    
       640   1.28           356.40255      135921.53     -807624.42     -9721.5448      0.36330636     0.057182063    27.8187        3558.8837    
       650   1.3            350.78437      139594.93     -807619.46     -9855.073       0.36329711     0.05796895     27.82914       3558.702     
       660   1.32           352.22726      140293.94     -807620.3      -9837.1657      0.36328772     0.057865113    27.847592      3558.4791    
       670   1.34           352.39257      139534.23     -807619.97     -9845.8659      0.36327819     0.05791781     27.874248      3558.2013    
       680   1.36           353.671        135620.9      -807624.27     -9717.1945      0.36326851     0.057162429    27.850695      3557.9653    
       690   1.38           344.2895       134556.76     -807626.44     -9605.286       0.36325869     0.056505643    27.896232      3557.6415    
       700   1.4            356.03008      128981.41     -807633.21     -9444.1102      0.36324873     0.055559008    27.874997      3557.3554    
       710   1.42           349.12755      131690.47     -807630.25     -9506.482       0.36323863     0.055927492    27.892537      3557.0357    
       720   1.44           350.11798      131980.16     -807628.19     -9584.9399      0.36322838     0.056390658    27.93118       3556.6466    
       730   1.46           353.3659       137984.99     -807623.7      -9740.7875      0.36321798     0.05730919     27.878742      3556.3498    
       740   1.48           345.09142      137916.73     -807620.87     -9798.2549      0.36320745     0.057648967    27.892308      3556.0279    
       750   1.5            353.83435      141018.54     -807619.18     -9891.3311      0.36319677     0.058198301    27.887511      3555.7133    
       760   1.52           348.34311      137597.68     -807621.14     -9809.5018      0.36318595     0.057718556    27.887001      3555.3984    
       770   1.54           345.9081       137417.87     -807623.31     -9729.5503      0.36317498     0.057249854    27.880517      3555.093     
       780   1.56           341.83409      131418.58     -807628.9      -9537.0218      0.36316387     0.05611871     27.823733      3554.8794    
       790   1.58           345.04066      132371.41     -807630.58     -9499.2497      0.36315262     0.055898179    27.918621      3554.5088    
       800   1.6            346.42924      130017.08     -807630.64     -9507.8327      0.36314122     0.055950441    27.889641      3554.1846    
       810   1.62           346.00964      134131.25     -807627.16     -9619.7162      0.36312968     0.056610637    27.902669      3553.8389    
       820   1.64           352.03186      135946.43     -807624.73     -9730.2761      0.363118       0.057263109    27.886159      3553.5188    
       830   1.66           340.86461      139367.37     -807619.84     -9840.1379      0.36310618     0.057911536    27.873141      3553.2177    
       840   1.68           346.52784      139762.25     -807619.36     -9884.5711      0.36309421     0.058174953    27.784027      3553.051     
       850   1.7            351.08731      139162.87     -807621.81     -9832.0164      0.3630821      0.057867577    27.752335      3552.9278    
       860   1.72           346.97867      135389.22     -807626.32     -9672.4608      0.36306984     0.056930414    27.69012       3552.8923    
       870   1.74           333.73975      132905.93     -807628.84     -9536.6609      0.36305745     0.056133036    27.797831      3552.6899    
       880   1.76           349.21461      129615.76     -807632.88     -9479.2138      0.3630449      0.055796828    27.743608      3552.5632    
       890   1.78           338.24304      130904.39     -807630.59     -9510.1776      0.36303222     0.055981044    27.733322      3552.4461    
       900   1.8            347.50759      133547.83     -807628.73     -9613.4734      0.36301939     0.056591088    27.789986      3552.2426    
       910   1.82           343.61052      136642.14     -807624.08     -9749.3085      0.36300642     0.057392751    27.815387      3551.9999    
       920   1.84           343.54007      140367.05     -807620.29     -9874.7058      0.36299331     0.058133047    27.862651      3551.6889    
       930   1.86           351.58153      140072.58     -807621.12     -9887.2731      0.36298005     0.058209157    27.891064      3551.338     
       940   1.88           331.64585      137886.49     -807621.26     -9795.664       0.36296665     0.057671958    27.890021      3550.9884    
       950   1.9            350.31695      134489.82     -807628.37     -9653.1815      0.36295311     0.056835213    27.931441      3550.5831    
       960   1.92           326.51262      132414.43     -807629.31     -9518.1099      0.36293942     0.056042062    27.89521       3550.2268    
       970   1.94           340.19753      130127.47     -807632.43     -9480.681       0.36292559     0.055823811    27.823057      3549.9653    
       980   1.96           326.90719      132388.59     -807628.95     -9532.8222      0.36291162     0.056132988    27.884166      3549.6223    
       990   1.98           346.56219      133311.09     -807629.26     -9610.5199      0.3628975      0.056592703    27.93591       3549.2125    
      1000   2              349.29105      138112.49     -807623.94     -9788.5133      0.36288325     0.057643104    27.854293      3548.9076    
      1010   2.02           340.49207      138335.61     -807620.64     -307.9374       0.36286884     0.05803103     27.961398      3548.4668    
      1020   2.04           347.21203      140056.93     -807620.37     -308.90811      0.3628543      0.058216294    27.976717      3548.0087    
      1030   2.06           338.69015      135576.42     -807625.05     -302.99006      0.36283961     0.0571033      27.995704      3547.5292    
      1040   2.08           350.89765      135037.15     -807627.6      -301.79246      0.36282478     0.056879919    28.011867      3547.0325    
      1050   2.1            343.86342      129992.38     -807631.53     -296.77118      0.3628098      0.055935848    27.978828      3546.5781    
      1060   2.12           338.97124      132389.73     -807630.32     -296.8499       0.36279469     0.055953016    27.99369       3546.1079    
      1070   2.14           341.73261      130769.18     -807630.79     -296.567        0.36277943     0.055902044    27.97035       3545.6674    
      1080   2.16           351.12149      136362.48     -807625.21     -303.0635       0.36276402     0.057129041    27.989487      3545.206     
      1090   2.18           352.1999       136982.12     -807621.94     -306.17305      0.36274848     0.057717682    27.990445      3544.7454    
      1100   2.2            343.78416      141379.3      -807618.27     -308.22713      0.36273279     0.058107416    27.979123      3544.2996    
      1110   2.22           360.05672      138428.77     -807622.83     -305.64767      0.36271695     0.057623649    28.01759       3543.8117    
      1120   2.24           351.92613      138806.69     -807621.67     -305.29131      0.36270098     0.057558999    27.974181      3543.3751    
      1130   2.26           354.79644      131997.51     -807627.74     -299.42879      0.36268486     0.0564562      27.993559      3542.9182    
      1140   2.28           350.91313      131940.29     -807629.79     -296.47087      0.3626686      0.055901002    28.008453      3542.4466    
      1150   2.3            341.60696      129659.08     -807630.31     -294.55812      0.36265219     0.055542857    27.945964      3542.0457    
      1160   2.32           349.53003      134746.22     -807626.5      -299.23619      0.36263564     0.056427543    27.960284      3541.6298    
      1170   2.34           358.00668      135862.69     -807625.38     -301.44989      0.36261895     0.056847602    27.966264      3541.2085    
      1180   2.36           360.23999      140995.75     -807621.1      -305.84301      0.36260212     0.057678737    27.965013      3540.7896    
      1190   2.38           357.62742      139291.68     -807619.58     -306.94727      0.36258514     0.057889699    28.016235      3540.3175    
      1200   2.4            357.69108      140353.11     -807619.39     -306.98608      0.36256802     0.057899752    28.021527      3539.8416    
      1210   2.42           367.50696      135383.54     -807625.22     -302.50925      0.36255076     0.057058107    28.007056      3539.3829    
      1220   2.44           360.39255      133492.47     -807627.87     -298.79254      0.36253335     0.056359782    27.945506      3538.9895    
      1230   2.46           347.08919      131877.77     -807628.92     -295.90569      0.3625158      0.055817951    27.950547      3538.5914    
      1240   2.48           351.08835      131463.52     -807628.95     -296.47253      0.36249811     0.055927606    27.92754       3538.2175    
      1250   2.5            352.63831      134333.08     -807627        -298.64272      0.36248028     0.056339769    27.901646      3537.8701    
      1260   2.52           349.85119      137003.06     -807622.88     -302.40706      0.3624623      0.057052752    27.92723       3537.4968    
      1270   2.54           361.31192      138908.48     -807620.46     -306.46394      0.36244418     0.057821023    27.991999      3537.0594    
      1280   2.56           363.23286      140051.36     -807620.51     -306.74807      0.36242592     0.057877546    27.969837      3536.645     
      1290   2.58           352.86546      138792.05     -807619.93     -305.92789      0.36240751     0.057725725    27.972624      3536.2288    
      1300   2.6            362.24285      135216.81     -807625.03     -302.23213      0.36238896     0.057031289    27.970678      3535.8153    
      1310   2.62           352.54939      133492.27     -807627.09     -298.93079      0.36237027     0.056411236    27.939786      3535.4325    
      1320   2.64           353.90626      130946.9      -807629.89     -296.42837      0.36235143     0.055941911    27.910805      3535.0779    
      1330   2.66           350.35819      132040.85     -807628.75     -297.18335      0.36233245     0.056087328    27.938668      3534.6967    
      1340   2.68           350.78927      133226.38     -807626.73     -299.50883      0.36231333     0.0565292      27.956331      3534.2991    
      1350   2.7            350.78883      138258.13     -807622.42     -303.92534      0.36229407     0.05736582     27.992705      3533.8683    
      1360   2.72           351.78658      138532.77     -807620.88     -305.83777      0.36227466     0.057729882    27.960137      3533.4686    
      1370   2.74           358.76453      139446.12     -807621.01     -306.82716      0.36225511     0.057919765    28.004356      3533.029     
      1380   2.76           346.96753      136928.87     -807622.45     -303.98343      0.36223542     0.057386074    27.991835      3532.6019    
      1390   2.78           350.55962      135441.54     -807625.2      -301.9482       0.36221558     0.057004984    27.961474      3532.2034    
      1400   2.8            337.53125      132572.71     -807627.4      -298.0991       0.3621956      0.056281414    27.962616      3531.8044    
      1410   2.82           345.94073      132087.67     -807631.14     -295.67576      0.36217548     0.055826988    27.879882      3531.4802    
      1420   2.84           341.26865      132035.27     -807629.81     -296.62226      0.36215522     0.056008832    28.039372      3531.0139    
      1430   2.86           348.22025      134624.99     -807626.85     -300.70114      0.36213481     0.056782213    27.967957      3530.6119    
      1440   2.88           359.46607      135647.51     -807626.4      -302.93125      0.36211426     0.057206576    27.954989      3530.2219    
      1450   2.9            343.16926      138552.44     -807621.91     -305.37476      0.36209357     0.057671313    28.046512      3529.7529    
      1460   2.92           353.59526      137999.24     -807623.26     -305.69124      0.36207273     0.057734404    27.955398      3529.364     
      1470   2.94           341.26815      138523.53     -807622.51     -304.85035      0.36205176     0.057578925    27.973749      3528.9598    
      1480   2.96           348.1995       133884.44     -807627.91     -300.58241      0.36203064     0.056776127    27.956053      3528.5712    
      1490   2.98           337.71333      134161.8      -807628.51     -298.5971       0.36200937     0.05640444     27.880599      3528.2471    
      1500   3              341.3851       130408.04     -807630.88     -296.9598       0.36198796     0.056098475    27.921599      3527.8879    
      1510   3.02           346.56893      132932.3      -807629.05     -9586.2511      0.36196642     0.056595       27.890271      3527.5549    
      1520   3.04           335.66334      134061.11     -807627.72     -9584.8502      0.36194472     0.05659012     27.86463       3527.243     
      1530   3.06           339.98355      137284        -807624.32     -9714.6783      0.36192289     0.057360102    28.265916      3526.6026    
      1540   3.08           341.5282       137162.75     -807623.72     -9744.8596      0.36190091     0.057541801    28.405991      3525.8544    
      1550   3.1            345.74635      138621.38     -807623.34     -9776.2664      0.36187879     0.057730781    28.465372      3525.0646    
      1560   3.12           333.71342      136694.51     -807624.28     -9694.6275      0.36185653     0.05725221     28.451243      3524.2915    
      1570   3.14           337.663        135316.13     -807627.3      -9614.304       0.36183412     0.05678137     28.429189      3523.5408    
      1580   3.16           348.16996      131973.35     -807631.62     -9523.7373      0.36181157     0.056249995    28.432012      3522.7931    
      1590   3.18           335.03086      132757.04     -807629.21     -9540.0072      0.36178888     0.056349625    28.461683      3522.0275    
      1600   3.2            341.16681      132660.35     -807629.48     -9558.6301      0.36176605     0.056463187    28.461361      3521.2674    
      1610   3.22           342.81063      135472.49     -807627.5      -9625.9117      0.36174307     0.056864234    28.490419      3520.4905    
      1620   3.24           336.46655      137526.79     -807624.58     -9688.9102      0.36171995     0.05724005     28.472969      3519.7319    
      1630   3.26           344.04068      138546.15     -807622.88     -9769.5343      0.36169669     0.057720072    28.50411       3518.9552    
      1640   3.28           345.17558      137145.83     -807624.07     -9728.5655      0.36167329     0.057481741    28.45649       3518.2189    
      1650   3.3            347.47668      136753.09     -807625.98     -9667.2347      0.36164974     0.057123084    28.43824       3517.5006    
      1660   3.32           345.70106      133244.52     -807628.21     -9577.9521      0.36162605     0.056599226    28.409209      3516.8081    
      1670   3.34           348.96124      132756.18     -807629.16     -9550.2915      0.36160222     0.05643949     28.423218      3516.1094    
      1680   3.36           346.85552      132522.43     -807630.25     -9494.9263      0.36157824     0.056116018    28.440986      3515.402     
      1690   3.38           348.68528      134024.56     -807628.76     -9537.353       0.36155413     0.056370524    28.434281      3514.7037    
      1700   3.4            343.27445      135420.52     -807624.36     -9645.3902      0.36152987     0.057012904    28.447088      3514.0002    
      1710   3.42           356.97185      138028.88     -807623.77     -9714.4983      0.36150546     0.057425271    28.477862      3513.2791    
      1720   3.44           346.87982      137988.11     -807621.56     -9731.7532      0.36148092     0.057531176    28.451656      3512.5807    
      1730   3.46           349.85269      137678.9      -807622.36     -9708.0555      0.36145623     0.057395002    28.42525       3511.9049    
      1740   3.48           350.13037      135998.91     -807623.95     -9648.425       0.3614314      0.057046379    28.388509      3511.2585    
      1750   3.5            352.54699      133857.35     -807626.22     -9578.7147      0.36140643     0.05663813     28.441409      3510.5787    
      1760   3.52           357.5942       132377.66     -807629.9      -9474.93        0.36138131     0.056028354    28.450254      3509.8965    
      1770   3.54           351.32036      133112.06     -807627.62     -9511.0538      0.36135605     0.056245897    28.400374      3509.2523    
      1780   3.56           357.95535      133995.9      -807626.95     -9557.568       0.36133065     0.056524943    28.451186      3508.5767    
      1790   3.58           350.94691      136938.49     -807622.97     -9648.5513      0.36130511     0.057067066    28.477573      3507.8869    
      1800   3.6            363.701        138051.97     -807622.9      -9702.7378      0.36127942     0.057391636    28.470331      3507.2057    
      1810   3.62           353.01074      139153.47     -807620.03     -9742.5216      0.3612536      0.057631077    28.438031      3506.5497    
      1820   3.64           356.76919      136802.33     -807622.41     -9679.6919      0.36122763     0.05726353     28.472935      3505.8739    
      1830   3.66           362.52311      136383.21     -807625.11     -9614.153       0.36120151     0.056879924    28.441997      3505.2221    
      1840   3.68           356.68629      133412.53     -807627        -9524.5183      0.36117526     0.056353717    28.441726      3504.5738    
      1850   3.7            357.33238      133727.71     -807628.02     -9492.465       0.36114886     0.056168172    28.477941      3503.9049    
      1860   3.72           346.56268      132826.87     -807626.17     -9504.1651      0.36112232     0.056241537    28.44957       3503.2579    
      1870   3.74           365.11975      135259.04     -807626.09     -9586.6832      0.36109564     0.056734035    28.473512      3502.5986    
      1880   3.76           360.03965      135968.79     -807623.89     -9635.4284      0.36106881     0.057026746    28.469787      3501.945     
      1890   3.78           354.9641       139676.92     -807620.17     -9730.1314      0.36104184     0.057591542    28.507618      3501.2703    
      1900   3.8            378.25662      137006.87     -807624.86     -9687.1976      0.36101474     0.057341727    28.517855      3500.5926    
      1910   3.82           354.0821       139147.42     -807621.48     -9686.4009      0.36098748     0.05734134     28.476616      3499.9444    
      1920   3.84           364.29631      134061.31     -807627.14     -9557.4205      0.36096009     0.056582098    28.451102      3499.3154    
      1930   3.86           351.62179      134494.8      -807626.39     -9527.6995      0.36093255     0.056410446    28.463256      3498.6815    
      1940   3.88           344.92939      131919.68     -807628.49     -9437.2575      0.36090487     0.055879254    28.422659      3498.076     
      1950   3.9            351.65766      134835.9      -807626.35     -9536.4268      0.36087705     0.056470802    28.463256      3497.4479    
      1960   3.92           343.0373       134030.24     -807624.54     -9567.0794      0.36084909     0.056656704    28.42644       3496.8453    
      1970   3.94           360.58795      138274.24     -807623.61     -9677.1474      0.36082098     0.057312996    28.385622      3496.2705    
      1980   3.96           347.92326      138046.8      -807621.68     -9691.1462      0.36079273     0.057400398    28.347542      3495.7213    
      1990   3.98           361.31249      137717.22     -807623.19     -9709.0075      0.36076434     0.057510716    28.437173      3495.1193    
      2000   4              353.51475      135930.38     -807624.49     -9639.827       0.36073581     0.057105446    28.410585      3494.536     
      2010   4.02           339.82363      135325.27     -807625.19     -298.81983      0.36070713     0.056650299    28.512051      3493.8939    
      2020   4.04           357.66963      132422.84     -807629.5      -297.21444      0.36067831     0.05635045     28.496106      3493.2642    
      2030   4.06           344.59471      133359.11     -807628.8      -296.30416      0.36064935     0.056182377    28.547729      3492.6067    
      2040   4.08           353.96573      134205.21     -807629.25     -297.42032      0.36062025     0.056398563    28.498085      3491.9814    
      2050   4.1            343.64828      135113.89     -807625.71     -299.6755       0.36059101     0.056830813    28.44693       3491.389     
      2060   4.12           347.61347      136956.35     -807624.52     -301.62313      0.36056162     0.057204824    28.50617       3490.7642    
      2070   4.14           336.85722      136566.15     -807622.46     -302.32447      0.36053209     0.057342535    28.512977      3490.138     
      2080   4.16           357.37743      137294.92     -807625.41     -302.32722      0.36050242     0.057347775    28.543296      3489.497     
      2090   4.18           339.40306      135063.14     -807624.75     -300.6231       0.36047261     0.057029242    28.522195      3488.8709    
      2100   4.2            340.83856      135681.38     -807625.56     -299.97471      0.36044265     0.056910969    28.535013      3488.2401    
      2110   4.22           344.5646       132906.46     -807630.08     -296.09941      0.36041256     0.056180442    28.515294      3487.6232    
      2120   4.24           343.98854      134152        -807628.66     -297.40676      0.36038232     0.056433227    28.542675      3486.9932    
      2130   4.26           343.74582      132811.06     -807628.07     -298.05968      0.36035193     0.056561887    28.573314      3486.3487    
      2140   4.28           333.08311      137026.92     -807623.6      -300.92127      0.36032141     0.05710976     28.553986      3485.7177    
      2150   4.3            349.48063      135722.05     -807626.63     -300.21216      0.36029075     0.056980032    28.515913      3485.1106    
      2160   4.32           345.29577      138173.66     -807623.49     -302.61835      0.36025994     0.057441636    28.533313      3484.4961    
      2170   4.34           349.4304       135442.61     -807625.5      -301.21861      0.36022899     0.057180857    28.555859      3483.8717    
      2180   4.36           343.31264      136698.28     -807624.7      -300.95179      0.36019789     0.057135137    28.545976      3483.2552    
      2190   4.38           331.33432      132965.11     -807626.42     -297.49686      0.36016666     0.056484124    28.518241      3482.6564    
      2200   4.4            351.26241      133795.88     -807629.3      -297.23186      0.36013528     0.056438725    28.532813      3482.0518    
      2210   4.42           349.21391      131913.07     -807629.55     -296.68004      0.36010377     0.056338877    28.545691      3481.4425    
      2220   4.44           341.67655      136605.42     -807625.79     -299.13744      0.36007211     0.056810527    28.531488      3480.8433    
      2230   4.46           344.05108      133849.23     -807626.41     -298.77616      0.3600403      0.056746925    28.538369      3480.2426    
      2240   4.48           360.29151      137872.14     -807624.63     -302.49837      0.36000836     0.057458989    28.576297      3479.6238    
      2250   4.5            350.98164      135400.52     -807624.99     -300.81338      0.35997627     0.057144021    28.591698      3478.9993    
      2260   4.52           342.91949      139203.97     -807622.22     -302.11853      0.35994404     0.057397091    28.594599      3478.3756    
      2270   4.54           351.88307      133718.44     -807627.92     -297.50834      0.35991167     0.056526322    28.56457       3477.7701    
      2280   4.56           344.86898      135472.18     -807625.73     -298.3308       0.35987916     0.056687709    28.531323      3477.1844    
      2290   4.58           355.95552      131514.61     -807630.18     -295.29593      0.35984651     0.056116126    28.533597      3476.5996    
      2300   4.6            353.85908      134244.51     -807627.08     -297.66679      0.35981371     0.056571825    28.472941      3476.0485    
      2310   4.62           356.89456      132298.18     -807628.73     -296.21775      0.35978077     0.056301588    28.474526      3475.4983    
      2320   4.64           355.48959      136988.89     -807624.6      -299.75704      0.35974769     0.056979534    28.467161      3474.9536    
      2330   4.66           344.73249      137847.64     -807620.67     -301.92185      0.35971447     0.057396333    28.469272      3474.4096    
      2340   4.68           360.25297      137640.24     -807622.05     -302.33454      0.35968111     0.057480118    28.464586      3473.8696    
      2350   4.7            353.38378      136851.36     -807623.39     -299.60536      0.3596476      0.056966551    28.480037      3473.3232    
      2360   4.72           363.50644      134665.48     -807625.88     -298.17413      0.35961396     0.056699723    28.485709      3472.7756    
      2370   4.74           351.70135      134461.98     -807624.64     -297.37105      0.35958017     0.056552327    28.540474      3472.202     
      2380   4.76           369.09095      132017.21     -807628.77     -295.33502      0.35954624     0.056170426    28.539558      3471.6307    
      2390   4.78           354.42724      134265.98     -807624.94     -296.74915      0.35951216     0.056444731    28.528293      3471.0668    
      2400   4.8            353.66791      134903.24     -807624.75     -296.64979      0.35947795     0.056431203    28.572635      3470.4827    
      2410   4.82           356.19389      138401.57     -807619.99     -301.52035      0.35944359     0.057363204    28.554942      3469.9092    
      2420   4.84           368.67373      135708.2      -807622.75     -300.34663      0.35940909     0.057145393    28.567049      3469.3317    
      2430   4.86           361.2345       139213.73     -807621.54     -300.25794      0.35937446     0.057134024    28.598362      3468.7406    
      2440   4.88           359.36048      134696.81     -807623.68     -297.88576      0.35933967     0.056688124    28.577273      3468.1617    
      2450   4.9            378.52533      137024.16     -807624.16     -299.91947      0.35930475     0.057080691    28.557338      3467.5945    
      2460   4.92           363.7765       130716.75     -807627.49     -294.68413      0.35926969     0.056089773    28.524324      3467.0452    
      2470   4.94           356.96109      136349.79     -807624.48     -296.6022       0.35923448     0.056460391    28.469598      3466.524     
      2480   4.96           356.10748      132399.75     -807626.57     -294.62193      0.35919913     0.05608895     28.482987      3465.9977    
      2490   4.98           365.19961      138516.95     -807622.24     -300.08658      0.35916364     0.057134933    28.51465       3465.4576    
      2500   5              365.26894      134707.51     -807624.47     -298.13912      0.35912801     0.05676978     28.530195      3464.9115    
[...]
     98740   197.48         351.12184      133211.91     -807628.55     -9595.405       0.36236891     0.05658612     28.8619        45.109142    
     98750   197.5          343.8665       136512.15     -807624.41     -9687.9205      0.36238762     0.057128755    28.881467      44.750984    
     98760   197.52         347.30579      134859.59     -807625.51     -9666.338       0.36240618     0.056998566    28.919308      44.392822    
     98770   197.54         338.37646      136482.98     -807623.59     -9677.1653      0.36242459     0.05705951     28.944926      44.03466     
     98780   197.56         351.1191       134374.38     -807626.9      -9619.4756      0.36244287     0.056716495    28.971703      43.676496    
     98790   197.58         353.25891      134567.68     -807626.26     -9637.2105      0.362461       0.056818217    28.941562      43.318339    
     98800   197.6          350.04216      136423.64     -807623.39     -9705.429       0.36247899     0.057217574    28.914268      42.960189    
     98810   197.62         355.50972      135746.72     -807625.39     -9655.1466      0.36249683     0.056918337    28.894062      42.602044    
     98820   197.64         359.10387      135766.87     -807625.41     -9656.2011      0.36251453     0.056921773    28.941374      42.243894    
     98830   197.66         350.12966      135348.62     -807624.85     -9627.8074      0.36253209     0.056751648    28.956094      41.885745    
     98840   197.68         356.18547      137980.51     -807622.81     -9709.3897      0.36254951     0.05722979     28.93141       41.527603    
     98850   197.7          342.452        135389.22     -807622.26     -9660.9813      0.36256678     0.056941745    28.947231      41.16946     
     98860   197.72         367.03605      136886.26     -807625.72     -9649.2382      0.36258391     0.056869844    28.94997       40.81132     
     98870   197.74         345.99716      134784        -807623.8      -9615.1687      0.3626009      0.056666393    28.953653      40.453182    
     98880   197.76         351.37885      137881.96     -807620.88     -9726.5144      0.36261774     0.057319939    28.984095      40.095042    
     98890   197.78         365.86753      134121.28     -807626.06     -9624.0181      0.36263445     0.0567133      28.982957      39.736905    
     98900   197.8          352.02421      137837.07     -807622.9      -9658.172       0.362651       0.056911966    28.969804      39.378772    
     98910   197.82         361.03341      135290.55     -807625.73     -9612.1503      0.36266742     0.056638214    28.951317      39.020645    
     98920   197.84         361.56858      137643.77     -807621.22     -9754.4806      0.36268369     0.057474296    28.936514      38.662522    
     98930   197.86         349.17857      135028.57     -807622.89     -9647.0515      0.36269982     0.056838786    28.937631      38.304401    
     98940   197.88         362.84644      136850.2      -807624.44     -9657.7941      0.36271581     0.056899572    28.957605      37.946281    
     98950   197.9          358.18362      135526.14     -807623.87     -9661.6292      0.36273165     0.056919681    28.972318      37.588161    
     98960   197.92         343.68126      138217.77     -807620.09     -9719.2446      0.36274735     0.057256633    28.938941      37.230048    
     98970   197.94         362.72127      135571.65     -807624.9      -9655.1989      0.36276291     0.056876897    28.897595      36.871942    
     98980   197.96         351.84255      135829.63     -807624.43     -9624.5403      0.36277832     0.056693884    28.910053      36.513838    
     98990   197.98         353.18487      135952.63     -807623.56     -9664.2501      0.36279359     0.0569254      28.903248      36.155737    
     99000   198            355.86661      135943.96     -807623.47     -9687.4021      0.36280872     0.057059394    28.885778      35.79764     
     99010   198.02         359.83117      136862.73     -807624.56     -302.34619      0.3628237      0.056984451    28.96266       35.439537    
     99020   198.04         355.92197      134548.15     -807625.79     -300.8878       0.36283855     0.056707263    28.9615        35.081436    
     99030   198.06         351.28063      136461.11     -807622.89     -303.40061      0.36285324     0.057178526    29.000697      34.723333    
     99040   198.08         350.25068      135688.36     -807623.45     -303.06914      0.3628678      0.057113767    28.973192      34.365236    
     99050   198.1          356.20947      136177.61     -807625        -302.54325      0.36288221     0.057012398    28.953073      34.007144    
     99060   198.12         349.37684      134494.01     -807625.69     -301.20437      0.36289648     0.056757862    28.939327      33.649057    
     99070   198.14         340.44924      136337.89     -807622.62     -303.27632      0.36291061     0.057146068    28.948355      33.29097     
     99080   198.16         363.36928      133722.48     -807626.66     -302.71995      0.36292459     0.057039034    28.976628      32.932884    
     99090   198.18         343.3946       135062.89     -807624.54     -302.24975      0.36293843     0.056948268    28.997872      32.574797    
     99100   198.2          346.36963      134919.71     -807625.68     -301.80378      0.36295213     0.056862094    29.00914       32.216712    
     99110   198.22         344.19388      136488.91     -807623.49     -303.81853      0.36296568     0.05723955     29.030403      31.858627    
     99120   198.24         346.81745      136234.19     -807624.31     -303.49857      0.36297909     0.057177158    29.059868      31.500542    
     99130   198.26         347.02114      136433.4      -807625.44     -302.46867      0.36299236     0.056981047    29.018477      31.142464    
     99140   198.28         343.94164      135178.85     -807626.27     -301.35051      0.36300548     0.05676835     28.956821      30.784395    
     99150   198.3          343.72572      135011.37     -807624.6      -303.06783      0.36301846     0.057089816    29.010275      30.426324    
     99160   198.32         342.66165      135589.84     -807624.41     -303.16562      0.3630313      0.057106218    28.993004      30.068257    
     99170   198.34         348.93038      135831.86     -807626.81     -301.69378      0.36304399     0.056826986    29.001114      29.710191    
     99180   198.36         334.2455       135692.51     -807624.47     -301.96976      0.36305655     0.056877003    28.98572       29.35213     
     99190   198.38         358.28546      134893.57     -807626.38     -303.43079      0.36306895     0.05715024     28.975473      28.994072    
     99200   198.4          344.28803      135423.07     -807624.28     -303.66865      0.36308122     0.057193107    29.063832      28.636009    
     99210   198.42         342.92431      136539.2      -807625        -302.70829      0.36309334     0.057010329    29.003341      28.277954    
     99220   198.44         341.45928      135234.67     -807625.76     -301.77591      0.36310532     0.056832855    28.919115      27.91991     
     99230   198.46         341.25609      135573.83     -807624.25     -303.21797      0.36311715     0.057102573    28.923479      27.561867    
     99240   198.48         342.50243      135674.68     -807624.37     -303.27113      0.36312885     0.057110746    28.995641      27.203821    
     99250   198.5          342.55058      134776.63     -807625.93     -301.62185      0.3631404      0.056798354    29.019076      26.845775    
     99260   198.52         354.03614      134637.53     -807627.62     -301.48748      0.3631518      0.056771268    29.015936      26.487732    
     99270   198.54         345.69177      135472.77     -807624.09     -303.81957      0.36316306     0.057208635    28.961776      26.129697    
     99280   198.56         348.56336      135248.8      -807625.39     -302.87249      0.36317418     0.057028556    29.017318      25.771659    
     99290   198.58         348.20938      135221.15     -807626.47     -301.62228      0.36318516     0.056791435    28.999558      25.413626    
     99300   198.6          340.6399       135438.84     -807624.93     -302.06088      0.36319599     0.056872322    28.964031      25.055598    
     99310   198.62         351.95853      136132.8      -807624.42     -304.10138      0.36320668     0.057254824    28.909574      24.697577    
     99320   198.64         350.60718      136149.49     -807623.95     -304.31832      0.36321723     0.057294004    28.90522       24.339559    
     99330   198.66         349.29081      135530.47     -807625.98     -302.02227      0.36322763     0.056860097    28.945394      23.981541    
     99340   198.68         355.91903      135641.74     -807626.74     -302.03637      0.36323789     0.056861146    29.041525      23.623517    
     99350   198.7          339.48327      135308.04     -807623.69     -302.80747      0.36324801     0.057004726    29.086528      23.265492    
     99360   198.72         345.93509      135335.58     -807624.34     -302.92668      0.36325798     0.057025601    29.067343      22.907472    
     99370   198.74         348.25783      134707.44     -807626.06     -301.41839      0.36326781     0.056740132    16.26592       22.551171    
     99380   198.76         354.4239       135508.98     -807624.93     -303.34824      0.3632775      0.057101891    28.978927      22.193136    
     99390   198.78         354.93679      135848.42     -807625        -303.29519      0.36328704     0.057090406    28.953489      21.835105    
     99400   198.8          345.09636      136274.27     -807623.06     -303.71823      0.36329644     0.057168557    28.965068      21.477076    
     99410   198.82         353.31739      135195.23     -807625.08     -302.79842      0.3633057      0.056993971    29.019218      21.119045    
     99420   198.84         341.75312      137297.84     -807622.13     -304.01425      0.36331481     0.057221384    25.24785       20.761318    
     99430   198.86         350.93528      135119.7      -807624.21     -303.20245      0.36332378     0.057067178    28.900704      20.403295    
     99440   198.88         351.58951      136568.49     -807623.94     -303.31915      0.36333261     0.057087756    29.008764      20.045268    
     99450   198.9          354.75532      133807.43     -807626.37     -301.25675      0.36334129     0.056698236    28.938368      19.687249    
     99460   198.92         350.49193      135972.28     -807624.44     -302.39463      0.36334983     0.056911053    28.950585      19.329231    
     99470   198.94         360.5505       135017.29     -807625.3      -302.84783      0.36335823     0.056995029    28.909732      18.971218    
     99480   198.96         350.47606      136477.25     -807623.42     -303.12999      0.36336648     0.057046835    28.89198       18.613208    
     99490   198.98         355.34883      136044.21     -807624.34     -302.71712      0.3633746      0.056967864    28.928878      18.255199    
     99500   199            347.55307      137150.54     -807621.87     -303.85476      0.36338256     0.057180701    28.991537      17.897189    
     99510   199.02         362.50206      135783.97     -807624.44     -9700.2165      0.36339039     0.057043417    28.899083      17.539186    
     99520   199.04         359.90283      135909.37     -807623.96     -9693.7041      0.36339807     0.057003915    28.929954      17.181184    
     99530   199.06         377.32899      134629.49     -807627.46     -9649.7943      0.3634056      0.056744526    28.892814      16.823187    
     99540   199.08         361.30755      135246.94     -807624.39     -9666.1506      0.363413       0.056839551    28.876591      16.465193    
     99550   199.1          351.24507      135379.53     -807622.35     -9679.8728      0.36342025     0.056919106    28.916814      16.107199    
     99560   199.12         367.34295      136506.09     -807623.73     -9695.9923      0.36342736     0.057012776    26.184467      15.749368    
     99570   199.14         357.33906      136216.86     -807621.37     -9717.4988      0.36343432     0.05713814     28.905063      15.391376    
     99580   199.16         374.42138      135869.79     -807623.8      -9706.4298      0.36344114     0.057071984    28.97087       15.033383    
     99590   199.18         359.81311      137102.86     -807620.69     -9732.7245      0.36344782     0.05722554     29.010157      14.675391    
     99600   199.2          369.93034      135919.38     -807623        -9699.0974      0.36345435     0.057026797    29.002512      14.317402    
     99610   199.22         364.37694      136862.88     -807623.42     -9655.0461      0.36346074     0.056766795    28.937204      13.959418    
     99620   199.24         364.43208      136460.68     -807623.13     -9662.3435      0.36346699     0.056808724    28.897835      13.601439    
     99630   199.26         351.7123       137123.82     -807620.53     -9686.3477      0.3634731      0.056948898    28.918467      13.243461    
     99640   199.28         374.15961      135884.84     -807623.96     -9676.1141      0.36347906     0.056887799    28.907304      12.885487    
     99650   199.3          365.86083      136587.13     -807622.8      -9678.5771      0.36348487     0.056901368    28.925314      12.527514    
     99660   199.32         375.23504      136313.99     -807623.02     -9717.0618      0.36349055     0.057126732    24.776223      12.16974     
     99670   199.34         374.04487      136341.09     -807622.28     -9741.5948      0.36349608     0.05727009     28.959023      11.811765    
     99680   199.36         372.41977      136857.75     -807622.92     -9720.6711      0.36350147     0.057146235    28.937824      11.453793    
     99690   199.38         369.1545       136050.05     -807623.67     -9693.782       0.36350671     0.056987336    25.542631      11.095967    
     99700   199.4          358.32228      136650.36     -807622.06     -9707.9947      0.36351181     0.057070088    28.952376      10.737994    
     99710   199.42         346.53718      134661.95     -807622.35     -9659.8747      0.36351677     0.056786432    28.934882      10.380025    
     99720   199.44         364.14723      135354.3      -807625.27     -9656.3766      0.36352158     0.056765117    17.288306      10.022713    
     99730   199.46         354.86515      135030.43     -807624.34     -9659.4473      0.36352625     0.056782439    28.916866      9.6647257    
     99740   199.48         348.70721      137606.24     -807621.57     -9730.9928      0.36353078     0.057202302    28.92619       9.306741     
     99750   199.5          355.8471       136968.85     -807622.81     -9734.4434      0.36353516     0.057221895    29.009499      8.9487562    
     99760   199.52         353.1244       138009.83     -807621.75     -9763.1352      0.3635394      0.057389885    29.004151      8.5907743    
     99770   199.54         356.80557      136150.83     -807624.24     -9710.62        0.3635435      0.057080546    28.986248      8.2327955    
     99780   199.56         353.04149      136739.96     -807622.77     -9745.0717      0.36354745     0.057282435    28.922848      7.874821     
     99790   199.58         352.93178      134706.75     -807625.51     -9664.122       0.36355126     0.05680601     28.920774      7.5168489    
     99800   199.6          355.19661      134626.58     -807626.15     -9657.9071      0.36355493     0.056768906    28.938608      7.1588789    
     99810   199.62         349.44991      133831.82     -807626.12     -9638.5004      0.36355845     0.056654285    28.95346       6.8009111    
     99820   199.64         353.10375      135985.55     -807624.68     -9704.8802      0.36356183     0.05704393     28.933117      6.4429462    
     99830   199.66         349.95856      136073.61     -807623.95     -9718.8191      0.36356507     0.057125352    28.940819      6.0849836    
     99840   199.68         356.10727      136725.48     -807624.32     -9735.7259      0.36356816     0.05722424     28.656897      5.727029     
     99850   199.7          353.48194      136342        -807624.45     -9725.2324      0.36357111     0.057162097    28.562595      5.3690779    
     99860   199.72         343.84141      136256.15     -807622.5      -9747.7888      0.36357392     0.057294235    28.43512       5.0111306    
     99870   199.74         355.33644      135426.73     -807624.88     -9726.6834      0.36357658     0.057169766    28.472281      4.6531839    
     99880   199.76         342.2702       135525.53     -807624.81     -9673.7195      0.3635791      0.05685807     28.538343      4.2952377    
     99890   199.78         348.25409      134880.32     -807626        -9664.459       0.36358148     0.05680327     28.499461      3.9372934    
     99900   199.8          347.84584      134818.74     -807624.84     -9703.8571      0.36358371     0.057034483    28.542439      3.5793501    
     99910   199.82         339.53428      136237.89     -807623.48     -9713.8998      0.3635858      0.057093181    28.594407      3.2214077    
     99920   199.84         353.35502      135464.93     -807625.85     -9701.0515      0.36358775     0.05701736     28.526477      2.8634676    
     99930   199.86         345.47369      135934.83     -807624.04     -9724.7835      0.36358955     0.057156561    28.492105      2.5055293    
     99940   199.88         358.42144      135141.68     -807625.3      -9746.4086      0.36359121     0.057283399    28.355444      2.1475933    
     99950   199.9          342.81277      136284.5      -807622.76     -9759.4735      0.36359273     0.057359947    28.522613      1.7896574    
     99960   199.92         348.5529       133897.52     -807626.39     -9672.3884      0.3635941      0.056847902    28.512611      1.4317231    
     99970   199.94         348.669        134624.28     -807626.41     -9670.3852      0.36359533     0.056835936    28.489339      1.0737902    
     99980   199.96         341.70186      134194.74     -807625.15     -9684.3024      0.36359641     0.056917562    28.456844      0.71585885   
     99990   199.98         347.10092      135725.16     -807624.77     -9721.4098      0.36359736     0.057135506    28.513843      0.3579287    
    100000   200            337.04365      135756.49     -807625.17     -9664.8859      0.36359816     0.056803173    28.092529      0            
Loop time of 3579.29 on 32 procs for 100000 steps with 1080 atoms

Performance: 4.828 ns/day, 4.971 hours/ns, 27.939 timesteps/s, 30.174 katom-step/s
63.8% CPU use with 32 MPI tasks x 1 OpenMP threads

MPI task timing breakdown:
Section |  min time  |  avg time  |  max time  |%varavg| %total
---------------------------------------------------------------
Pair    | 2417.2     | 2800.4     | 3198.9     | 289.5 | 78.24
Neigh   | 0.00167    | 0.0029935  | 0.0058915  |   2.9 |  0.00
Comm    | 305.94     | 704.55     | 1087.6     | 577.2 | 19.68
Output  | 2.3985     | 2.4046     | 2.4095     |   0.2 |  0.07
Modify  | 65.29      | 65.65      | 66.04      |   2.6 |  1.83
Other   |            | 6.246      |            |       |  0.17

Nlocal:          33.75 ave          42 max          24 min
Histogram: 1 1 1 5 7 5 4 5 2 1
Nghost:        1037.06 ave        1049 max        1025 min
Histogram: 3 1 6 2 1 4 7 6 1 1
Neighs:              0 ave           0 max           0 min
Histogram: 32 0 0 0 0 0 0 0 0 0
FullNghs:      5340.19 ave        6666 max        3788 min
Histogram: 1 1 1 5 8 4 4 5 2 1

Total # of neighbors = 170886
Ave neighs/atom = 158.22778
Neighbor list builds = 4
Dangerous builds = 0

Total wall time: 1:03:15
