
units		metal
atom_style	atomic

read_data ${STRUCTURE}.data
read_data BaTiO3-sc333.data
Reading data file ...
  orthogonal box = (0 0 0) to (11.898253 11.898253 12.912076)
  2 by 4 by 4 MPI processor grid
  reading atoms ...
  135 atoms
  read_data CPU = 0.081 seconds
replicate $L $L $L
replicate 2 $L $L
replicate 2 2 $L
replicate 2 2 2
Replication is creating a 2x2x2 = 8 times larger system...
  orthogonal box = (0 0 0) to (23.796507 23.796507 25.824152)
  2 by 4 by 4 MPI processor grid
  1080 atoms
  replicate CPU = 0.004 seconds

pair_style allegro
pair_coeff	* * ${MODEL}.pth Ba Ti O
pair_coeff	* * BaTiO3-E0.pth Ba Ti O
mass 1 137.3
mass 2 47.9
mass 3 15.9994

timestep 0.002
compute polarization all allegro polarization 3
compute allegro will evaluate the quantity polarization of length 3 (src/compute_allegro.cpp:53)
compute polarizability all allegro polarizability 9
compute allegro will evaluate the quantity polarizability of length 9 (src/compute_allegro.cpp:53)

thermo_style custom pe fmax fnorm spcpu cpuremain

variable efield equal 1e-2*36.36
fix born all addbornforce 0.0 0.0 ${efield}
fix born all addbornforce 0.0 0.0 0.3636

thermo 10
min_style fire
#minimize 0.0 1e-6 100 100
velocity all create ${TEMP} ${SEED} dist gaussian rot yes mom yes
velocity all create 300 ${SEED} dist gaussian rot yes mom yes
velocity all create 300 19229 dist gaussian rot yes mom yes
fix nvt all nvt temp ${TEMP} ${TEMP} $(100*dt)
fix nvt all nvt temp 300 ${TEMP} $(100*dt)
fix nvt all nvt temp 300 300 $(100*dt)
fix nvt all nvt temp 300 300 0.2000000000000000111
run 5000
Neighbor list info ...
  update: every = 1 steps, delay = 0 steps, check = yes
  max neighbors/atom: 2000, page size: 100000
  master list distance cutoff = 8
  ghost atom cutoff = 8
  binsize = 8, bins = 3 3 4
  1 neighbor lists, perpetual/occasional/extra = 1 0 0
  (1) pair allegro/kk, perpetual
      attributes: full, newton on, kokkos_device
      pair build: full/bin/kk/device
      stencil: full/bin/3d
      bin: kk/device
Per MPI rank memory allocation (min/avg/max) = 3.516 | 3.516 | 3.516 Mbytes
    PotEng          Fmax          Fnorm          S/CPU         CPULeft    
-807708.29      1.5951665      37.042461      0              0            
-807646.43      3.4734116      45.675049      2.31332        2157.0739    
-807636.94      2.5458881      35.573848      25.887719      1172.56      
-807607.38      3.37573        38.191391      25.859087      844.20224    
-807603.99      4.2515781      50.80226       25.793242      679.95234    
-807567.02      3.7895362      41.178438      25.783256      581.26219    
-807602.84      2.8825953      39.375153      25.866062      515.23725    
-807646.95      3.7493229      34.531421      25.903723      467.92652    
-807685.22      2.6019246      34.473689      25.862796      432.38454    
-807668.56      3.5970379      34.352661      25.840056      404.67341    
-807655.16      3.4183109      34.300274      25.88757       382.39232    
-807661.81      2.3901205      26.731447      25.864707      364.10727    
-807630.29      2.7210753      30.095911      25.886545      348.79203    
-807585.8       3.2971711      39.288602      25.823023      335.80914    
-807570.19      2.8991318      37.157322      25.875724      324.59825    
-807634.11      3.5843748      33.258327      25.808933      314.86296    
-807656.37      2.9082749      29.808603      25.82435       306.28915    
-807665.18      3.0801739      33.717272      25.852835      298.66634    
-807649.18      4.9240485      44.128436      25.861058      291.84424    
-807682.69      3.1667943      36.213325      25.825939      285.71287    
-807642.32      4.4534245      39.186069      25.790185      280.16879    
-807616.85      3.0868047      38.465059      25.863576      275.0907     
-807562.93      3.8889108      45.099804      25.864824      270.4387     
-807606.34      4.4873981      49.697657      25.841227      266.16492    
-807614.48      4.1452272      39.268757      25.814657      262.22294    
-807642.56      3.3167692      35.653708      25.871348      258.5492     
-807644.5       5.049489       45.199713      25.857813      255.13201    
-807684.28      3.3884955      38.02152       25.824993      251.94792    
-807664.96      3.4919671      34.600317      25.812735      248.96669    
-807638.28      3.5583121      32.086022      25.870595      246.15028    
-807609.23      3.3781609      33.263376      25.860045      243.49833    
-807606.61      3.6706811      42.100811      25.844249      240.9961     
-807598.67      3.1779992      35.22156       25.794013      238.6371     
-807608.91      2.8709398      33.166361      25.836825      236.38848    
-807645.5       3.2472095      29.587897      25.833497      234.25005    
-807676.41      2.7967496      31.796541      25.752126      232.22795    
-807678.43      2.8021442      31.661846      25.737059      230.29954    
-807645.3       4.3332591      37.875812      25.845462      228.43397    
-807651.57      2.7157052      29.839769      25.871348      226.64152    
-807623.39      3.5238108      33.883206      25.875275      224.92048    
-807601.37      3.7343579      42.648021      25.842062      223.27188    
-807571.17      3.939708       41.043123      25.878179      221.67878    
-807627.05      2.8241343      35.263689      25.84976       220.14776    
-807652.4       4.2206266      35.094954      25.853438      218.66939    
-807674.1       2.9104693      34.572751      25.840975      217.24256    
-807642.66      5.3562043      46.797928      25.873199      215.85707    
-807670.04      3.1395528      34.73831       25.86345       214.51645    
-807647.26      4.4768715      35.973335      25.853401      213.21789    
-807624.16      3.4384889      37.072183      25.856552      211.95686    
-807565.26      4.0966924      42.664156      25.861703      210.73081    
-807605.4       3.5034003      43.354672      25.850866      209.53979    
-807625.75      3.5671224      34.654719      25.789623      208.3884     
-807655.16      2.8316134      32.432872      25.849088      207.2587     
-807643.64      4.5337946      41.821783      25.891301      206.1517     
-807676.35      2.7287957      34.302111      25.87521       205.07339    
-807667.58      3.6120036      32.942765      25.805738      204.02865    
-807642.61      3.1040613      30.956405      25.827551      203.00478    
-807601.54      3.0882855      34.805033      25.84209       202.00157    
-807600.77      3.7705099      38.118336      25.8556        201.01807    
-807607.88      3.7346384      38.686766      25.80918       200.05999    
-807619.79      2.9842314      31.864795      25.851468      199.11629    
-807639.81      3.7945495      32.109834      25.872208      198.18861    
-807668.01      2.6576103      32.208717      25.881669      197.27739    
-807677.74      2.9295749      34.65099       25.816672      196.38958    
-807646.33      4.3749178      37.397432      25.855903      195.5134     
-807636.78      3.3378007      32.883799      25.874083      194.65047    
-807616.06      3.8718197      34.710223      25.879667      193.80143    
-807605.92      4.2349053      44.839415      25.777245      192.97611    
-807579.5       3.9264559      40.684334      25.826107      192.159      
-807619.63      3.0387745      36.251189      25.868497      191.35039    
-807648.11      3.2895447      36.896949      25.903044      190.55067    
-807676.24      3.2260417      35.733809      25.902716      189.76263    
-807647.99      4.5159275      43.044278      25.84878       188.99054    
-807655.29      3.1595771      35.049694      25.858434      188.22816    
-807644.93      3.82832        34.036951      25.850292      187.47664    
-807625.68      3.0752492      37.277474      25.846704      186.73515    
-807574.51      3.560232       40.072186      25.851179      186.00261    
-807595.47      3.6137792      39.171911      25.857369      185.27855    
-807629.27      3.8851354      33.566984      25.826121      184.56567    
-807660.73      3.3121353      31.380335      25.872461      183.85733    
-807650.12      4.3588473      36.968333      25.864656      183.15765    
-807661.96      3.4556402      34.666828      25.761346      182.47373    
-807667.19      3.0405645      31.676066      25.81468       181.79293    
-807644.76      2.7457626      30.866122      25.767406      181.12277    
-807602.33      2.9636464      35.177544      25.844273      180.45361    
-807588.78      3.7628321      38.343157      25.861544      179.78982    
-807609.69      4.0279581      39.729272      25.79373       179.13738    
-807629.92      3.4826596      32.792402      25.799163      178.49064    
-807639.42      4.3442217      33.905157      25.89427       177.84312    
-807655.96      3.5072992      36.336744      25.904679      177.20075    
-807674.05      3.2379784      35.588669      25.837385      176.56866    
-807652.24      4.173134       36.044367      25.82947       175.9425     
-807630.19      2.9085899      33.697216      25.871124      175.31876    
-807607.87      3.411653       35.222937      25.864418      174.70056    
-807608.56      4.1227071      42.905934      25.845812      174.08849    
-807596.94      3.2850502      36.605114      25.830095      173.48217    
-807619.18      3.4009436      34.28231       25.895473      172.8763     
-807643.38      4.4182907      35.250274      25.886348      172.27552    
-807671.92      2.7071409      35.035363      25.815285      171.68348    
-807658.15      3.3750875      36.941676      25.82749       171.09484    
-807646.38      3.1664821      34.207139      25.863768      170.50805    
-807637.09      3.9438818      33.829384      25.843806      169.92641    
-807625.59      4.1254215      36.972146      25.869717      169.34707    
-807591.51      3.9474047      38.173847      25.799437      168.77553    
-807592         2.9351379      38.394213      25.871474      168.20342    
-807627.5       4.3059963      32.592708      25.825492      167.63744    
-807661.34      2.8483885      31.524231      25.850166      167.07345    
-807658.04      3.2683227      34.221135      25.793172      166.51592    
-807652.7       4.7977637      35.379779      25.864132      165.95767    
-807659.47      2.645689       31.651446      25.781         165.40704    
-807644.12      2.9836911      31.057435      25.837175      164.85638    
-807610.22      3.0938541      34.376489      25.818451      164.30965    
-807583.5       2.9142702      37.760609      25.851491      163.76405    
-807611.3       3.261338       36.958072      25.791254      163.22436    
-807635.9       3.1869365      32.518883      25.71629       162.69116    
-807648.98      3.310584       32.994501      25.827821      162.15485    
-807648.26      4.0239883      38.036248      25.794134      161.62278    
-807667.44      2.8913345      34.57035       25.826447      161.0916     
-807653.62      3.4740021      35.0326        25.765338      160.56582    
-807630.48      2.9220957      33.371257      25.817478      160.03986    
-807598.76      3.7043018      36.820016      25.825264      159.51583    
-807605.59      4.1577783      40.078246      25.825035      158.99407    
-807609.51      3.885517       36.233073      25.837529      158.47394    
-807628.2       3.066645       32.997966      25.852108      157.95531    
-807640.52      3.664866       35.055664      25.882937      157.4374     
-807667.32      3.1778194      33.330095      25.828799      156.92403    
-807660.51      3.1972851      34.457165      25.770661      156.41525    
-807645.71      3.5123237      33.500098      25.824681      155.90599    
-807624.12      4.2147147      33.908174      25.876117      155.39641    
-807618.95      3.7624457      36.036705      25.843727      154.89012    
-807601.28      3.6833291      38.080911      25.806259      154.38727    
-807601.95      3.687606       36.871404      25.829466      153.88519    
-807627.42      3.4154219      33.03819       25.830505      153.38482    
-807656.89      3.8324013      33.349341      25.844492      152.88557    
-807662.78      2.6793597      34.093365      25.780466      152.39063    
-807649.78      4.6906395      36.443194      25.790245      151.89687    
-807646.21      3.2154945      33.505048      25.835403      151.40285    
-807637.74      3.8943853      32.420828      25.823079      150.91089    
-807612.28      3.8396886      36.873335      25.790678      150.42172    
-807587.1       4.6002748      38.184301      25.829279      149.9325     
-807610.44      3.8383458      36.039332      25.835529      149.4445     
-807639.44      3.9659754      32.414209      25.824155      148.95837    
-807655.61      4.0252219      32.848513      25.848855      148.4727     
-807648.81      3.7989271      36.415929      25.823489      147.98936    
-807657.19      2.9320643      33.684615      25.821403      147.50743    
-807651.3       2.7034871      32.839878      25.777185      147.02843    
-807633.72      3.0947846      32.82293       25.846675      146.54815    
-807594.32      3.5855965      37.885385      25.824923      146.06992    
-807600.48      3.5944479      38.430444      25.792257      145.59409    
-807618.16      3.3352488      35.622883      25.771543      145.12018    
-807638.95      3.1898529      32.224675      25.819419      144.64573    
-807640.34      4.1914034      35.515424      25.812693      144.17268    
-807660.81      2.8406052      32.81218       25.876019      143.69857    
-807659.92      2.8705579      33.860821      25.838317      143.22689    
-807646.95      2.9335304      31.53866       25.811967      142.7572     
-807617.46      3.0662155      33.538212      25.851459      142.28726    
-807608.24      3.1185312      35.024772      25.818069      141.81948    
-807607.7       3.0891126      36.941605      25.81153       141.35294    
-807613.7       3.6019687      34.303773      25.809603      140.88746    
-807627.78      3.4002934      32.822633      25.831908      140.42225    
-807653.52      4.6088951      33.201932      25.805175      139.95887    
-807663.91      2.8491856      34.004129      25.76085       139.49783    
-807651.73      3.6081013      34.358038      25.801078      139.03643    
-807637.54      2.6864059      33.296575      25.794236      138.57615    
-807627.5       3.2169905      33.115212      25.850227      138.11504    
-807611.88      3.5207959      37.735717      25.859844      137.65453    
-807595.99      3.721754       37.015122      25.809473      137.19643    
-807610.04      3.434499       35.164595      25.788703      136.7398     
-807639.26      4.0272566      32.845073      25.772382      136.28447    
-807659.5       3.3734642      33.164369      25.773064      135.82992    
-807651.07      4.1227473      35.577515      25.846951      135.374      
-807650.07      3.1545975      33.892386      25.865417      134.91835    
-807645.83      3.4660096      32.505122      25.826885      134.46461    
-807631.79      3.1414978      32.929126      25.814806      134.01198    
-807599.52      4.3517888      35.752362      25.842071      133.55933    
-807597.91      3.1395237      36.689195      25.840061      133.10749    
-807621.69      3.9762823      34.371947      25.793405      132.65768    
-807644.53      3.012262       32.33862       25.794348      132.20854    
-807647.85      3.1912479      33.990548      25.801683      131.7599     
-807652.18      3.1460147      35.160269      25.827691      131.31123    
-807657.01      3.4275537      33.77029       25.844669      130.8628     
-807645.42      3.2922978      32.824551      25.833907      130.41533    
-807617         3.0627642      34.086836      25.866515      129.96767    
-807599.4       3.553645       37.296708      25.857248      129.52092    
-807608.91      3.5940795      37.796711      25.798833      129.07632    
-807624.11      4.2024377      34.119416      25.831143      128.63152    
-807634.01      3.2194135      33.22939       25.865857      128.18646    
-807649.9       4.1091773      33.953544      25.869254      127.74194    
-807661.66      3.0183393      33.789343      25.842664      127.29869    
-807654.33      2.8524636      33.558769      25.777101      126.85766    
-807633.97      3.1922703      32.952063      25.838368      126.41569    
-807617.73      3.2089395      33.856399      25.873747      125.97344    
-807611.83      3.5729751      37.254433      25.810073      125.5333     
-807607.97      3.6971682      36.761262      25.819642      125.09347    
-807616.78      3.4639996      34.615191      25.838205      124.65375    
-807640.26      3.1479764      32.807541      25.854764      124.21418    
-807657.32      2.950702       34.083516      25.805882      123.77629    
-807655.66      3.440698       34.035655      25.81515       123.33869    
-807645.59      3.6670139      33.958174      25.8875        122.89995    
-807635.91      3.3292271      32.923066      25.835236      122.46292    
-807626.64      3.2987595      33.704547      25.810976      122.02693    
-807606.89      3.5498455      36.281528      25.803859      121.59159    
-807603.49      3.2849296      35.456802      25.856757      121.15555    
-807623.84      3.3067831      33.081595      25.830808      120.72056    
-807648.42      2.855349       31.639588      25.774382      120.28728    
-807652.1       3.5109057      32.969049      25.792341      119.85404    
-807647.25      3.3929251      35.037082      25.815509      119.42075    
-807648.83      3.4906895      33.363746      25.814606      118.98793    
-807641.15      2.9073875      32.827642      25.846699      118.55487    
-807618.66      3.2527526      34.363175      25.857869      118.12201    
-807598.37      3.89976        37.285995      25.860961      117.68953    
-807611.38      3.5217382      35.625763      25.847445      117.25776    
-807630.38      3.8056763      34.265178      25.867997      116.826      
-807642.66      3.0789177      32.922336      25.851146      116.395      
-807644.21      3.7599563      34.95622       25.862983      115.96418    
-807655.15      3.12646        33.705877      25.823307      115.53456    
-807651.69      3.560741       33.301421      25.796722      115.10585    
-807633.17      2.8834487      32.508626      25.852438      114.67643    
-807607.35      3.2798279      35.494893      25.859475      114.24727    
-807608.2       3.4597533      36.797747      25.794603      113.81974    
-807613.51      4.0218228      36.069178      25.726089      113.39389    
-807626.47      2.93297        33.461152      25.791388      112.96713    
-807636.51      3.8566996      34.834916      25.850571      112.53961    
-807656.68      3.0534415      32.921307      25.814554      112.11313    
-807654.92      3.4081546      34.993271      25.791866      111.68742    
-807645.39      3.7610916      33.150176      25.817188      111.26158    
-807625.4       3.1301679      33.882115      25.890018      110.83476    
-807618.18      3.2259471      35.212345      25.863076      110.40878    
-807607.19      3.4565442      37.192483      25.814545      109.98401    
-807609.7       2.6928182      35.046763      25.857406      109.55881    
-807623.78      3.8425854      33.001324      25.867197      109.13377    
-807648.76      3.2219384      32.484553      25.855048      108.70928    
-807655.43      3.1723279      33.315524      25.849209      108.28521    
-807649.47      3.8905489      33.84212       25.852387      107.86141    
-807641.36      3.2931239      32.880593      25.853265      107.43791    
-807635.57      2.7502414      32.238232      25.894269      107.01403    
-807616.81      2.9653092      34.932695      25.840891      106.59136    
-807602.48      3.4135941      36.384517      25.834349      106.1691     
-807610.38      3.1484283      35.67829       25.858162      105.74675    
-807635.26      3.6412996      32.914131      25.891272      105.32415    
-807647.24      2.7617922      33.754164      25.772558      104.90378    
-807648.68      3.6291008      34.585479      25.798382      104.48327    
-807649.71      3.2075145      33.422759      25.827709      104.06256    
-807646.95      3.0719365      32.973101      25.788902      103.64274    
-807633.43      3.0428617      32.41908       25.838937      103.22239    
-807609.23      3.2037683      34.740237      25.863529      102.80193    
-807604.91      3.2102296      35.906441      25.803719      102.38268    
-807620.3       4.2860773      35.062909      25.781385      101.96402    
-807635.46      3.6049721      33.001993      25.846372      101.54462    
-807642.08      4.3686147      34.200155      25.832317      101.1257     
-807650.28      3.5578837      34.50646       25.841865      100.70689    
-807654.49      3.6831373      34.071553      25.848205      100.28823    
-807645.76      2.8120708      32.869495      25.866272      99.869564    
-807624.22      4.0584601      33.375326      25.865772      99.451158    
-807611.17      2.8179048      34.971024      25.850221      99.033226    
-807612.71      3.5662214      36.043333      25.797331      98.6163      
-807619.13      3.2755344      34.39766       25.852882      98.19881     
-807628.56      3.2667793      33.701089      25.848005      97.781628    
-807644.45      3.822391       33.144012      25.856724      97.364558    
-807655.58      2.9919393      33.71871       25.830066      96.948093    
-807651.11      4.1229908      33.388455      25.825677      96.531915    
-807637.39      3.2269951      32.771951      25.849904      96.115626    
-807626.29      2.7900324      33.535485      25.862997      95.699384    
-807617.04      3.1482615      34.789628      25.793534      95.284306    
-807609.24      2.8290399      36.159096      25.726136      94.870343    
-807615.5       2.9982091      35.170371      25.822534      94.455284    
-807634.33      3.3250131      33.317364      25.858335      94.039962    
-807650.68      2.6371261      33.858958      25.842089      93.625066    
-807651.31      3.1789209      34.735071      25.82068       93.210657    
-807643.82      4.0405728      35.153436      25.760762      92.797223    
-807639.62      3.4143291      33.593313      25.831213      92.383074    
-807627.98      2.8284742      34.36938       25.803175      91.96948     
-807610.63      3.9104646      35.559163      25.788693      91.55626     
-807606.05      3.3862551      36.35641       25.827261      91.142744    
-807621.13      4.1578506      34.451274      25.870908      90.728883    
-807641.39      3.3955981      32.877134      25.863015      90.315316    
-807644.13      3.5623153      35.141823      25.809124      89.9026      
-807646.77      3.1030895      35.253839      25.841436      89.489676    
-807646.17      3.7992306      34.794037      25.843381      89.076916    
-807639.97      3.116592       33.406814      25.832872      88.664465    
-807620.31      2.9175331      34.30178       25.831977      88.252205    
-807607.75      3.2123342      36.501836      25.834522      87.840095    
-807613.26      2.917581       35.82134       25.815475      87.428384    
-807627.52      2.9578923      33.285815      25.831012      87.016665    
-807635.22      3.0015023      33.644454      25.81373       86.605317    
-807644.53      3.8188166      34.014558      25.817808      86.194092    
-807650.66      3.1084429      34.271112      25.781139      85.783445    
-807649.15      2.7443561      33.293912      25.789111      85.372868    
-807632.51      2.8740743      33.304465      25.795398      84.96238     
-807616.41      2.9548265      34.514185      25.788587      84.552124    
-807613.64      3.3730222      35.323464      25.758876      84.142348    
-807614.76      3.4081579      35.703914      25.765342      83.732649    
-807622.81      2.7765014      34.433753      25.78508       83.322887    
-807636.43      3.8084223      34.488579      25.848457      82.912603    
-807650.26      2.8864133      33.601565      25.853456      82.502426    
-807651.26      3.3073362      34.066505      25.811241      82.092847    
-807640.87      2.8555825      34.538624      25.852303      81.682993    
-807631.58      3.733157       33.853702      25.872787      81.273085    
-807622.46      3.2298433      34.499522      25.88668       80.863194    
-807611.99      3.2058368      35.81233       25.84416       80.453888    
-807612.19      3.0956875      35.412293      25.879629      80.044377    
-807626.61      3.3804381      33.760625      25.855179      79.635262    
-807644.66      3.0887383      33.236404      25.873255      79.226117    
-807648.78      3.4919698      33.799348      25.848028      78.817367    
-807647.04      4.0204121      34.113216      25.8501        78.408741    
-807641.97      4.1299793      33.556355      25.887106      77.999904    
-807635.06      2.8441808      33.169749      25.853433      77.591533    
-807619.28      2.8160968      34.4852        25.826577      77.183557    
-807611.27      3.1605156      34.755662      25.81105       76.77586     
-807617.35      2.6584943      33.674863      25.809198      76.368311    
-807633.97      3.2069356      32.883683      25.879844      75.960244    
-807644.35      2.687619       32.955054      25.884551      75.552273    
-807647.29      3.2922946      34.076853      25.863483      75.144631    
-807647.91      3.1244663      33.252171      25.850436      74.73724     
-807642.15      3.1608454      33.600969      25.838843      74.330082    
-807632.95      3.7291295      32.444803      25.842588      73.923019    
-807614.67      3.4834041      34.70814       25.879966      73.515758    
-807612.31      3.5973623      34.468223      25.854053      73.108852    
-807621.64      2.8748744      34.027913      25.840886      72.702186    
-807634.62      3.2940089      33.243978      25.91581       72.295008    
-807640.45      2.9075408      33.498802      25.916138      71.887961    
-807649.16      3.238856       33.475567      25.895763      71.481214    
-807647.9       3.300537       33.663527      25.866851      71.074835    
-807642.06      3.2890887      33.07492       25.879068      70.668477    
-807624.09      3.5136905      33.720793      25.895786      70.262108    
-807616.04      2.9882234      34.534785      25.859895      69.856151    
-807615.65      3.0223224      34.600825      25.812302      69.450693    
-807620.89      4.0564704      34.315756      25.855351      69.045004    
-807631.39      3.2194448      32.499753      25.870586      68.639312    
-807644.3       3.0335949      32.327474      25.878609      68.233673    
-807649.98      3.605638       33.195312      25.874662      67.828181    
-807646.56      2.3960968      32.292654      25.862973      67.422893    
-807635.12      3.1208595      32.839673      25.904383      67.017405    
-807627.93      2.7714054      32.276523      25.884027      66.612186    
-807616.61      2.8839222      34.172514      25.823269      66.207531    
-807612.02      2.9775433      35.448241      25.832816      65.80291     
-807617.96      2.9992246      34.197952      25.803398      65.398609    
-807634.99      2.2972289      32.275925      25.830984      64.994207    
-807645.66      3.565899       33.352564      25.857107      64.589719    
-807647.8       2.8687911      33.452324      25.868894      64.185253    
-807644.17      2.6315286      33.08538       25.847179      63.781045    
-807637.33      2.9776873      32.498781      25.851976      63.376905    
-807627.16      2.8921474      33.024936      25.837878      62.972964    
-807613.91      3.6966734      34.610814      25.881467      62.568823    
-807608.9       3.392569       35.497843      25.810971      62.165264    
-807621.41      2.9171961      34.556021      25.878315      61.761345    
-807638.19      3.8883243      33.135526      25.913108      61.357296    
-807644.01      3.7156135      34.045638      25.847235      60.953786    
-807647.04      3.7819328      33.71036       25.905405      60.549992    
-807643.52      3.6186894      34.345243      25.879283      60.146468    
-807638.33      2.570819       32.855278      25.831371      59.74335     
-807623.53      3.9419506      33.673298      25.86515       59.340107    
-807612.63      3.0922232      34.490184      25.826572      58.937202    
-807615         3.5914275      34.170403      25.820429      58.534425    
-807625.41      3.410195       33.675783      25.792986      58.131905    
-807636.06      3.9996208      31.924165      25.811217      57.729356    
-807643.04      3.1435447      33.386923      25.857177      57.326614    
-807647.4       3.5315319      33.289358      25.880134      56.923824    
-807645.24      5.0879094      33.480931      25.878212      56.521137    
-807632.19      3.3559096      33.924879      25.909446      56.118358    
-807622.48      3.3515958      33.804714      25.867548      55.715915    
-807616.01      3.3898269      34.391699      25.887345      55.313446    
-807618.9       3.1427886      34.030288      25.850049      54.911279    
-807625.69      3.0457088      33.276859      25.844743      54.509226    
-807637.52      3.2313411      32.719048      25.855067      54.107199    
-807645.14      3.0923646      33.125072      25.880195      53.705117    
-807647.6       3.250473       33.258872      25.852233      53.303273    
-807641.98      3.8487274      32.629514      25.835235      52.901604    
-807632.28      3.3867516      33.012954      25.824802      52.50007     
-807623.49      2.5287093      32.839686      25.836083      52.098553    
-807616.27      2.7927457      34.415318      25.799125      51.697309    
-807617.12      3.2990782      34.42019       25.809277      51.296087    
-807628.52      2.8252424      32.904602      25.828897      50.894836    
-807640.58      3.4130544      32.469147      25.855454      50.493526    
-807646.76      2.898358       32.868933      25.926049      50.091938    
-807645.8       3.751647       32.849117      25.85827       49.690773    
-807641.74      3.4425066      32.232877      25.878857      49.289583    
-807634.14      3.3886944      32.09164       25.859096      48.88857     
-807621.91      3.1533281      33.136542      25.852784      48.487658    
-807616.04      3.5581352      34.315928      25.855403      48.08681     
-807620.12      2.5899577      33.327249      25.843297      47.686094    
-807631.59      3.2086896      32.652725      25.861955      47.285363    
-807641.79      2.6228832      32.456851      25.886852      46.884591    
-807646.7       3.3438593      32.662447      25.924733      46.483722    
-807647.02      2.8857929      32.01929       25.891964      46.083079    
-807641.88      3.5596887      31.832041      25.884147      45.682546    
-807632.03      3.1849394      32.030915      25.896951      45.28203     
-807622.31      2.9204828      32.345368      25.882453      44.881652    
-807616.44      2.7883602      34.013418      25.855719      44.481461    
-807621.08      3.3118651      32.857519      25.800607      44.081574    
-807631.89      3.2200593      32.167603      25.847402      43.681554    
-807641.55      2.879835       31.945287      25.872478      43.281495    
-807646.26      3.0156063      32.347142      25.916329      42.881326    
-807646.1       2.8250792      33.041039      25.856798      42.481471    
-807639.99      2.7776058      32.016077      25.854925      42.08169     
-807629.49      3.8234829      32.824629      25.875054      41.681896    
-807619.68      2.7083856      33.430468      25.81365       41.28241     
-807616.88      3.1232908      34.491012      25.793705      40.883062    
-807620.92      3.0594042      33.866706      25.807969      40.483719    
-807631.61      3.3530052      33.342922      25.84596       40.08429     
-807642.04      3.288483       33.228226      25.828453      39.68499     
-807645.92      2.7092604      33.337862      25.888462      39.285529    
-807644.32      3.1871221      33.622703      25.893528      38.886115    
-807637.2       3.2519218      33.889675      25.855901      38.486902    
-807627.53      3.0441869      33.361577      25.883558      38.087652    
-807618.96      2.7171239      33.701421      25.857559      37.688557    
-807615.3       3.9448816      34.396415      25.833141      37.289607    
-807623.43      2.8815693      33.245193      25.91162       36.890448    
-807631.97      3.2883816      33.263028      25.902929      36.491383    
-807641.81      2.8539101      32.568548      25.895485      36.092407    
-807645.34      3.7681029      33.708673      25.862893      35.693599    
-807642.86      3.4308134      33.259842      25.851854      35.294887    
-807634.78      3.3998408      34.019421      25.841925      34.896264    
-807626.34      3.3926286      33.809687      25.861613      34.497635    
-807618.04      4.2585877      35.222716      25.860506      34.099068    
-807615.65      3.0904863      35.123279      25.840656      33.700618    
-807623.46      3.783849       34.315166      25.806201      33.302328    
-807634.25      3.0741669      33.36762       25.824856      32.904034    
-807641.06      2.8838021      33.551309      25.826268      32.505789    
-807644.4       2.702634       33.311653      25.795234      32.107687    
-807642.49      3.2896359      33.727149      25.825308      31.709548    
-807634.54      3.2059825      32.841773      25.827167      31.311456    
-807625.29      2.7030163      33.216131      25.856069      30.913336    
-807616.51      2.9163225      34.474699      25.870159      30.515231    
-807618.36      3.3274541      34.100154      25.900727      30.117099    
-807624.69      3.434232       33.917645      25.906201      29.719009    
-807635.86      3.5330215      33.337467      25.91503       29.320953    
-807642.22      3.4889023      33.429598      25.887348      28.923024    
-807646.07      2.6586711      32.656428      25.89779       28.525124    
-807642.37      4.1948863      32.941569      25.895275      28.127285    
-807632.89      2.6874959      33.059979      25.890555      27.729511    
-807623.33      3.1924887      33.531615      25.899668      27.33177     
-807617.09      3.095105       34.719406      25.959845      26.933941    
-807617.25      2.7680562      34.218465      25.923278      26.536255    
-807626.25      3.0884556      33.725801      25.920242      26.13863     
-807637.19      3.1297176      32.957027      25.936257      25.741025    
-807644.48      2.5415372      32.670532      25.958193      25.343426    
-807643.9       2.9832246      33.384293      25.91874       24.945969    
-807641.48      2.5837638      32.667039      25.915142      24.548573    
-807633.58      3.3232115      33.020426      25.929954      24.151198    
-807625.47      2.689945       33.198615      25.91381       23.75391     
-807617.67      2.9814026      34.530814      25.898535      23.356703    
-807620.55      3.1721893      33.964263      25.926757      22.959492    
-807628.6       3.2769391      33.53554       25.889946      22.562403    
-807637.98      3.303567       32.769052      25.911752      22.165322    
-807642.15      3.9886443      33.505701      25.866602      21.768374    
-807644.67      3.5463813      32.97441       25.891173      21.371428    
-807639.45      3.0015267      33.145697      25.901908      20.974512    
-807633.21      3.7788525      33.067443      25.924837      20.577604    
-807623.79      2.6661558      34.146723      25.95712       20.180691    
-807619.58      3.1430537      34.184379      25.934726      19.783867    
-807622.48      3.8015858      33.714511      25.925381      19.387108    
-807631.29      3.0831477      33.444436      25.923086      18.990402    
-807637.9       2.9314041      32.893378      25.919562      18.593749    
-807642.1       2.5880024      33.027811      25.932171      18.197125    
-807644.34      2.4362924      32.631711      25.924118      17.800561    
-807639.33      2.7113216      32.414298      25.918839      17.404053    
-807629.95      3.0132675      33.613329      25.920828      17.007588    
-807622.83      2.7083765      33.12592       25.893312      16.611208    
-807620.3       2.9453546      33.792295      25.921772      16.214834    
-807622.23      3.0771178      33.785424      25.919928      15.818508    
-807630.77      2.9027087      33.745583      25.897312      15.422257    
-807636.81      3.0326074      33.734034      25.885794      15.026063    
-807643.26      2.9090944      33.732485      25.928165      14.629862    
-807640.03      4.3991953      35.055515      25.890302      14.23375     
-807637.76      3.389296       33.717997      25.886941      13.837684    
-807629.19      3.4572921      33.931868      25.905034      13.44164     
-807621.3       3.5269136      34.750183      25.933054      13.04561     
-807615.97      3.4055333      35.260088      25.931372      12.649626    
-807623.02      2.7554976      34.190114      25.901777      12.253716    
-807628.41      3.1391856      34.278094      25.883815      11.857864    
-807637.82      2.8716335      33.667557      25.896586      11.462041    
-807641.53      3.385454       34.332574      25.899158      11.066256    
-807642.09      3.2702958      34.171589      25.928043      10.670488    
-807636.6       3.146482       34.045545      25.916953      10.274772    
-807628.02      3.2554086      34.455353      25.928705      9.8790878    
-807621.52      2.8241178      34.683302      25.924025      9.4834493    
-807618.58      3.1395727      34.560686      25.929987      9.087848     
-807621.19      3.749241       35.281206      25.909487      8.6923024    
-807631.5       4.0732347      34.113165      25.908437      8.2967974    
-807638.73      3.2026771      33.668626      25.930931      7.9013183    
-807641.32      3.060748       34.403996      25.914641      7.5058896    
-807640.14      2.9993722      33.370693      25.928738      7.1104927    
-807635.65      2.6887197      32.690432      25.959242      6.7151201    
-807628.6       3.0623361      33.497623      25.919895      6.3198088    
-807619.62      3.4016295      33.840903      25.920533      5.9245364    
-807619.1       2.6988092      34.436743      25.920875      5.5293029    
-807624.93      3.0746524      33.555081      25.90966       5.1341126    
-807633.95      2.8312303      32.891325      25.917577      4.7389573    
-807636.94      3.5076982      34.585191      25.923757      4.343838     
-807642.06      4.1073576      33.605969      25.923616      3.948757     
-807640.58      3.4003294      33.99191       25.927498      3.5537129    
-807635.33      3.0848684      34.183956      25.925447      3.1587074    
-807625.1       3.2698415      34.225094      25.925959      2.7637394    
-807620.12      3.4114714      34.872496      25.930292      2.3688081    
-807621.38      3.3433562      33.749139      25.961111      1.9739097    
-807626.41      3.0517086      33.595962      25.926977      1.5790545    
-807633.99      3.0220477      32.547935      25.957468      1.1842334    
-807640.89      2.9719799      33.279248      25.954447      0.78945097   
-807641.35      2.7566036      33.998775      25.920796      0.39470758   
-807640.66      2.9246025      32.990753      25.926052      0            
Loop time of 197.345 on 32 procs for 5000 steps with 1080 atoms

Performance: 4.378 ns/day, 5.482 hours/ns, 25.336 timesteps/s, 27.363 katom-step/s
75.2% CPU use with 32 MPI tasks x 1 OpenMP threads

MPI task timing breakdown:
Section |  min time  |  avg time  |  max time  |%varavg| %total
---------------------------------------------------------------
Pair    | 102.07     | 145.31     | 192.78     | 312.5 | 73.63
Neigh   | 0          | 0          | 0          |   0.0 |  0.00
Comm    | 2.2469     | 49.705     | 92.926     | 534.2 | 25.19
Output  | 0.030056   | 0.031245   | 0.032523   |   0.3 |  0.02
Modify  | 1.9634     | 1.9796     | 1.9997     |   0.8 |  1.00
Other   |            | 0.3183     |            |       |  0.16

Nlocal:          33.75 ave          48 max          21 min
Histogram: 8 8 0 0 0 0 0 8 0 8
Nghost:        1106.25 ave        1119 max        1092 min
Histogram: 8 0 8 0 0 0 0 0 8 8
Neighs:              0 ave           0 max           0 min
Histogram: 32 0 0 0 0 0 0 0 0 0
FullNghs:       5494.5 ave        7896 max        3378 min
Histogram: 8 8 0 0 0 0 0 8 0 8

Total # of neighbors = 175824
Ave neighs/atom = 162.8
Neighbor list builds = 0
Dangerous builds = 0

reset_timestep 0


variable interval equal 1000
thermo 10

variable nintervals equal $(v_PERIOD/v_interval)
variable nintervals equal 100
variable efield equal 1e-2*36.36*cos((step/${PERIOD})*2*3.14)
variable efield equal 1e-2*36.36*cos((step/100000)*2*3.14)
fix born all addbornforce 0.0 0.0 v_efield

variable Px equal f_born[1]+c_polarization[1]
variable Py equal f_born[2]+c_polarization[2]
variable Pz equal (f_born[3]+c_polarization[3])/vol
variable pe equal pe

fix aveP all ave/time 1 $(v_interval/2) ${interval} v_efield v_Pz v_pe f_born file Pz.${MODEL}.${STRUCTURE}.${TEMP}.$L.${ITER}
fix aveP all ave/time 1 500 ${interval} v_efield v_Pz v_pe f_born file Pz.${MODEL}.${STRUCTURE}.${TEMP}.$L.${ITER}
fix aveP all ave/time 1 500 1000 v_efield v_Pz v_pe f_born file Pz.${MODEL}.${STRUCTURE}.${TEMP}.$L.${ITER}
fix aveP all ave/time 1 500 1000 v_efield v_Pz v_pe f_born file Pz.BaTiO3-E0.${STRUCTURE}.${TEMP}.$L.${ITER}
fix aveP all ave/time 1 500 1000 v_efield v_Pz v_pe f_born file Pz.BaTiO3-E0.BaTiO3-sc333.${TEMP}.$L.${ITER}
fix aveP all ave/time 1 500 1000 v_efield v_Pz v_pe f_born file Pz.BaTiO3-E0.BaTiO3-sc333.300.$L.${ITER}
fix aveP all ave/time 1 500 1000 v_efield v_Pz v_pe f_born file Pz.BaTiO3-E0.BaTiO3-sc333.300.2.${ITER}
fix aveP all ave/time 1 500 1000 v_efield v_Pz v_pe f_born file Pz.BaTiO3-E0.BaTiO3-sc333.300.2.7

thermo_style custom step time temp press pe f_born v_efield v_Pz spcpu cpuremain

# dump 4a all custom 1000 dump.hyst.${MODEL}.${STRUCTURE}.${TEMP}.$L.${ITER}.bin id type xu yu zu fx fy fz
# dump_modify 4a sort id

fix nvt all nvt temp ${TEMP} ${TEMP} $(100*dt)
fix nvt all nvt temp 300 ${TEMP} $(100*dt)
fix nvt all nvt temp 300 300 $(100*dt)
fix nvt all nvt temp 300 300 0.2000000000000000111

run $(v_PERIOD)
run 100000
WARNING: non-constant efield is experimental, strongly distrust scalar/vector output (src/fix_addbornforce.cpp:193)
Per MPI rank memory allocation (min/avg/max) = 3.516 | 3.516 | 3.516 Mbytes
   Step          Time           Temp          Press          PotEng         f_born        v_efield         v_Pz          S/CPU         CPULeft    
         0   0              291.06166      125712.02     -807640.66     -294.51709      0.3636         0.055390354    0              0            
        10   0.02           305.50747      132651.96     -807633.39     -303.83177      0.36359993     0.057142195    27.995273      3571.694     
        20   0.04           295.84883      138591.83     -807625.33     -310.57406      0.36359971     0.058410263    28.007238      3570.5641    
        30   0.06           295.23297      142740.3      -807621.01     -314.74929      0.36359935     0.059195566    28.032802      3568.864     
        40   0.08           294.63448      141356.12     -807621.71     -314.00314      0.36359885     0.059055318    27.979342      3569.5394    
        50   0.1            305.19747      137108.29     -807627.65     -309.48842      0.36359821     0.058206326    28.035969      3568.3585    
        60   0.12           290.14572      130832.07     -807633.94     -301.07357      0.36359742     0.056623846    28.026969      3567.6432    
        70   0.14           286.02857      125911.22     -807641.02     -293.27746      0.36359649     0.055157748    28.003891      3567.45      
        80   0.16           291.81736      124827.08     -807642.76     -292.20005      0.36359541     0.054955278    27.955967      3567.9809    
        90   0.18           296.15883      127749.96     -807638.88     -296.68081      0.36359419     0.055798181    27.97808       3567.9996    
       100   0.2            303.90238      134379.34     -807632.3      -304.19615      0.36359283     0.057211841    27.983291      3567.8769    
       110   0.22           298.10623      138491.59     -807625.76     -309.83121      0.36359132     0.058271899    27.989445      3567.6403    
       120   0.24           301.70673      143055.32     -807621.28     -314.58487      0.36358968     0.059166218    28.033493      3566.9162    
       130   0.26           287.7308       141024.77     -807620.55     -313.21138      0.36358788     0.058908186    28.043371      3566.1523    
       140   0.28           303.72698      138044.36     -807627.37     -308.28308      0.36358595     0.057981589    28.016395      3565.6914    
       150   0.3            295.39513      129210.11     -807635.52     -298.70871      0.36358387     0.056181172    28.040548      3565.0397    
       160   0.32           302.78139      126702.09     -807640.55     -294.3239       0.36358165     0.055356815    28.039093      3564.4364    
       170   0.34           298.85554      123963.2      -807641.67     -292.44471      0.36357928     0.055003732    28.048793      3563.7897    
       180   0.36           300.68355      129621.76     -807635.95     -298.06297      0.36357677     0.056060816    28.07201       3563.0117    
       190   0.38           300.84963      133151.94     -807630.31     -303.56202      0.36357412     0.057095514    28.02794       3562.5724    
       200   0.4            307.6019       141406.67     -807622.56     -311.9496       0.36357132     0.058673545    28.019054      3562.198     
       210   0.42           301.41612      142082.55     -807619.16     -314.34379      0.36356838     0.059124339    28.025081      3561.7886    
       220   0.44           294.41977      142226.13     -807618.8      -313.40453      0.3635653      0.058948174    28.013551      3561.4504    
       230   0.46           310.03392      134499.56     -807629.06     -305.17105      0.36356207     0.057400052    28.046134      3560.9308    
       240   0.48           320.25069      129781.42     -807635.69     -299.7612       0.3635587      0.056383027    28.008597      3560.6235    
       250   0.5            308.70935      125524.46     -807640.32     -293.41525      0.36355519     0.055189931    28.024516      3560.2313    
       260   0.52           299.68528      126050.17     -807639.03     -293.39326      0.36355153     0.055186349    27.969428      3560.1113    
       270   0.54           314.06181      128793.93     -807637.53     -296.88564      0.36354773     0.05584384     27.947198      3560.0789    
       280   0.56           307.21426      134934.6      -807628.57     -304.96123      0.36354379     0.057363471    28.011726      3559.7298    
       290   0.58           321.19953      139990.8      -807623.09     -312.38974      0.3635397      0.05876144     28.03076       3559.2964    
       300   0.6            310.41425      141808.08     -807620.71     -313.29429      0.36353547     0.058932275    28.028285      3558.8789    
       310   0.62           309.46927      140510.42     -807623.09     -310.85371      0.3635311      0.058473892    28.017777      3558.5082    
       320   0.64           312.7718       134697        -807629.81     -304.67091      0.36352658     0.057311574    28.014307      3558.1522    
       330   0.66           307.49632      129568.97     -807634.82     -298.95251      0.36352192     0.056236607    28.012098      3557.8048    
       340   0.68           298.69312      125292.88     -807639.53     -293.08827      0.36351712     0.055134201    27.986775      3557.5512    
       350   0.7            289.3787       127442.63     -807637.45     -293.9758       0.36351217     0.055301912    27.986611      3557.2925    
       360   0.72           314.80407      130260.1      -807635.8      -299.28367      0.36350708     0.056301201    27.987606      3557.0247    
       370   0.74           305.97568      136996.34     -807626.48     -307.50352      0.36350185     0.057848351    27.981327      3556.7737    
       380   0.76           318.23035      140171.84     -807624.29     -311.5397       0.36349647     0.058608515    27.975171      3556.5378    
       390   0.78           306.3848       142073.91     -807620.88     -313.40284      0.36349095     0.058959915    27.973871      3556.2997    
       400   0.8            300.8502       139209.5      -807623.98     -309.66962      0.36348529     0.058258498    28.01491       3555.9254    
       410   0.82           311.26682      133523.36     -807631.19     -304.06066      0.36347948     0.057204191    27.971548      3555.6882    
       420   0.84           297.6173       128510.55     -807636.67     -296.79587      0.36347353     0.055838351    27.950051      3555.5068    
       430   0.86           285.5553       127010.66     -807638.78     -293.08626      0.36346744     0.055141359    27.970521      3555.2583    
       440   0.88           302.56825      126878.57     -807639.48     -294.81458      0.3634612      0.055467477    28.016697      3554.8716    
       450   0.9            302.07211      131512.54     -807633.28     -301.08573      0.36345482     0.05664835     28.033674      3554.4383    
       460   0.92           309.6697       137687.34     -807627.18     -308.38671      0.3634483      0.058023048    28.057631      3553.9425    
       470   0.94           300.64721      141393.91     -807622.53     -311.92586      0.36344163     0.058690016    28.075038      3553.4058    
       480   0.96           293.25873      141863.67     -807620.92     -312.56266      0.36343482     0.058810935    28.020639      3553.02      
       490   0.98           311.26801      136677.76     -807627.78     -308.32028      0.36342786     0.05801381     27.998683      3552.6923    
       500   1              304.79481      131673.76     -807632.7      -302.57836      0.36342077     0.056934517    27.999669      3552.3608    
       510   1.02           299.0811       127507.13     -807638.7      -9467.0387      0.36341353     0.055668639    27.96159       3552.1232    
       520   1.04           294.88212      126317.88     -807640.25     -9400.5226      0.36340614     0.05527863     27.933947      3551.9487    
       530   1.06           300.10832      128126.5      -807638.93     -9469.0837      0.36339862     0.055682949    27.891232      3551.8703    
       540   1.08           308.33833      133793.93     -807633.06     -9697.0763      0.36339095     0.057024863    27.886614      3551.7923    
       550   1.1            303.36303      136834.16     -807627.34     -9862.7201      0.36338313     0.058000199    27.928002      3551.608     
       560   1.12           303.29862      141057.93     -807622.71     -10010.526      0.36337518     0.058870699    27.938329      3551.394     
       570   1.14           292.98042      139359.09     -807623.56     -9941.3313      0.36336707     0.058465075    27.853783      3551.3646    
       580   1.16           306.57322      137257.34     -807627.74     -9866.9125      0.36335883     0.058028734    27.82742       3551.382     
       590   1.18           298.37036      130922.05     -807633.97     -9631.6397      0.36335044     0.056646368    27.867466      3551.2997    
       600   1.2            294.34795      128500.02     -807637.98     -9484.4105      0.36334191     0.055781782    27.885506      3551.1696    
       610   1.22           297.78369      125721.79     -807641.04     -9403.6988      0.36333324     0.055308403    27.895035      3551.0122    
       620   1.24           292.38283      130401.21     -807636.28     -9532.3153      0.36332442     0.056066229    27.962964      3550.7086    
       630   1.26           297.03524      133023.45     -807631.66     -9704.9111      0.36331546     0.057082794    27.974552      3550.38      
       640   1.28           314.3131       138369.84     -807628.31     -9887.3063      0.36330636     0.058157071    27.994121      3550.0117    
       650   1.3            293.80626      140323.12     -807623.18     -9961.5172      0.36329711     0.05859507     27.968339      3549.694     
       660   1.32           288.92347      140061.4      -807622.74     -9955.073       0.36328772     0.058558678    27.961779      3549.3878    
       670   1.34           301.12277      135937.51     -807629.09     -9807.7937      0.36327819     0.057693852    27.940488      3549.1204    
       680   1.36           298.15212      130635.42     -807634.73     -9611.7119      0.36326851     0.056541917    27.932415      3548.8656    
       690   1.38           290.87226      127901.62     -807638.77     -9449.206       0.36325869     0.055587461    27.909178      3548.6506    
       700   1.4            293.38305      126712.69     -807640.19     -9416.1474      0.36324873     0.055394505    27.934895      3548.3846    
       710   1.42           297.48572      129476.19     -807636.14     -9563.1512      0.36323863     0.056260882    27.942724      3548.1021    
       720   1.44           305.01024      133600.01     -807632.24     -9721.0762      0.36322838     0.057191583    27.943994      3547.8153    
       730   1.46           304.65645      138617.05     -807626.39     -9904.0974      0.36321798     0.058270011    27.981167      3547.4618    
       740   1.48           296.85987      140698.81     -807622.95     -9977.4676      0.36320745     0.058703382    27.901776      3547.2447    
       750   1.5            309.17473      138989.86     -807625.82     -9937.6358      0.36319677     0.058470747    27.905751      3547.017     
       760   1.52           310.77414      134337.58     -807631.43     -9758.4821      0.36318595     0.057418359    27.920879      3546.7605    
       770   1.54           307.43192      129248.73     -807636.78     -9565.9346      0.36317498     0.05628712     27.948832      3546.4553    
       780   1.56           300.79554      126606.42     -807639.4      -9447.2391      0.36316387     0.055590401    27.899971      3546.2284    
       790   1.58           292.2642       127678.76     -807637.83     -9452.2368      0.36315262     0.055621533    27.952046      3545.9143    
       800   1.6            295.31757      130411.94     -807634.62     -9564.4832      0.36314122     0.056283811    27.951484      3545.6       
       810   1.62           302.35269      135271.56     -807629.66     -9746.1527      0.36312968     0.057354698    27.959224      3545.2725    
       820   1.64           307.4975       139475.45     -807624.6      -9923.4697      0.363118       0.058400062    27.933189      3544.9846    
       830   1.66           306.26671      140690.16     -807622.39     -9978.2914      0.36310618     0.058724602    27.950491      3544.6685    
       840   1.68           308.57988      138339.53     -807625.5      -9880.1453      0.36309421     0.058148906    27.90692       3544.4173    
       850   1.7            321.30197      133393.7      -807632.64     -9698.4401      0.3630821      0.057081397    27.960714      3544.0833    
       860   1.72           308.68996      130398.17     -807635.17     -9554.691       0.36306984     0.056237241    27.933756      3543.7884    
       870   1.74           294.60074      128351.55     -807636.28     -9450.6701      0.36305745     0.055626892    27.938645      3543.485     
       880   1.76           306.53836      128086.99     -807637.78     -9451.7612      0.3630449      0.055635236    27.985137      3543.1134    
       890   1.78           306.41855      130949.63     -807633.61     -9580.3429      0.36303222     0.056394068    27.990406      3542.7346    
       900   1.8            304.33349      137251.94     -807626.01     -9811.6622      0.36301939     0.057757755    27.954802      3542.4064    
       910   1.82           308.90786      140024.23     -807622.54     -9941.8031      0.36300642     0.058525939    27.936143      3542.1035    
       920   1.84           314.60527      139711.14     -807623.78     -9923.8911      0.36299331     0.058422604    27.965045      3541.7597    
       930   1.86           308.88559      137567.78     -807625.7      -9837.0292      0.36298005     0.057913357    27.98825       3541.3839    
       940   1.88           308.13537      133994.39     -807630.19     -9690.1537      0.36296665     0.057050766    27.99843       3540.9948    
       950   1.9            302.68252      129654.93     -807634.14     -9538.1126      0.36295311     0.056157719    28.007154      3540.5948    
       960   1.92           313.12909      127704.23     -807639.3      -9419.7203      0.36293942     0.05546275     27.982113      3540.2287    
       970   1.94           301.94703      128620.76     -807636.35     -9467.9562      0.36292559     0.055748885    27.942516      3539.9144    
       980   1.96           321.27196      132086.05     -807634.33     -9623.6654      0.36291162     0.056667908    27.90033       3539.6539    
       990   1.98           304.13864      136733.38     -807625.35     -9837.6164      0.3628975      0.057929989    27.912937      3539.3753    
      1000   2              316.79615      138211.12     -807625.56     -9893.2479      0.36288325     0.05825987     27.86727       3539.1532    
      1010   2.02           304.25499      139380.53     -807623.91     -309.23404      0.36286884     0.058275382    27.953923      3538.8193    
      1020   2.04           299.96732      136595.76     -807626.01     -306.81664      0.3628543      0.057822139    27.929451      3538.5155    
      1030   2.06           312.82418      133264.61     -807632.22     -302.58522      0.36283961     0.057027001    27.985613      3538.1415    
      1040   2.08           300.30356      128998.62     -807636.76     -296.49368      0.36282478     0.055881238    27.990378      3537.762     
      1050   2.1            295.42737      128754.19     -807637.65     -295.11976      0.3628098      0.055624587    27.999141      3537.3725    
      1060   2.12           297.44463      129041.28     -807635.64     -297.74475      0.36279469     0.056121686    27.985247      3537         
      1070   2.14           308.57887      132657.32     -807631.7      -303.45608      0.36277943     0.057200617    28.0445        3536.5582    
      1080   2.16           297.20927      137139.14     -807627.18     -306.64704      0.36276402     0.057804558    28.069257      3536.089     
      1090   2.18           296.05611      138637.5      -807624.29     -309.56075      0.36274848     0.058356308    28.048175      3535.6462    
      1100   2.2            294.26954      139298.46     -807623.35     -310.40336      0.36273279     0.058517683    28.071926      3535.1779    
      1110   2.22           304.73885      134517.52     -807630.17     -305.21628      0.36271695     0.057542318    28.103459      3534.6759    
      1120   2.24           291.29082      132571.6      -807632.6      -300.93811      0.36270098     0.056738255    28.094862      3534.1862    
      1130   2.26           291.81192      127789.12     -807637.8      -295.92689      0.36268486     0.05579593     28.103972      3533.6888    
      1140   2.28           289.7775       129179.94     -807637.16     -296.30721      0.3626686      0.055870144    28.11348       3533.1834    
      1150   2.3            299.36091      128696.47     -807637.86     -297.1004       0.36265219     0.056022236    28.064278      3532.7343    
      1160   2.32           290.07963      134502.21     -807630.57     -303.09555      0.36263564     0.05715531     28.075983      3532.274     
      1170   2.34           299.3303       135956.32     -807628.83     -306.2277       0.36261895     0.057748603    28.062677      3531.8298    
      1180   2.36           292.65608      139719.21     -807623.83     -310.26814      0.36260212     0.058513268    28.026753      3531.4254    
      1190   2.38           297.19875      137497.71     -807626.29     -308.44277      0.36258514     0.058171748    27.996754      3531.0535    
      1200   2.4            298.76944      135228.53     -807629.83     -305.05605      0.36256802     0.057535734    28.015982      3530.6617    
      1210   2.42           297.16425      130775.99     -807634.9      -299.77247      0.36255076     0.056541906    28.039332      3530.2461    
      1220   2.44           300.26356      128636.3      -807638.07     -296.92779      0.36253335     0.056008042    28.034177      3529.8369    
      1230   2.46           282.83488      127992.36     -807636.26     -296.28965      0.3625158      0.055890379    28.030527      3529.4322    
      1240   2.48           299.58322      130566.27     -807636.52     -298.31051      0.36249811     0.056274329    27.993667      3529.0657    
      1250   2.5            298.81021      133605.48     -807631.36     -303.35405      0.36248028     0.057228576    28.043434      3528.6493    
      1260   2.52           301.85775      136912.91     -807627.2      -307.90045      0.3624623      0.058089148    28.056535      3528.2208    
      1270   2.54           292.79726      138521.81     -807624.08     -309.63706      0.36244418     0.0584197      28.04405       3527.8057    
      1280   2.56           302.49947      137165.03     -807627.37     -307.61519      0.36242592     0.058041155    28.0388        3527.3968    
      1290   2.58           300.88611      134271.16     -807630.52     -304.12717      0.36240751     0.057385946    28.048752      3526.9789    
      1300   2.6            301.22546      129882.27     -807634.81     -299.7895       0.36238896     0.056570364    28.049758      3526.561     
      1310   2.62           294.81757      128595.04     -807637.23     -296.3881       0.36237027     0.055931404    28.033266      3526.1599    
      1320   2.64           286.56559      127898.29     -807637.04     -295.31346      0.36235143     0.055731507    28.024937      3525.7674    
      1330   2.66           294.96406      131481.49     -807634.01     -299.41123      0.36233245     0.056507796    28.029518      3525.371     
      1340   2.68           299.98031      133942.22     -807630.09     -303.96342      0.36231333     0.057369958    28.045291      3524.9605    
      1350   2.7            300.75056      138290.99     -807625.37     -308.58588      0.36229407     0.058245495    28.074397      3524.5237    
      1360   2.72           301.41227      138671.76     -807625.99     -307.93942      0.36227466     0.05812659     28.03247       3524.1269    
      1370   2.74           301.35824      138140.49     -807626.14     -307.5667       0.36225511     0.058059368    28.002739      3523.7578    
      1380   2.76           305.61414      132796.92     -807631.41     -302.81118      0.36223542     0.057164777    28.003517      3523.3882    
      1390   2.78           300.90935      130780.35     -807634.94     -298.36646      0.36221558     0.056328785    28.022907      3523.0013    
      1400   2.8            300.94824      127289.78     -807638.35     -294.79282      0.3621956      0.055657186    28.04817       3522.5922    
      1410   2.82           302.67678      128503.08     -807636.91     -296.25743      0.36217548     0.055936812    28.073186      3522.1615    
      1420   2.84           304.18958      130704.15     -807633.89     -299.32957      0.36215522     0.056520031    28.085835      3521.7208    
      1430   2.86           312.9268       134550.86     -807630.29     -303.96237      0.36213481     0.05739804     28.046555      3521.3157    
      1440   2.88           303.81006      138281.88     -807625.12     -307.6001       0.36211426     0.058088259    27.999322      3520.9524    
      1450   2.9            305.93204      139165.57     -807623.9      -308.86327      0.36209357     0.058330134    28.036214      3520.5572    
      1460   2.92           297.86106      138420.02     -807624.45     -306.89577      0.36207273     0.057961898    28.03427       3520.1642    
      1470   2.94           307.515        134170.24     -807630.55     -301.80544      0.36205176     0.057003815    28.03359       3519.7723    
      1480   2.96           307.79575      130900.3      -807634.23     -297.79723      0.36203064     0.056250041    28.010775      3519.4003    
      1490   2.98           312.46831      128423.87     -807636.82     -295.51712      0.36200937     0.055822638    28.019738      3519.0208    
      1500   3              304.5931       130261.88     -807633.77     -297.10203      0.36198796     0.056125343    28.027949      3518.6349    
      1510   3.02           316.62788      131762.22     -807632.88     -9580.4979      0.36196642     0.056561034    27.95656       3518.3087    
      1520   3.04           314.95519      136404.96     -807627.2      -9746.9161      0.36194472     0.057546977    27.949967      3517.9876    
      1530   3.06           322.89131      138845.45     -807624.84     -9852.1676      0.36192289     0.058171904    27.938324      3517.6756    
      1540   3.08           312.13338      139632.53     -807622.56     -9869.053       0.36190091     0.058275143    27.918342      3517.3793    
      1550   3.1            321.36758      136163.46     -807627.98     -9732.0172      0.36187879     0.057469481    27.920993      3517.0802    
      1560   3.12           321.32026      133687.52     -807630.89     -9636.1665      0.36185653     0.056906965    27.899226      3516.7979    
      1570   3.14           304.87383      129956.03     -807632.06     -9526.1223      0.36183412     0.056260576    27.91112       3516.505     
      1580   3.16           301.8526       130265.66     -807633.55     -9462.3628      0.36181157     0.055887499    27.959311      3516.1728    
      1590   3.18           304.94244      129912.93     -807634.05     -9463.266       0.36178888     0.055896339    27.945887      3515.851     
      1600   3.2            316.9686       133181.11     -807630.98     -9616.0389      0.36176605     0.056802303    27.956707      3515.5202    
      1610   3.22           320.05751      135911.23     -807626.74     -9770.9182      0.36174307     0.057720847    27.951146      3515.1934    
      1620   3.24           321.8479       138499.95     -807624.94     -9841.1132      0.36171995     0.058139233    27.983814      3514.8409    
      1630   3.26           322.22404      138070        -807626.8      -9790.6291      0.36169669     0.057844704    27.968142      3514.5004    
      1640   3.28           312.36288      136337.84     -807626.87     -9753.6917      0.36167329     0.0576302      27.910097      3514.2043    
      1650   3.3            318.00811      132676.55     -807631.77     -9632.9522      0.36164974     0.056920511    27.948249      3513.8782    
      1660   3.32           296.59837      130927.98     -807633.35     -9496.6582      0.36162605     0.056118834    27.926379      3513.5684    
      1670   3.34           300.16029      129712.4      -807636.12     -9432.9438      0.36160222     0.055745999    27.974962      3513.2214    
      1680   3.36           305.34414      131058.56     -807634.68     -9511.9459      0.36157824     0.056216606    27.954153      3512.8899    
      1690   3.38           311.42432      132875.19     -807631.09     -9662.7752      0.36155413     0.057111832    27.976328      3512.5415    
      1700   3.4            309.61526      136787.88     -807628.05     -9757.114       0.36152987     0.057673292    27.952052      3512.211     
      1710   3.42           305.38566      137093.83     -807627.04     -9775.3617      0.36150546     0.057785052    27.956652      3511.8768    
      1720   3.44           305.86479      138370.33     -807626.39     -9800.0493      0.36148092     0.057934921    27.888238      3511.5924    
      1730   3.46           304.06316      134923.87     -807628.17     -9740.9604      0.36145623     0.057589539    27.908666      3511.2923    
      1740   3.48           301.84876      132693.67     -807631.96     -9608.6042      0.3614314      0.056810938    27.906909      3510.9928    
      1750   3.5            308.28739      129001.72     -807637.97     -9446.4563      0.36140643     0.055856098    27.935734      3510.6718    
      1760   3.52           304.05245      129500.13     -807636.55     -9475.3612      0.36138131     0.056030903    27.933157      3510.3523    
      1770   3.54           303.77694      130424.34     -807634.25     -9551.6012      0.36135605     0.056485683    27.990559      3509.9916    
      1780   3.56           300.74609      133303.49     -807631.29     -9634.7454      0.36133065     0.056981382    28.042149      3509.5947    
      1790   3.58           301.7942       135473.14     -807628.72     -9723.216       0.36130511     0.057508676    28.032119      3509.2052    
      1800   3.6            297.87464      137317.52     -807625.3      -9818.1004      0.36127942     0.058074005    27.98009       3508.8523    
      1810   3.62           301.12972      137362.36     -807625.73     -9821.1207      0.3612536      0.058096023    27.968044      3508.5077    
      1820   3.64           305.78784      135137.69     -807630        -9706.7878      0.36122763     0.057423825    27.942353      3508.1806    
      1830   3.66           301.82653      132060.12     -807633.91     -9566.0586      0.36120151     0.056595384    27.924456      3507.8656    
      1840   3.68           295.06777      129684.77     -807635.29     -9492.6742      0.36117526     0.056165305    27.905561      3507.563     
      1850   3.7            299.21089      128889.11     -807636.18     -9486.6783      0.36114886     0.056133932    27.96339       3507.2205    
      1860   3.72           306.70083      129835.59     -807635.93     -9529.7379      0.36112232     0.056392866    27.969317      3506.8738    
      1870   3.74           295.6575       133522.48     -807632.55     -9590.772       0.36109564     0.056758233    27.951986      3506.5386    
      1880   3.76           301.48544      136470.64     -807628.54     -9749.192       0.36106881     0.057700049    27.97283       3506.1893    
      1890   3.78           304.31871      137019.65     -807627.27     -9804.02        0.36104184     0.05802888     27.972191      3505.8403    
      1900   3.8            305.39232      135901.71     -807629.02     -9753.4687      0.36101474     0.057734008    27.974552      3505.4897    
      1910   3.82           299.45105      133521.88     -807630.84     -9671.81        0.36098748     0.057254965    27.940646      3505.1613    
      1920   3.84           298.34093      131275.56     -807633.54     -9582.2058      0.36096009     0.056728833    27.942696      3504.8312    
      1930   3.86           291.23094      129583.61     -807635.02     -9505.1248      0.36093255     0.056276789    27.970207      3504.483     
      1940   3.88           295.41677      129911.05     -807637.04     -9460.2674      0.36090487     0.056015499    27.981582      3504.1273    
      1950   3.9            290.76318      130785.97     -807634.59     -9521.1595      0.36087705     0.056380395    28.035747      3503.7369    
      1960   3.92           302.66008      134203.12     -807631.5      -9674.4841      0.36084909     0.05729276     28.044659      3503.3411    
      1970   3.94           298.20303      135928.71     -807628.4      -9756.2766      0.36082098     0.05778164     28.037213      3502.9505    
      1980   3.96           297.19108      136878.5      -807628        -9763.8044      0.36079273     0.057830751    27.978728      3502.5971    
      1990   3.98           301.48221      135470.17     -807629.72     -9729.84        0.36076434     0.057634116    27.998687      3502.2312    
      2000   4              289.65763      134699.41     -807629.01     -9700.1821      0.36073581     0.057462984    27.992124      3501.8694    
      2010   4.02           302.70278      130868.33     -807635.35     -298.5767       0.36070713     0.056604206    28.071073      3501.4587    
      2020   4.04           288.00576      130009.21     -807636.36     -295.47452      0.36067831     0.056020569    28.030401      3501.0736    
      2030   4.06           303.19041      128346.14     -807638.55     -295.41059      0.36064935     0.056012946    28.042814      3500.6811    
      2040   4.08           293.91185      130895.53     -807633.61     -299.03189      0.36062025     0.056704158    28.070231      3500.2723    
      2050   4.1            295.27219      133309.04     -807631.94     -300.89936      0.36059101     0.057062907    28.059658      3499.8704    
      2060   4.12           288.79259      136792.44     -807628.33     -303.473        0.36056162     0.057555665    28.066132      3499.465     
      2070   4.14           296.74         136425.11     -807627.38     -305.47622      0.36053209     0.057940334    28.083703      3499.0496    
      2080   4.16           296.67503      136355.63     -807627.88     -304.896        0.36050242     0.057835042    28.072768      3498.6413    
      2090   4.18           298.0795       133568.99     -807631.78     -301.00936      0.36047261     0.057102516    28.029326      3498.2593    
      2100   4.2            299.90575      131150.95     -807635.38     -297.44965      0.36044265     0.056431916    28.027718      3497.8785    
      2110   4.22           299.45248      128683.7      -807637.08     -295.55528      0.36041256     0.0560772      28.03089       3497.4961    
      2120   4.24           297.19036      129640.45     -807635.78     -296.37608      0.36038232     0.056237654    28.044874      3497.1057    
      2130   4.26           291.85233      131870.3      -807633.12     -298.11874      0.36035193     0.056573095    28.085262      3496.6921    
      2140   4.28           300.75377      134745.65     -807631.14     -301.10661      0.36032141     0.057144933    28.062006      3496.2925    
      2150   4.3            298.27008      136089.27     -807627.32     -304.41109      0.36029075     0.057776987    28.060422      3495.8942    
      2160   4.32           311.06667      137172.55     -807627.54     -305.64757      0.36025994     0.05801663     28.053891      3495.5001    
      2170   4.34           301.43431      135712.93     -807628.29     -303.28475      0.36022899     0.057573076    28.026593      3495.1219    
      2180   4.36           308.22016      133382.53     -807632.29     -299.95425      0.36019789     0.056945757    27.995944      3494.7615    
      2190   4.38           310.19486      130406.52     -807635.84     -296.40502      0.36016666     0.056276821    27.962696      3494.4201    
      2200   4.4            299.33812      130333.09     -807634.38     -296.06781      0.36013528     0.056217695    27.971797      3494.0733    
      2210   4.42           307.16641      129464.91     -807635.77     -295.53643      0.36010377     0.056121708    28.023631      3493.6972    
      2220   4.44           302.01066      132020.66     -807633.6      -296.77233      0.36007211     0.056361358    28.052176      3493.3053    
      2230   4.46           310.14828      134900.92     -807630        -301.34714      0.3600403      0.057235235    28.040244      3492.9204    
      2240   4.48           315.35103      136810.96     -807626.75     -305.11313      0.36000836     0.057955656    28.033985      3492.5392    
      2250   4.5            306.55977      137336.76     -807626.46     -304.00115      0.35997627     0.057749585    28.031603      3492.1595    
      2260   4.52           305.42634      135736.01     -807628.73     -301.47507      0.35994404     0.057274846    28.039425      3491.7757    
      2270   4.54           305.32514      133959.98     -807630.12     -299.93871      0.35991167     0.056988091    28.021262      3491.4021    
      2280   4.56           305.23684      130551.5      -807633.09     -296.88943      0.35987916     0.056413826    28.000598      3491.0399    
      2290   4.58           315.93756      129316.27     -807636.81     -294.55766      0.35984651     0.05597583     28.017183      3490.6688    
      2300   4.6            307.89183      130301.94     -807635.8      -294.45522      0.35981371     0.055961464    28.022699      3490.2948    
      2310   4.62           297.39094      133296.82     -807629.81     -298.98098      0.35978077     0.056826791    28.068382      3489.8964    
      2320   4.64           311.90088      134543.15     -807629.31     -301.5763       0.35974769     0.05732535     28.05539       3489.5053    
      2330   4.66           310.59835      137564.92     -807627        -303.70874      0.35971447     0.057736027    28.045547      3489.1197    
      2340   4.68           301.78414      136254.36     -807626.26     -303.30511      0.35968111     0.057664644    27.980655      3488.7689    
      2350   4.7            299.28066      135744.8      -807627.24     -302.01613      0.3596476      0.057424932    27.972019      3488.4227    
      2360   4.72           323.26195      132309.57     -807634.15     -298.55656      0.35961396     0.056772445    27.917817      3488.105     
      2370   4.74           302.43397      130559.54     -807634.47     -295.42342      0.35958017     0.056181938    27.953555      3487.7682    
      2380   4.76           303.06601      129336.67     -807636.68     -293.42925      0.35954624     0.055807963    27.981765      3487.4163    
      2390   4.78           303.98009      129591.73     -807635.56     -294.82303      0.35951216     0.056078364    27.991875      3487.0592    
      2400   4.8            303.62241      133283.27     -807631.17     -299.3946       0.35947795     0.056953344    28.018748      3486.6881    
      2410   4.82           308.16986      135367.59     -807629.58     -301.90063      0.35944359     0.05743555     28.05003       3486.301     
      2420   4.84           301.29991      137482.64     -807626.9      -303.81558      0.35940909     0.057805412    28.065854      3485.9061    
      2430   4.86           293.91892      137120.17     -807626.53     -303.40664      0.35937446     0.057733169    28.003306      3485.5434    
      2440   4.88           301.02327      135524.63     -807629.16     -302.01402      0.35933967     0.057473739    28.009392      3485.1777    
      2450   4.9            302.5213       131647.88     -807633.68     -297.92545      0.35930475     0.056701189    28.003371      3484.8151    
      2460   4.92           287.88163      129909.67     -807635.86     -293.87952      0.35926969     0.055936625    28.036085      3484.4361    
      2470   4.94           305.79874      128716.03     -807638.25     -294.1129       0.35923448     0.055986533    28.040702      3484.0549    
      2480   4.96           285.53448      130575.07     -807633.32     -296.45432      0.35919913     0.056437794    28.032154      3483.6782    
      2490   4.98           308.47892      132992.89     -807634.32     -298.69403      0.35916364     0.056869799    28.023283      3483.306     
      2500   5              292.95097      135188.65     -807629.41     -301.59636      0.35912801     0.057428084    28.041185      3482.9251    
[...]
     98740   197.48         310.76684      132441.78     -807631.15     -9663.2699      0.36236891     0.056986334    28.225614      43.524799    
     98750   197.5          312.90507      133404.75     -807632.1      -9648.6795      0.36238762     0.056897354    28.196105      43.179481    
     98760   197.52         308.37213      134898.65     -807630.55     -9678.9038      0.36240618     0.057072661    28.205519      42.834159    
     98770   197.54         314.68753      133826.74     -807631.46     -9683.4244      0.36242459     0.057096416    28.199575      42.488837    
     98780   197.56         301.41879      136193.48     -807627.87     -9742.8816      0.36244287     0.057444097    28.259763      42.143503    
     98790   197.58         306.50412      133533.02     -807630.11     -9702.6402      0.362461       0.057203972    28.260031      41.798168    
     98800   197.6          301.13979      134827.39     -807630.03     -9683.3337      0.36247899     0.057087313    28.253802      41.452832    
     98810   197.62         300.21772      132933.05     -807631.82     -9631.0402      0.36249683     0.056776226    28.262229      41.107492    
     98820   197.64         302.10046      133800.91     -807630.7      -9680.1823      0.36251453     0.057063139    28.256222      40.762152    
     98830   197.66         302.27925      132253.87     -807631.94     -9650.5003      0.36253209     0.056885412    28.270499      40.416808    
     98840   197.68         304.94748      133772.68     -807632.12     -9661.52        0.36254951     0.056947632    28.246155      40.071466    
     98850   197.7          302.87069      133945.07     -807631.1      -9693.1059      0.36256678     0.057131087    28.224273      39.726126    
     98860   197.72         304.68217      134822.71     -807629.64     -9753.2427      0.36258391     0.057482817    28.201758      39.380787    
     98870   197.74         295.46547      134448.5      -807629.58     -9722.6561      0.3626009      0.057299863    28.209932      39.035444    
     98880   197.76         295.9056       134243.66     -807631.09     -9680.0383      0.36261774     0.057046048    28.245603      38.690095    
     98890   197.78         301.4126       133499.81     -807632.31     -9670.0469      0.36263445     0.056984543    28.214679      38.344749    
     98900   197.8          288.64803      133243.15     -807630.57     -9675.4525      0.362651       0.057013794    28.238534      37.999397    
     98910   197.82         293.39914      133597.93     -807631.99     -9653.8493      0.36266742     0.05688392     28.251767      37.654042    
     98920   197.84         300.23866      131933.48     -807634.45     -9610.2198      0.36268369     0.056624298    28.228157      37.308688    
     98930   197.86         293.7402       134196.45     -807630.88     -9698.2727      0.36269982     0.057140573    28.190303      36.963338    
     98940   197.88         302.09693      134042.12     -807630.93     -9737.1604      0.36271581     0.057367164    28.149463      36.617991    
     98950   197.9          302.56066      134918.48     -807630.87     -9743.2937      0.36273165     0.057400792    28.180977      36.272638    
     98960   197.92         308.27698      134155.84     -807632.67     -9715.4864      0.36274735     0.057234493    28.210482      35.927279    
     98970   197.94         287.8177       134343.65     -807629.64     -9723.0078      0.36276291     0.057276346    28.20657       35.581919    
     98980   197.96         300.60178      132901.97     -807632.02     -9706.5634      0.36277832     0.057177046    28.191458      35.236559    
     98990   197.98         296.04645      132422.29     -807633.32     -9644.2682      0.36279359     0.056807701    28.106677      34.891208    
     99000   198            289.94014      132058.57     -807633.46     -9613.4716      0.36280872     0.056623938    28.160602      34.545848    
     99010   198.02         293.87727      132080.6      -807632.51     -301.97526      0.3628237      0.056914539    28.193867      34.200481    
     99020   198.04         302.42569      133695.84     -807631.77     -303.92957      0.36283855     0.057280534    28.180023      33.855115    
     99030   198.06         296.15288      134543.25     -807630.43     -304.40552      0.36285324     0.057367911    28.232537      33.50974     
     99040   198.08         292.34918      135404.91     -807629.77     -304.5222       0.3628678      0.057387599    28.256573      33.164361    
     99050   198.1          297.837        134380.9      -807630.49     -304.5501       0.36288221     0.057390576    28.284259      32.818976    
     99060   198.12         292.41448      134629.68     -807629.51     -304.74879      0.36289648     0.05742576     28.252765      32.473594    
     99070   198.14         306.83634      132265.92     -807634.38     -301.86207      0.36291061     0.056879583    28.335543      32.1282      
     99080   198.16         296.31459      132523.75     -807634.18     -300.49378      0.36292459     0.056619576    28.301691      31.782809    
     99090   198.18         297.55783      131005.29     -807634.05     -300.79327      0.36293843     0.056673846    28.297038      31.437416    
     99100   198.2          299.64879      132539.98     -807632.5      -302.56616      0.36295213     0.057005733    28.299884      31.092022    
     99110   198.22         296.35162      133043.17     -807631.06     -303.4266       0.36296568     0.05716571     28.319839      30.746624    
     99120   198.24         293.73271      135224.55     -807630.18     -303.80338      0.36297909     0.057234582    28.293051      30.401227    
     99130   198.26         294.72025      134979.46     -807628.9      -305.07662      0.36299236     0.057472351    28.288881      30.055829    
     99140   198.28         307.61642      135203.05     -807628.98     -306.61072      0.36300548     0.057759266    28.306587      29.710427    
     99150   198.3          300.60144      133211.27     -807630.9      -303.48045      0.36301846     0.057167543    28.277707      29.365027    
     99160   198.32         295.16055      133467.39     -807631.2      -302.05653      0.3630313      0.056897302    28.320898      29.019621    
     99170   198.34         296.11225      132301.74     -807632.42     -300.68703      0.36304399     0.056637354    28.260823      28.674219    
     99180   198.36         308.74854      132661.15     -807632.07     -302.40794      0.36305655     0.056959536    28.293759      28.328812    
     99190   198.38         306.08182      132519.34     -807632.43     -301.2747       0.36306895     0.056744146    28.322863      27.983401    
     99200   198.4          303.42684      134074.06     -807630.88     -302.06978      0.36308122     0.056891976    28.29471       27.637991    
     99210   198.42         308.89126      134650.01     -807629.89     -303.50783      0.36309334     0.05716091     28.286052      27.29258     
     99220   198.44         321.1795       134853.92     -807629.11     -305.70072      0.36310532     0.057572008    28.31038       26.947166    
     99230   198.46         302.25135      135285.24     -807626.98     -304.9109       0.36311715     0.057421389    28.277851      26.601752    
     99240   198.48         311.49747      134251        -807630.3      -302.72241      0.36312885     0.057007414    28.239536      26.256341    
     99250   198.5          309.83802      134478.74     -807629.55     -303.13274      0.3631404      0.057082871    28.27454       25.910925    
     99260   198.52         313.09257      133452.99     -807630.25     -302.81985      0.3631518      0.057022159    28.303301      25.565504    
     99270   198.54         316.30764      133274.66     -807631.05     -302.39609      0.36316306     0.056940597    28.260063      25.220086    
     99280   198.56         312.17627      132621.43     -807632.18     -300.72472      0.36317418     0.056624148    28.237425      24.874668    
     99290   198.58         308.60106      135085.09     -807629.22     -303.21839      0.36318516     0.057091962    28.232464      24.529249    
     99300   198.6          310.10503      134442.28     -807627.98     -304.78266      0.36319599     0.057384781    28.252391      24.183827    
     99310   198.62         316.99095      135169.82     -807628.74     -304.98538      0.36320668     0.057421259    28.28213       23.8384      
     99320   198.64         315.39066      133939.82     -807630.84     -302.85681      0.36321723     0.057018846    28.247012      23.492974    
     99330   198.66         304.19575      135716.28     -807627.89     -304.34909      0.36322763     0.057298157    28.240889      23.147547    
     99340   198.68         316.12423      132399.75     -807630.63     -303.51787      0.36323789     0.057140054    28.217536      22.802121    
     99350   198.7          311.58482      133483.7      -807630.35     -303.2132       0.36324801     0.057081105    28.238979      22.45669     
     99360   198.72         306.15296      131394.07     -807632.81     -300.25342      0.36325798     0.056522365    28.279264      22.111255    
     99370   198.74         305.94746      134354.8      -807629.98     -303.26302      0.36326781     0.057087373    28.30461       21.765816    
     99380   198.76         302.65183      132933.01     -807628.96     -304.10504      0.3632775      0.057244352    28.292764      21.420377    
     99390   198.78         312.17435      135333.67     -807630.4      -304.13076      0.36328704     0.057247689    28.338559      21.074932    
     99400   198.8          303.79095      133215.19     -807630.95     -302.72877      0.36329644     0.056982312    28.310056      20.729488    
     99410   198.82         308.94896      135192.79     -807629.41     -305.0846       0.3633057      0.057424285    28.343288      20.38404     
     99420   198.84         305.77941      132990.88     -807630.09     -304.35464      0.36331481     0.057285452    28.274942      20.038596    
     99430   198.86         305.14314      134579.06     -807631.08     -303.32515      0.36332378     0.057090271    28.239809      19.693152    
     99440   198.88         298.72282      131411.56     -807632.85     -300.85083      0.36333261     0.056623192    28.273529      19.347704    
     99450   198.9          306.60109      133357.77     -807631.9      -303.03815      0.36334129     0.057033506    28.315923      19.002252    
     99460   198.92         296.14317      132940.87     -807630.45     -303.27112      0.36334983     0.057076009    28.313387      18.656798    
     99470   198.94         306.17156      134300.76     -807631.49     -303.66278      0.36335823     0.057148401    28.306144      18.311344    
     99480   198.96         298.12514      133622.16     -807631.29     -302.93549      0.36336648     0.057010232    28.316948      17.965886    
     99490   198.98         304.85696      135304.29     -807630.39     -304.8553       0.3633746      0.057370245    28.284795      17.62043     
     99500   199            304.3492       134164.02     -807630.43     -304.86798      0.36338256     0.057371374    28.257437      17.274973    
     99510   199.02         297.76361      134468.87     -807630.4      -9729.7489      0.36339039     0.057217086    28.198525      16.929519    
     99520   199.04         293.22214      132924.15     -807631.93     -9664.0573      0.36339807     0.056829577    28.130686      16.584067    
     99530   199.06         305.47011      133153.39     -807632.16     -9713.2229      0.3634056      0.057117511    28.158934      16.238611    
     99540   199.08         298.05524      132606.75     -807631.64     -9703.548       0.363413       0.057059458    28.13983       15.893154    
     99550   199.1          295.88918      133676.84     -807631.13     -9710.6422      0.36342025     0.057100034    28.139659      15.547695    
     99560   199.12         308.32661      132419.49     -807634.16     -9672.9836      0.36342736     0.056877484    28.178541      15.202232    
     99570   199.14         303.21099      133769.57     -807631.31     -9744.1214      0.36343432     0.057294678    28.143735      14.856769    
     99580   199.16         303.67406      133608.68     -807631.1      -9756.3616      0.36344114     0.057365573    28.179861      14.511303    
     99590   199.18         292.84934      134145.94     -807630.4      -9730.7412      0.36344782     0.057213879    28.162224      14.165835    
     99600   199.2          297.07103      133253.44     -807632.4      -9688.0143      0.36345435     0.056961634    28.193011      13.820364    
     99610   199.22         291.76245      133695.62     -807631.12     -9707.8769      0.36346074     0.057077414    28.225902      13.474889    
     99620   199.24         298.76214      132860.95     -807631.68     -9721.875       0.36346699     0.057158733    28.23586       13.129412    
     99630   199.26         302.16188      132617.39     -807633.33     -9684.0977      0.3634731      0.05693567     28.215679      12.783934    
     99640   199.28         296.89987      133248.85     -807632.09     -9699.6096      0.36347906     0.057025934    28.199697      12.438455    
     99650   199.3          299.06363      132755.54     -807631.59     -9728.5747      0.36348487     0.057195309    28.257414      12.092972    
     99660   199.32         300.26738      134147.04     -807630.5      -9767.9285      0.36349055     0.057425778    28.28337       11.747486    
     99670   199.34         294.27191      133819.49     -807630.75     -9733.3604      0.36349608     0.057221681    28.243936      11.402       
     99680   199.36         286.29468      135029.15     -807630.36     -9708.4735      0.36350147     0.057074527    28.227794      11.056513    
     99690   199.38         299.32812      134053.39     -807631.76     -9722.7981      0.36350671     0.057157915    28.252625      10.711023    
     99700   199.4          302.81616      133252.88     -807631.13     -9756.1368      0.36351181     0.0573531      28.251382      10.365532    
     99710   199.42         303.8599       132325.28     -807634        -9668.2138      0.36351677     0.056835454    28.257152      10.020038    
     99720   199.44         303.75718      133000.66     -807633.97     -9666.7869      0.36352158     0.056826314    28.245937      9.6745437    
     99730   199.46         297.80768      132868.88     -807631.96     -9702.6746      0.36352625     0.057036548    28.252814      9.3290471    
     99740   199.48         302.56632      133601.95     -807631.13     -9748.9165      0.36353078     0.057307664    28.255652      8.9835487    
     99750   199.5          294.98757      133840.03     -807630.7      -9726.2901      0.36353516     0.057173968    28.185918      8.6380508    
     99760   199.52         296.70414      134353.95     -807631.17     -9714.1141      0.3635394      0.057101728    28.209819      8.2925503    
     99770   199.54         295.42076      135351.74     -807629.35     -9761.4807      0.3635435      0.057379513    28.237274      7.9470473    
     99780   199.56         295.41521      134768.28     -807629.18     -9759.5106      0.36354745     0.057367309    28.245394      7.6015423    
     99790   199.58         300.45366      133518.83     -807631.55     -9698.6133      0.36355126     0.057008751    28.232161      7.2560359    
     99800   199.6          305.08186      132999.58     -807632.82     -9668.6335      0.36355493     0.056831955    28.223925      6.910528     
     99810   199.62         303.86281      133311.54     -807631.03     -9711.9101      0.36355845     0.057085781    28.159492      6.5650198    
     99820   199.64         300.27746      133968.87     -807629.48     -9736.4683      0.36356183     0.0572296      28.132574      6.2195104    
     99830   199.66         313.43039      133805.29     -807631.88     -9707.6099      0.36356507     0.057059466    28.170035      5.8739981    
     99840   199.68         311.04879      134386.06     -807630.84     -9722.0388      0.36356816     0.05714379     28.164488      5.5284841    
     99850   199.7          314.31163      135077.99     -807630.06     -9756.1216      0.36357111     0.057343655    28.143291      5.1829686    
     99860   199.72         295.35504      135560.86     -807626.54     -9777.4701      0.36357392     0.057468692    28.169708      4.8374506    
     99870   199.74         310.61254      133924.07     -807630.78     -9704.1075      0.36357658     0.057037074    28.192338      4.4919303    
     99880   199.76         308.88652      133862.39     -807631.37     -9673.2038      0.3635791      0.056855039    28.226434      4.1464077    
     99890   199.78         310.38192      133629.5      -807630.55     -9704.1555      0.36358148     0.057036587    28.238219      3.8008832    
     99900   199.8          307.34929      133619.84     -807629.69     -9713.5388      0.36358371     0.057091387    28.219731      3.4553572    
     99910   199.82         321.85303      133178.95     -807633.23     -9662.2473      0.3635858      0.056789595    28.210651      3.1098296    
     99920   199.84         306.98871      134201.95     -807629.88     -9703.4365      0.36358775     0.057031379    28.220843      2.7643       
     99930   199.86         316.28226      134382.35     -807629.19     -9770.7477      0.36358955     0.057426711    28.263922      2.4187683    
     99940   199.88         316.07129      134651        -807629.65     -9755.7001      0.36359121     0.057338008    28.26241       2.0732349    
     99950   199.9          296.60507      135286.77     -807628.37     -9712.1633      0.36359273     0.057081888    28.2068        1.7277003    
     99960   199.92         299.3464       133626.75     -807629.69     -9685.4937      0.3635941      0.056924926    28.252249      1.3821636    
     99970   199.94         309.59783      133686.85     -807629.6      -9737.4682      0.36359533     0.057230204    28.269112      1.0366252    
     99980   199.96         302.56047      133241.44     -807630.11     -9695.3486      0.36359641     0.056982484    28.224849      0.69108519   
     99990   199.98         308.3407       133515.17     -807631.27     -9686.975       0.36359736     0.056933122    28.166782      0.34554354   
    100000   200            306.13987      132841.88     -807631.36     -9681.5468      0.36359816     0.056901094    28.175855      0            
Loop time of 3455.44 on 32 procs for 100000 steps with 1080 atoms

Performance: 5.001 ns/day, 4.799 hours/ns, 28.940 timesteps/s, 31.255 katom-step/s
71.1% CPU use with 32 MPI tasks x 1 OpenMP threads

MPI task timing breakdown:
Section |  min time  |  avg time  |  max time  |%varavg| %total
---------------------------------------------------------------
Pair    | 2515.6     | 2794.6     | 3251.9     | 276.0 | 80.88
Neigh   | 0.0016434  | 0.0017754  | 0.0019644  |   0.2 |  0.00
Comm    | 129.51     | 586.36     | 865.05     | 602.6 | 16.97
Output  | 2.4715     | 2.4833     | 2.4948     |   0.4 |  0.07
Modify  | 65.012     | 65.744     | 66.406     |   5.1 |  1.90
Other   |            | 6.224      |            |       |  0.18

Nlocal:          33.75 ave          43 max          24 min
Histogram: 2 2 1 6 3 6 4 5 2 1
Nghost:        1052.88 ave        1069 max        1040 min
Histogram: 2 4 4 4 3 7 4 1 2 1
Neighs:              0 ave           0 max           0 min
Histogram: 32 0 0 0 0 0 0 0 0 0
FullNghs:      5318.62 ave        6849 max        3753 min
Histogram: 2 2 1 6 3 6 4 5 2 1

Total # of neighbors = 170196
Ave neighs/atom = 157.58889
Neighbor list builds = 4
Dangerous builds = 0

Total wall time: 1:01:06
