
units		metal
atom_style	atomic

read_data ${STRUCTURE}.data
read_data BaTiO3-sc333.data
Reading data file ...
  orthogonal box = (0 0 0) to (11.898253 11.898253 12.912076)
  2 by 4 by 4 MPI processor grid
  reading atoms ...
  135 atoms
  read_data CPU = 0.010 seconds
replicate $L $L $L
replicate 2 $L $L
replicate 2 2 $L
replicate 2 2 2
Replication is creating a 2x2x2 = 8 times larger system...
  orthogonal box = (0 0 0) to (23.796507 23.796507 25.824152)
  2 by 4 by 4 MPI processor grid
  1080 atoms
  replicate CPU = 0.005 seconds

pair_style allegro
pair_coeff	* * ${MODEL}.pth Ba Ti O
pair_coeff	* * BaTiO3-E0.pth Ba Ti O
mass 1 137.3
mass 2 47.9
mass 3 15.9994

timestep 0.002
compute polarization all allegro polarization 3
compute allegro will evaluate the quantity polarization of length 3 (src/compute_allegro.cpp:53)
compute polarizability all allegro polarizability 9
compute allegro will evaluate the quantity polarizability of length 9 (src/compute_allegro.cpp:53)

thermo_style custom pe fmax fnorm spcpu cpuremain

variable efield equal 1e-2*36.36
fix born all addbornforce 0.0 0.0 ${efield}
fix born all addbornforce 0.0 0.0 0.3636

thermo 10
min_style fire
#minimize 0.0 1e-6 100 100
velocity all create ${TEMP} ${SEED} dist gaussian rot yes mom yes
velocity all create 300 ${SEED} dist gaussian rot yes mom yes
velocity all create 300 20063 dist gaussian rot yes mom yes
fix nvt all nvt temp ${TEMP} ${TEMP} $(100*dt)
fix nvt all nvt temp 300 ${TEMP} $(100*dt)
fix nvt all nvt temp 300 300 $(100*dt)
fix nvt all nvt temp 300 300 0.2000000000000000111
run 5000
Neighbor list info ...
  update: every = 1 steps, delay = 0 steps, check = yes
  max neighbors/atom: 2000, page size: 100000
  master list distance cutoff = 8
  ghost atom cutoff = 8
  binsize = 8, bins = 3 3 4
  1 neighbor lists, perpetual/occasional/extra = 1 0 0
  (1) pair allegro/kk, perpetual
      attributes: full, newton on, kokkos_device
      pair build: full/bin/kk/device
      stencil: full/bin/3d
      bin: kk/device
Per MPI rank memory allocation (min/avg/max) = 3.516 | 3.516 | 3.516 Mbytes
    PotEng          Fmax          Fnorm          S/CPU         CPULeft    
-807708.29      1.5957371      37.04296       0              0            
-807647.28      3.1110176      44.994929      2.3052516      2164.6237    
-807636.77      2.5600182      35.126828      25.911283      1176.24      
-807609.52      3.3321774      36.560776      25.899354      846.55088    
-807604.63      4.3052146      49.615392      25.884428      681.54091    
-807568.27      3.6943494      39.632567      25.863061      582.4121     
-807602.84      3.0326789      38.088294      25.905287      516.14532    
-807647.46      3.3945395      32.822719      25.90643       468.70047    
-807684.48      2.7270945      33.439301      25.873277      433.05073    
-807668.67      3.4906055      33.920196      25.858278      405.24948    
-807654.21      3.5749803      34.77765       25.910125      382.89326    
-807661.98      2.7160306      27.390576      25.917456      364.52676    
-807629.74      3.9126768      30.837262      25.889987      349.17371    
-807586.63      3.3500711      40.544855      25.865222      336.13706    
-807569.32      3.9406514      38.698726      25.93077       324.87364    
-807633.5       3.863972       33.950386      25.911675      315.06979    
-807653.93      3.3876238      31.025519      25.871924      306.46111    
-807664.87      3.0318429      34.201152      25.914625      298.80165    
-807647.88      5.1562832      44.687449      25.897606      291.95716    
-807681.9       2.7235135      35.903413      25.896027      285.7931     
-807643.37      3.7255845      38.874335      25.879715      280.21266    
-807618.9       2.7950921      37.987937      25.90088       275.11969    
-807563.95      4.2881451      44.977072      25.920949      270.44812    
-807606.49      3.9565845      48.853997      25.861466      266.16762    
-807614.88      4.9098088      38.119535      25.859766      262.21212    
-807643.27      3.1565117      34.703199      25.89024       258.53348    
-807644.71      4.5831313      44.104288      25.923038      255.09919    
-807684.07      3.3390844      36.579725      25.853056      251.90901    
-807665.68      3.5994684      33.648596      25.789689      248.93509    
-807639.84      2.9499876      31.140342      25.902881      246.11201    
-807611.01      3.8136419      31.916719      25.918354      243.44778    
-807606.38      3.2387125      40.753528      25.898585      240.93501    
-807599.1       3.3158442      35.61932       25.808255      238.57491    
-807609.42      3.0566349      32.203084      25.90859       236.31314    
-807645.3       3.346471       28.776512      25.912158      234.16098    
-807674.04      2.8331281      31.388839      25.889692      232.11418    
-807679.31      3.2855751      31.847361      25.855815      230.16618    
-807644.33      4.4660093      38.962246      25.914475      228.29161    
-807650.96      3.1563216      30.127466      25.93038       226.4925     
-807621.59      3.7948913      33.822345      25.908871      224.76967    
-807602.77      3.6160081      42.959925      25.904817      223.11438    
-807570.44      3.6168565      41.416047      25.948896      221.51366    
-807626.7       3.348395       35.533626      25.930906      219.97373    
-807650.64      3.4519594      34.833914      25.912847      218.49034    
-807674.62      2.5500575      34.451391      25.886752      217.06087    
-807642.59      4.6046064      45.514394      25.925183      215.67198    
-807669.13      2.6278502      34.212866      25.909978      214.32893    
-807647.59      3.2687423      34.295673      25.919241      213.02528    
-807624.58      3.2217645      36.241862      25.930211      211.75834    
-807568.79      3.4417814      40.937878      25.934842      210.52674    
-807604.66      3.3257182      41.736211      25.938629      209.32847    
-807626.43      3.1347579      33.632207      25.907193      208.16619    
-807655.08      2.570715       31.360364      25.922441      207.03181    
-807646.49      4.3980677      39.407872      25.929666      205.92478    
-807673.32      3.4955679      33.397754      25.915516      204.8462     
-807668.91      2.9386143      32.053671      25.871896      203.79807    
-807642.37      3.9686765      30.419545      25.914095      202.76858    
-807604.2       3.096536       33.787496      25.951158      201.7574     
-807597.72      4.1855128      38.361694      25.928582      200.77035    
-807608.56      3.9659035      38.622196      25.863825      199.8109     
-807619.65      4.3439365      32.583602      25.912074      198.86527    
-807640.79      3.2631457      31.655014      25.936745      197.93534    
-807664.83      3.606333       33.773817      25.921794      197.02455    
-807676.59      2.6222631      34.825644      25.882012      196.13454    
-807647.4       4.6044649      37.603008      25.893175      195.25913    
-807636.89      2.9005598      32.383194      25.959768      194.39214    
-807614.91      3.7087186      34.906079      25.934466      193.54223    
-807606.05      4.0827908      43.935029      25.90769       192.70875    
-807581.01      4.754804       40.235861      25.927887      191.88653    
-807619.22      3.4619228      35.746913      25.936355      191.07617    
-807648.09      3.9497518      35.600901      25.932155      190.27833    
-807673.97      3.1417906      35.33173       25.945261      189.49092    
-807649.41      4.094569       41.414343      25.923136      188.71664    
-807656.26      2.7949016      34.035259      25.936867      187.9518     
-807645.5       3.8636238      32.977815      25.920874      187.19859    
-807624.27      3.3452851      35.795886      25.902661      186.45671    
-807578.87      3.5242593      38.480758      25.919846      185.72277    
-807594.27      3.0418537      38.322714      25.928013      184.9972     
-807629.29      3.3103848      31.490598      25.919635      184.28102    
-807659         3.0522463      31.092927      25.922765      183.57296    
-807651.27      3.670746       36.538531      25.929291      182.87245    
-807660.79      2.916401       35.206694      25.859803      182.18507    
-807666.87      2.525763       32.402584      25.882391      181.5033     
-807642.94      3.3832651      32.094862      25.923821      180.82555    
-807604.4       2.9057858      35.498885      25.936256      180.15384    
-807587.43      3.7752933      38.117068      25.921179      179.48995    
-807608.37      3.8211732      39.214119      25.868264      178.83633    
-807627.75      3.348512       32.432329      25.888461      178.18742    
-807642.01      3.259335       32.785786      25.926708      177.54181    
-807655.58      3.5359915      35.71252       25.920377      176.90247    
-807673.83      2.701305       34.345173      25.858356      176.27298    
-807653.35      4.0924408      34.986187      25.870083      175.64805    
-807632.08      3.0662796      33.10044       25.924134      175.02472    
-807607.93      3.0916407      34.44508       25.949886      174.40482    
-807605.56      4.0301079      42.163815      25.940324      173.79053    
-807596.13      4.165279       36.811723      25.895094      173.18393    
-807619.02      3.359084       34.530945      25.939168      172.57915    
-807644.24      5.312075       34.593178      25.955973      171.97786    
-807670.32      2.8353794      34.882879      25.900827      171.38434    
-807658.56      3.8826751      36.565844      25.835459      170.79897    
-807648.05      3.6545081      34.273603      25.891479      170.21422    
-807636.71      3.7627702      32.790696      25.943313      169.63035    
-807623.31      3.6253694      36.056487      25.921867      169.05162    
-807591.64      3.3678954      37.913341      25.88816       168.47856    
-807593.69      3.0892742      37.137187      25.922398      167.90716    
-807628.45      2.7506413      31.220465      25.924815      167.33916    
-807659.4       2.7315682      31.249058      25.884823      166.77681    
-807659.42      3.2168246      33.566703      25.923707      166.21562    
-807652.69      4.2100738      35.543083      25.93321       165.65717    
-807659.1       3.2128547      31.061464      25.920342      165.10258    
-807642.92      3.2071429      31.218371      25.922351      164.55095    
-807609.76      3.543175       34.86155       25.934822      164.00166    
-807582.12      3.4894793      38.525506      25.849382      163.4597     
-807609.37      3.5930382      36.708178      25.897894      162.91801    
-807635.13      3.4249637      32.135049      25.91309       162.37828    
-807650.99      4.4192344      32.501337      25.927232      161.84053    
-807647.83      4.0095254      37.73231       25.940944      161.30472    
-807669.56      3.4563231      33.458616      25.875598      160.77466    
-807654.53      3.7775115      33.997162      25.895346      160.24609    
-807632.7       2.9258428      31.940994      25.909915      159.71921    
-807596.57      3.7476834      36.10796       25.962864      159.19219    
-807604.34      3.6063028      39.541446      25.925434      158.66926    
-807608.38      3.9290863      35.069753      25.834224      158.1528     
-807628.51      3.2593395      31.604543      25.907168      157.6351     
-807640.46      4.1065885      34.664555      25.944846      157.11782    
-807668.24      2.7094437      32.989328      25.879021      156.60559    
-807662.27      3.3861116      33.987839      25.868922      156.09581    
-807647.05      3.0826679      32.42684       25.946717      155.58457    
-807626.13      3.4941275      32.535948      25.946938      155.07528    
-807617.43      3.3410352      35.323471      25.951024      154.56774    
-807600.47      3.2970392      37.561348      25.87017       154.0655     
-807600.84      2.8169751      35.170311      25.918522      153.563      
-807626.12      4.0102501      32.337943      25.876641      153.06401    
-807656.54      2.9079926      32.315492      25.90811       152.56542    
-807664.07      2.9373686      33.565112      25.843965      152.07112    
-807649.91      3.8912575      36.029787      25.899974      151.57616    
-807648.7       2.752707       32.667597      25.902327      151.0827     
-807638.18      3.1866498      32.051042      25.921623      150.59004    
-807614.63      3.5019323      36.116832      25.916767      150.09913    
-807583.97      4.1027669      38.815015      25.937471      149.60892    
-807608.84      3.7149641      35.94895       25.940108      149.12011    
-807636.77      3.0901269      32.740273      25.916753      148.63365    
-807656.31      3.0906579      33.083626      25.888829      148.14966    
-807647.31      3.5107153      37.225386      25.938627      147.66518    
-807660.91      4.1116761      33.145194      25.959479      147.18131    
-807651.25      3.5518347      32.844102      25.940455      146.69949    
-807633.9       3.2605983      32.257871      25.897107      146.22056    
-807595.37      3.63806        36.031855      25.905987      145.74257    
-807598.36      3.0587364      37.941156      25.959315      145.26394    
-807615.85      3.1410724      35.37517       25.907787      144.78837    
-807638.67      2.9211203      31.897084      25.912321      144.31383    
-807641.39      3.9027397      36.092409      25.858681      143.84232    
-807660.46      3.2771778      33.955927      25.981228      143.36775    
-807661.27      2.923408       34.045689      25.930181      142.89607    
-807646.51      2.8502971      32.402225      25.928458      142.42556    
-807617.45      3.6858215      33.548258      25.935902      141.9559     
-807605.98      2.8752042      36.750289      25.914586      141.48802    
-807604.88      3.2492141      37.800308      25.881725      141.02226    
-807613.9       2.9580913      34.285271      25.920131      140.55626    
-807627.3       3.1435904      33.476598      25.869305      140.09289    
-807652.84      3.25422        33.056046      25.922003      139.62881    
-807663.89      2.6959715      33.73262       25.912611      139.16601    
-807653.35      3.8844592      34.401567      25.909217      138.70425    
-807637.99      3.1214802      32.465684      25.922717      138.24301    
-807627.64      3.0239422      32.026639      25.934319      137.78234    
-807613.07      3.8942539      37.059062      25.916439      137.32312    
-807596.97      3.7119258      36.485285      25.930341      136.86436    
-807610.22      2.7368293      34.537554      25.953141      136.40581    
-807637.86      3.6247922      31.856498      25.954689      135.94808    
-807659.05      2.7876502      32.844297      25.898072      135.49286    
-807654.93      3.7702131      34.683331      25.91733       135.0379     
-807649.61      2.703081       33.916939      25.919249      134.58368    
-807645.47      3.1793342      31.66257       25.909582      134.13054    
-807632.81      3.3147531      32.781267      25.931008      133.67758    
-807600.89      2.8467099      35.53411       25.882329      133.22674    
-807598.11      3.367242       36.295396      25.946886      132.77486    
-807620.39      3.0997217      33.375489      25.905345      132.32487    
-807645.29      4.0752179      31.737938      25.947079      131.87447    
-807649.53      3.767681       33.1963        25.942829      131.42491    
-807654.88      3.9504626      33.461133      25.916997      130.97676    
-807658         2.8994007      32.622594      25.888876      130.53004    
-807647         2.709457       31.426116      25.924097      130.08307    
-807619.86      3.1087952      32.606435      25.953475      129.63601    
-807599.87      3.1613033      35.466517      25.942678      129.18991    
-807608.73      2.9966571      35.333805      25.910633      128.74528    
-807624.91      2.5094542      32.364946      25.914426      128.30118    
-807636.77      2.8290391      31.541866      25.913188      127.85775    
-807650.57      3.6814217      31.996494      25.917921      127.41481    
-807663.06      3.4509703      32.292692      25.851398      126.97413    
-807655.58      2.933197       32.446881      25.923191      126.53225    
-807636.58      3.0075316      32.069059      25.906999      126.09136    
-807617.83      2.8986129      32.692094      25.880883      125.65168    
-807610.54      3.5251036      36.126383      25.909849      125.21185    
-807607.84      3.3239361      35.308734      25.920924      124.77233    
-807617.53      3.0734197      32.918642      25.91687       124.33345    
-807636.83      2.3054035      31.602396      25.933281      123.89473    
-807658.54      2.6946367      32.768217      25.881075      123.45776    
-807656.09      2.9972933      34.035877      25.85877       123.02182    
-807645.95      3.35316        33.28324       25.922243      122.58493    
-807634.3       4.0457621      33.26944       25.926031      122.14847    
-807625.22      3.4056884      34.310898      25.917138      121.71272    
-807605.6       3.5048029      36.314431      25.88992       121.27806    
-807601.67      2.6640568      35.811316      25.903817      120.84358    
-807620.98      3.642413       33.188546      25.946331      120.40865    
-807646.04      3.903536       32.371536      25.878268      119.97568    
-807652.02      3.1356601      33.111625      25.852205      119.54372    
-807649.68      3.758027       33.97691       25.918949      119.11078    
-807647         3.1954949      33.178483      25.935864      118.67794    
-807642.06      3.0971517      31.194163      25.927566      118.24572    
-807618.13      3.0509371      33.65997       25.9118        117.81428    
-807598.3       3.4315616      36.403814      25.94415       117.38261    
-807608.8       3.2289754      35.794365      25.933013      116.9516     
-807629.09      2.8160287      33.763307      25.859059      116.52252    
-807641.93      2.8210452      33.242655      25.890135      116.09321    
-807644.95      3.2493044      35.532785      25.886348      115.66437    
-807655.34      3.4864509      33.836908      25.893539      115.2358     
-807650         2.7302741      33.817926      25.887256      114.80773    
-807635.87      2.7511536      32.261282      25.91938       114.37943    
-807608.51      4.3866287      34.568531      25.941926      113.95108    
-807607.84      3.0013435      35.840238      25.93059       113.52335    
-807612.81      2.8353324      34.953641      25.88034       113.09694    
-807628.65      2.9407974      32.502048      25.913986      112.67027    
-807636.45      3.0987303      33.632759      25.906924      112.24409    
-807655.8       3.8596808      32.948458      25.894068      111.81852    
-807656.46      3.437852       33.699359      25.880803      111.39354    
-807646.83      3.2998427      32.437013      25.897342      110.9686     
-807627.48      3.5107693      32.822221      25.954454      110.54297    
-807617.21      2.9671902      34.081781      25.887429      110.1189     
-807611.32      3.7225694      35.238402      25.861348      109.69562    
-807610.59      2.7495033      34.754759      25.917142      109.27168    
-807623.95      3.2452016      32.650315      25.956063      108.8474     
-807647.55      2.656313       32.312832      25.917114      108.42412    
-807657.52      3.6470986      32.817382      25.871726      108.00195    
-807650.28      3.3275361      34.64956       25.878825      107.57996    
-807641.44      3.3741714      33.773526      25.931707      107.15738    
-807634.58      2.6770171      32.465898      25.968529      106.7345     
-807618.46      2.8511316      34.129004      25.936428      106.31247    
-807605         2.7185016      35.095644      25.959616      105.89037    
-807609.56      3.0025268      34.602974      25.955597      105.46864    
-807635.72      2.4868903      31.159796      25.951274      105.04729    
-807648.39      2.5547542      32.199992      25.934549      104.62651    
-807651.03      3.2289716      33.153457      25.88933       104.20675    
-807650.53      3.0152882      33.587274      25.894616      103.78717    
-807647.78      2.5375821      31.320055      25.879648      103.36811    
-807632.72      2.4718631      31.726088      25.853601      102.94972    
-807608.24      3.12679        34.232447      25.903704      102.53082    
-807605.24      3.5426466      34.926684      25.934963      102.1117     
-807618.01      3.6007968      33.678238      25.924266      101.69301    
-807636.35      2.769673       31.999692      25.909399      101.27482    
-807641.88      4.2351972      33.581951      25.885693      100.85724    
-807653.14      3.2479258      32.496613      25.899201      100.43971    
-807654.33      3.2692768      33.035143      25.931379      100.02195    
-807645.44      2.8998124      32.018631      25.884865      99.605131    
-807621.01      2.7723545      32.928607      25.899768      99.188336    
-807609.9       3.3655015      35.334876      25.886086      98.77198     
-807608.98      3.0159286      35.558533      25.910689      98.355508    
-807618.04      3.2175607      34.328226      25.920417      97.939136    
-807627.51      3.3835449      33.523823      25.873774      97.523659    
-807646.03      2.9029875      33.427063      25.908171      97.107926    
-807652.77      3.399338       33.845453      25.916828      96.692303    
-807651.17      3.7779544      33.22527       25.917339      96.276902    
-807635.74      4.3734718      33.385908      25.940488      95.861412    
-807625.17      2.9549748      32.411073      25.92183       95.446402    
-807613.69      2.9177721      34.966105      25.916762      95.031684    
-807608.23      2.6975743      35.972982      25.91415       94.617219    
-807613.79      2.5340676      33.81271       25.930843      94.202748    
-807632.9       2.6879568      32.573929      25.929322      93.788515    
-807648.5       3.0439337      33.687876      25.891666      93.374986    
-807650.51      3.0829084      34.076421      25.899286      92.961561    
-807644.77      3.2999921      34.038731      25.892569      92.548425    
-807638.23      3.5126075      33.392437      25.909315      92.135277    
-807628.27      2.514061       33.007075      25.873204      91.722784    
-807609.7       3.3592051      34.62881       25.883751      91.310351    
-807604.49      3.1838517      35.618051      25.885496      90.898086    
-807619.72      3.2230493      34.537369      25.917522      90.485618    
-807639.01      3.3217433      33.320711      25.915543      90.073367    
-807645.77      3.5098996      34.334851      25.918113      89.661277    
-807648.2       3.0622072      34.559874      25.925509      89.249287    
-807646.97      3.2083474      34.631055      25.926237      88.837478    
-807642.92      3.7521194      32.84035       25.932548      88.425781    
-807620.54      3.4515799      34.335685      25.931092      88.014289    
-807606.27      3.2644575      36.3462        25.921581      87.603089    
-807610.96      3.7308244      35.410531      25.922149      87.192064    
-807626.63      2.7722076      33.547479      25.923655      86.7812      
-807634.9       3.1387336      33.343081      25.913268      86.370631    
-807645.86      2.8465975      33.351808      25.894265      85.960448    
-807652.63      3.5883042      33.943515      25.881884      85.550572    
-807651.08      3.313144       32.756794      25.95363       85.140066    
-807632.94      3.98451        33.139289      25.966503      84.729595    
-807620.7       3.4823273      33.895789      25.957503      84.319397    
-807611.99      3.1226851      34.828791      25.977952      83.909151    
-807615.69      3.3740067      34.814663      25.931257      83.499578    
-807623.03      4.0395893      33.262632      25.929608      83.090186    
-807636.76      3.3028994      32.410144      25.903624      82.681228    
-807651.16      2.9338138      32.732883      25.883386      82.272639    
-807651.58      3.269584       33.25222       25.887761      81.864154    
-807644.27      2.6303564      33.50958       25.884191      81.455857    
-807631.24      3.8218691      33.768689      25.91157       81.047428    
-807624.69      3.1679355      33.942175      25.891333      80.639355    
-807611.32      3.5041716      35.644946      25.940446      80.230936    
-807612.71      3.7832709      35.601335      25.957258      79.822504    
-807624.35      3.8441448      33.856325      25.978065      79.414022    
-807644.05      3.3127827      33.203479      25.939088      79.006074    
-807648.5       3.2218524      34.121966      25.90137       78.598641    
-807648.15      3.8701212      33.908938      25.883367      78.191519    
-807641.91      4.8631483      34.083325      25.903039      77.784348    
-807635.94      3.1659141      33.475749      25.92635       77.377094    
-807618.42      3.943357       34.926119      25.890458      76.970317    
-807607.57      3.1492416      35.973528      25.946839      76.563149    
-807612.34      3.3624774      35.330498      25.945292      76.156137    
-807631.26      3.1607116      33.581954      25.931214      75.749393    
-807643.55      2.9307563      31.95145       25.908424      75.34299     
-807646.71      3.5135296      33.352557      25.886938      74.936911    
-807649.02      2.9043944      33.446283      25.862413      74.531177    
-807645.61      2.9460398      32.831066      25.8902        74.12532     
-807631.93      3.1711303      32.571985      25.905883      73.719449    
-807613.01      2.8659783      34.305463      25.969395      73.313154    
-807608.36      3.5473651      35.889472      25.981256      72.906892    
-807617.05      3.9847625      35.165473      25.927706      72.501219    
-807631.15      3.0488389      33.130211      25.955465      72.095437    
-807636.5       3.471086       34.030413      25.894522      71.690294    
-807649.2       3.7344151      33.70404       25.874924      71.285432    
-807649.72      2.9676379      34.224646      25.914206      70.88036     
-807642.01      3.2441077      33.091638      25.888993      70.475613    
-807623.31      3.5936047      34.590022      25.896597      70.070918    
-807614.98      3.0452793      35.354419      25.911519      69.666218    
-807610.44      3.5193925      36.167865      25.881528      69.261872    
-807616.55      3.2272332      36.170042      25.863632      68.857777    
-807626.37      3.1923621      34.643615      25.926397      68.453297    
-807643.78      3.5587414      34.180051      25.896854      68.04916     
-807650.58      3.2871012      34.486134      25.864169      67.645384    
-807647.22      2.9655279      34.510278      25.876781      67.241615    
-807635.76      3.8643409      34.887374      25.897009      66.837798    
-807627.82      3.133189       33.777279      25.942194      66.43375     
-807616.52      3.8526398      35.152471      25.907299      66.030071    
-807607.96      3.1189024      35.913218      25.917184      65.626425    
-807613.48      4.2794747      35.115378      25.902636      65.22299     
-807635.09      3.4648455      32.582639      25.935268      64.819424    
-807645.91      3.9036035      33.016705      25.900968      64.416209    
-807648.2       3.0804173      33.704881      25.912752      64.013012    
-807646.07      3.6881721      33.657789      25.917794      63.609881    
-807640.48      2.7763761      33.071259      25.92174       63.206824    
-807629.15      2.9696279      32.947153      25.930505      62.803808    
-807610.72      2.7375697      34.998959      25.934892      62.400863    
-807610.36      2.5000604      34.399267      25.94501       61.997951    
-807620.28      3.1535376      34.357081      25.925946      61.595268    
-807636.93      2.6462818      32.759851      25.883985      61.192961    
-807642.67      3.9811888      33.662126      25.877309      60.79079     
-807649.23      3.3623168      32.96237       25.91679       60.388453    
-807646.41      4.6971472      34.259917      25.884308      59.986419    
-807640.7       2.8454383      32.498097      25.892649      59.584422    
-807623.5       3.8335755      33.000585      25.980775      59.181959    
-807612.4       2.9343174      34.152788      25.935348      58.779878    
-807612.89      3.4356833      34.72712       25.92827       58.377936    
-807624.39      3.3899958      33.816575      25.928904      57.976081    
-807633.77      3.818957       32.558888      25.931994      57.574299    
-807643.88      3.4603224      32.762321      25.911533      57.17273     
-807651.02      3.7536297      33.143182      25.844743      56.771649    
-807646.68      2.7657844      33.2816        25.840559      56.370671    
-807634.27      3.5155641      33.213287      25.894232      55.969457    
-807622.5       2.8326155      33.52419       25.929063      55.568124    
-807615.79      2.7650947      34.717795      25.951636      55.166749    
-807613.85      3.0697717      35.309197      25.912105      54.765687    
-807621.75      2.79378        33.608941      25.901132      54.36477     
-807635.63      3.8401382      32.749019      25.92711       53.963789    
-807647.62      2.9150279      32.549586      25.885927      53.56312     
-807650.56      3.766811       32.557565      25.899051      53.162457    
-807641.21      3.9867008      33.49351       25.887832      52.761934    
-807634.3       3.3014942      32.269587      25.881215      52.361524    
-807624.22      3.2171829      33.86564       25.89899       51.961096    
-807614.11      3.1825517      35.112585      25.900433      51.560738    
-807612.14      3.879126       34.881167      25.91014       51.160406    
-807624.61      3.2962146      33.760134      25.916739      50.760118    
-807641.75      3.940529       32.787286      25.907712      50.359953    
-807645.8       3.4352602      34.346425      25.911692      49.959844    
-807645.74      3.8421886      33.762233      25.883334      49.559951    
-807642.29      2.7354766      32.999232      25.91664       49.159966    
-807635.99      3.374156       32.611798      25.97625       48.759768    
-807618.79      2.5368598      34.113743      25.958034      48.359738    
-807610.82      3.084244       35.332978      25.957992      47.959786    
-807615.92      3.1644111      34.135583      25.953724      47.559931    
-807628.89      3.5088244      33.663899      25.92159       47.160302    
-807637.11      3.6516882      33.673581      25.954501      46.760594    
-807645.39      2.8823327      33.616855      25.954745      46.360961    
-807644.83      4.7392917      34.713251      25.886414      45.961709    
-807643.16      3.2335775      33.045062      25.894349      45.562489    
-807629.33      4.0425937      33.978538      25.939215      45.16314     
-807617.75      3.3234024      34.877888      25.939788      44.763859    
-807612.83      3.1704954      35.549063      25.935413      44.364669    
-807617.05      3.0260288      34.827069      25.923209      43.9656      
-807628.18      2.8832783      33.365076      25.880284      43.56678     
-807637.65      2.6803906      33.888677      25.858041      43.168116    
-807645.18      3.2204543      34.181397      25.899183      42.769344    
-807646.44      3.7075715      34.379552      25.862548      42.370785    
-807640.17      2.9252132      33.671648      25.910632      41.972093    
-807627.07      2.8603171      34.242991      25.902462      41.573498    
-807618.4       3.0909355      34.755176      25.912775      41.174927    
-807613.17      3.3354412      36.362388      25.863403      40.77661     
-807617.3       3.5568769      35.21439       25.899028      40.378216    
-807626.83      3.1123349      35.027943      25.930284      39.979765    
-807640.72      4.3676225      34.332392      25.925153      39.581397    
-807646.47      2.7263949      34.046016      25.856047      39.183347    
-807645.23      3.1125481      33.887607      25.926077      38.785099    
-807637.42      3.335071       34.206922      25.948894      38.386831    
-807630.26      2.8143222      33.445598      25.968835      37.988556    
-807619.77      3.3110926      34.432643      25.934986      37.590465    
-807613.12      4.091933       35.944745      25.927171      37.192462    
-807617.81      3.9929792      35.193702      25.983793      36.794328    
-807630.79      3.4170947      34.004772      25.92919       36.396441    
-807641.63      3.0521449      34.060076      25.922801      35.998635    
-807646.32      3.0656054      33.775812      25.92758       35.600873    
-807643.04      3.8972061      35.122673      25.917433      35.203202    
-807640.04      2.738227       33.198779      25.921388      34.805576    
-807631.27      3.0950658      33.046271      25.931017      34.407977    
-807614.93      3.369794       35.640332      25.914567      34.010486    
-807616.49      2.782692       35.100532      25.941202      33.612971    
-807622.56      3.5697171      34.474824      25.914731      33.215592    
-807634.44      3.3123649      32.736144      25.924242      32.818241    
-807641.16      3.4812202      33.592855      25.871637      32.421099    
-807644.52      3.5214716      34.415794      25.911866      32.023892    
-807645.13      3.689841       33.999025      25.926833      31.626696    
-807636.16      3.3236137      33.020744      25.95698       31.229471    
-807624.23      4.0074207      34.044232      25.957117      30.832302    
-807617.42      4.1043317      35.302488      25.97144       30.43515     
-807618.27      3.5073897      34.994081      25.875228      30.038313    
-807625.12      4.1440946      34.953863      25.89307       29.641477    
-807634.78      2.8118391      33.458532      25.922552      29.244615    
-807642.32      3.1874453      34.696142      25.925439      28.847797    
-807646.1       2.6852757      34.274962      25.932079      28.451015    
-807643.31      3.0776059      33.767854      25.913826      28.05433     
-807633.23      3.0507249      33.693265      25.935475      27.657642    
-807624.99      4.3584127      35.064254      25.928317      27.261023    
-807617.8       3.0075501      35.435389      25.927162      26.864458    
-807617.21      3.7057359      35.313107      25.93136       26.467933    
-807623.22      3.1300936      34.400367      25.896574      26.071537    
-807635.13      3.7044117      34.02593       25.893534      25.675194    
-807643.58      3.6277037      34.444281      25.893258      25.278899    
-807644.19      3.1196626      35.355545      25.902964      24.88263     
-807641.55      3.0234331      34.113982      25.930134      24.486349    
-807634.14      3.6980048      33.986272      25.888553      24.090203    
-807625.74      3.0666247      33.320955      25.878352      23.694123    
-807615.61      3.6155828      35.051887      25.898799      23.298046    
-807616.55      3.7579749      34.932457      25.89663       22.902018    
-807626.58      2.748575       34.028701      25.92359       22.505983    
-807636.87      2.9108188      33.019054      25.921501      22.109999    
-807641.75      2.9960533      33.698403      25.897515      21.714104    
-807642.48      3.2060684      34.901778      25.929223      21.318196    
-807641.77      2.9795979      34.067963      25.928049      20.922336    
-807632         3.2054778      34.796561      25.924557      20.526527    
-807619.01      3.3577236      35.425014      25.918616      20.130773    
-807615.6       4.0419347      35.320752      25.928486      19.735047    
-807617.98      2.9949938      35.085033      25.949675      19.339331    
-807627.89      2.906191       33.685822      25.921403      18.943706    
-807635.17      3.570022       33.568379      25.888066      18.548176    
-807640.75      3.4872851      34.391703      25.864445      18.152722    
-807644.16      3.5283403      34.043208      25.892888      17.757265    
-807638.25      3.0094888      33.752091      25.856538      17.361901    
-807629.56      3.4350549      33.401043      25.879438      16.966543    
-807617.69      2.9053158      35.605358      25.872049      16.571233    
-807616.73      3.1531644      35.5554        25.889283      16.175939    
-807619.27      3.2579078      34.100717      25.875448      15.780703    
-807628.79      2.7181602      32.866915      25.864609      15.385518    
-807636.1       2.8069204      33.157399      25.866693      14.990367    
-807643.05      2.9207101      33.880832      25.911552      14.5952      
-807644.48      2.7431036      32.812006      25.898564      14.200088    
-807637.83      3.0643473      33.695718      25.88822       13.805026    
-807628.74      2.6803151      33.364725      25.916209      13.409972    
-807621.74      3.2876847      34.374348      25.926481      13.014946    
-807616.99      2.7274378      34.843159      25.909081      12.619977    
-807621.14      3.0867037      34.244795      25.86182       12.225094    
-807627.71      3.0357425      33.888513      25.857388      11.830249    
-807640.56      2.7121365      32.464066      25.885258      11.435414    
-807641.87      2.8713917      33.968088      25.936306      11.040569    
-807642.63      2.8062684      32.552959      25.911012      10.645785    
-807637.59      3.335147       32.985245      25.95556       10.251003    
-807631.28      2.6057067      32.316906      25.944376      9.8562685    
-807621.51      3.6788255      33.943251      25.91256       9.4615974    
-807618.77      3.5074389      34.41037       25.873709      9.0669909    
-807622.22      2.8487773      33.920711      25.861105      8.6724271    
-807632.27      2.8629728      32.678358      25.902064      8.2778694    
-807639.42      3.0012526      33.331069      25.894134      7.8833519    
-807641.84      3.2120939      33.021836      25.918109      7.488855     
-807642.64      2.8225851      33.634485      25.900209      7.094404     
-807638.37      2.7101804      33.576056      25.88815       6.6999939    
-807629.26      3.1659182      33.53314       25.923595      6.3056       
-807620.38      3.4928419      34.929818      25.89588       5.9112545    
-807619.96      2.8592793      34.753886      25.934272      5.5169262    
-807624.92      2.9116298      34.211884      25.919981      5.1226395    
-807634.39      2.9362847      32.818226      25.917119      4.7283885    
-807639.05      3.4693128      33.847178      25.944761      4.3341627    
-807643.34      3.0543097      33.490738      25.925265      3.9399788    
-807642.93      3.0643155      33.397386      25.902851      3.5458353    
-807636.37      3.311096       33.742659      25.906352      3.1517239    
-807626.28      3.7628873      33.717353      25.930754      2.7576403    
-807620.33      3.1209522      34.821253      25.945965      2.363588     
-807621.52      2.9944355      34.041092      25.923294      1.9695741    
-807625.34      3.0208866      33.998169      25.884926      1.5755981    
-807632.76      3.3042414      33.950055      25.904796      1.181651     
-807638.92      4.2655086      34.188313      25.92874       0.78773438   
-807642.55      3.642712       33.618365      25.91188       0.39385127   
-807640.72      3.3852663      33.30865       25.880345      0            
Loop time of 196.918 on 32 procs for 5000 steps with 1080 atoms

Performance: 4.388 ns/day, 5.470 hours/ns, 25.391 timesteps/s, 27.423 katom-step/s
67.1% CPU use with 32 MPI tasks x 1 OpenMP threads

MPI task timing breakdown:
Section |  min time  |  avg time  |  max time  |%varavg| %total
---------------------------------------------------------------
Pair    | 101.55     | 144.69     | 192.91     | 312.4 | 73.48
Neigh   | 0          | 0          | 0          |   0.0 |  0.00
Comm    | 1.7031     | 49.908     | 93.035     | 531.8 | 25.34
Output  | 0.029253   | 0.030174   | 0.031793   |   0.3 |  0.02
Modify  | 1.9366     | 1.9711     | 1.9874     |   1.2 |  1.00
Other   |            | 0.3213     |            |       |  0.16

Nlocal:          33.75 ave          48 max          21 min
Histogram: 8 8 0 0 0 0 0 8 0 8
Nghost:        1106.25 ave        1119 max        1092 min
Histogram: 8 0 8 0 0 0 0 0 8 8
Neighs:              0 ave           0 max           0 min
Histogram: 32 0 0 0 0 0 0 0 0 0
FullNghs:       5494.5 ave        7896 max        3378 min
Histogram: 8 8 0 0 0 0 0 8 0 8

Total # of neighbors = 175824
Ave neighs/atom = 162.8
Neighbor list builds = 0
Dangerous builds = 0

reset_timestep 0


variable interval equal 1000
thermo 10

variable nintervals equal $(v_PERIOD/v_interval)
variable nintervals equal 100
variable efield equal 1e-2*36.36*cos((step/${PERIOD})*2*3.14)
variable efield equal 1e-2*36.36*cos((step/100000)*2*3.14)
fix born all addbornforce 0.0 0.0 v_efield

variable Px equal f_born[1]+c_polarization[1]
variable Py equal f_born[2]+c_polarization[2]
variable Pz equal (f_born[3]+c_polarization[3])/vol
variable pe equal pe

fix aveP all ave/time 1 $(v_interval/2) ${interval} v_efield v_Pz v_pe f_born file Pz.${MODEL}.${STRUCTURE}.${TEMP}.$L.${ITER}
fix aveP all ave/time 1 500 ${interval} v_efield v_Pz v_pe f_born file Pz.${MODEL}.${STRUCTURE}.${TEMP}.$L.${ITER}
fix aveP all ave/time 1 500 1000 v_efield v_Pz v_pe f_born file Pz.${MODEL}.${STRUCTURE}.${TEMP}.$L.${ITER}
fix aveP all ave/time 1 500 1000 v_efield v_Pz v_pe f_born file Pz.BaTiO3-E0.${STRUCTURE}.${TEMP}.$L.${ITER}
fix aveP all ave/time 1 500 1000 v_efield v_Pz v_pe f_born file Pz.BaTiO3-E0.BaTiO3-sc333.${TEMP}.$L.${ITER}
fix aveP all ave/time 1 500 1000 v_efield v_Pz v_pe f_born file Pz.BaTiO3-E0.BaTiO3-sc333.300.$L.${ITER}
fix aveP all ave/time 1 500 1000 v_efield v_Pz v_pe f_born file Pz.BaTiO3-E0.BaTiO3-sc333.300.2.${ITER}
fix aveP all ave/time 1 500 1000 v_efield v_Pz v_pe f_born file Pz.BaTiO3-E0.BaTiO3-sc333.300.2.4

thermo_style custom step time temp press pe f_born v_efield v_Pz spcpu cpuremain

# dump 4a all custom 1000 dump.hyst.${MODEL}.${STRUCTURE}.${TEMP}.$L.${ITER}.bin id type xu yu zu fx fy fz
# dump_modify 4a sort id

fix nvt all nvt temp ${TEMP} ${TEMP} $(100*dt)
fix nvt all nvt temp 300 ${TEMP} $(100*dt)
fix nvt all nvt temp 300 300 $(100*dt)
fix nvt all nvt temp 300 300 0.2000000000000000111

run $(v_PERIOD)
run 100000
WARNING: non-constant efield is experimental, strongly distrust scalar/vector output (src/fix_addbornforce.cpp:193)
Per MPI rank memory allocation (min/avg/max) = 3.516 | 3.516 | 3.516 Mbytes
   Step          Time           Temp          Press          PotEng         f_born        v_efield         v_Pz          S/CPU         CPULeft    
         0   0              298.88446      126782.55     -807640.72     -294.12717      0.3636         0.055317021    0              0            
        10   0.02           302.74315      131812.48     -807633.43     -302.01294      0.36359993     0.056800123    28.454914      3513.9996    
        20   0.04           299.56617      137800.2      -807625.78     -309.23516      0.36359971     0.058158454    28.406026      3516.6616    
        30   0.06           295.71366      142125.16     -807621.17     -313.34133      0.36359935     0.058930767    28.435028      3516.1198    
        40   0.08           308.1323       141850.38     -807621.91     -314.34568      0.36359885     0.059119739    28.433803      3515.7069    
        50   0.1            304.34314      138608.8      -807625.37     -310.4141       0.36359821     0.058380421    28.438914      3515.1954    
        60   0.12           307.81786      131538.09     -807634.96     -301.27342      0.36359742     0.056661432    28.422841      3515.068     
        70   0.14           299.86304      126245.74     -807640.96     -294.16431      0.36359649     0.055324541    28.371539      3515.7843    
        80   0.16           286.70803      124855.97     -807641.52     -291.78049      0.36359541     0.054876371    28.437609      3515.2099    
        90   0.18           297.59333      127474.25     -807639.25     -295.60301      0.36359419     0.055595474    28.463212      3514.3345    
       100   0.2            294.85167      132674.7      -807632.14     -302.37761      0.36359283     0.056869819    28.44223       3513.8227    
       110   0.22           302.09852      139474.17     -807626        -309.58096      0.36359132     0.058224832    28.492456      3512.7777    
       120   0.24           295.33253      142710.02     -807619.64     -315.01104      0.36358968     0.05924637     28.432323      3512.4654    
       130   0.26           309.30571      141055.98     -807622.1      -314.47658      0.36358788     0.059146143    28.435638      3512.1159    
       140   0.28           300.24708      137041.43     -807627.41     -307.95772      0.36358595     0.057920397    28.433362      3511.7861    
       150   0.3            300.7016       130503.61     -807635.36     -300.06695      0.36358387     0.05643663     28.459846      3511.2357    
       160   0.32           293.34345      126312.3      -807640.01     -294.35437      0.36358165     0.055362546    28.431657      3510.9275    
       170   0.34           293.35287      124101.81     -807642.41     -292.02129      0.36357928     0.054924095    28.41733       3510.7182    
       180   0.36           292.39608      128171.19     -807638.41     -295.89116      0.36357677     0.055652333    28.466545      3510.1558    
       190   0.38           292.06307      133372.54     -807631.45     -302.90882      0.36357412     0.056972658    28.456401      3509.6816    
       200   0.4            305.2057       139228.34     -807624.94     -311.29461      0.36357132     0.05855035     28.434661      3509.3535    
       210   0.42           300.90901      141840.21     -807621.14     -314.51303      0.36356838     0.05915617     28.440213      3508.9903    
       220   0.44           298.94607      141267.87     -807623.03     -312.31963      0.3635653      0.058744116    28.421194      3508.7351    
       230   0.46           299.5742       135155.36     -807628.91     -306.56614      0.36356207     0.057662457    28.451516      3508.309     
       240   0.48           298.07158      129627.13     -807635.65     -299.60599      0.3635587      0.056353833    28.422057      3508.0403    
       250   0.5            291.7701       127084.19     -807639.64     -294.67889      0.36355519     0.055427615    28.45445       3507.6051    
       260   0.52           299.83241      125466.23     -807642.64     -292.78546      0.36355153     0.055072025    28.408546      3507.3943    
       270   0.54           299.73449      128985.38     -807637.88     -297.55237      0.36354773     0.055969251    28.423473      3507.1048    
       280   0.56           300.33126      134891.35     -807630.28     -305.3534       0.36354379     0.057437238    28.456741      3506.6645    
       290   0.58           307.55074      140510.91     -807624.61     -311.98609      0.3635397      0.058685512    28.492059      3506.0802    
       300   0.6            296.18217      141522.52     -807621.8      -313.17299      0.36353547     0.058909456    28.45962       3505.6446    
       310   0.62           299.39357      139822.67     -807624.36     -311.07843      0.3635311      0.058516164    28.477099      3505.1451    
       320   0.64           301.6874       134835.58     -807630.04     -305.66541      0.36352658     0.05749865     28.445513      3504.7763    
       330   0.66           299.47372      129049.47     -807637.13     -298.23966      0.36352192     0.056102511    28.414065      3504.5261    
       340   0.68           284.38357      125969.42     -807639.82     -293.30452      0.36351712     0.05517488     28.414245      3504.2693    
       350   0.7            293.63679      126202.04     -807640.95     -293.41927      0.36351217     0.055197218    28.388032      3504.0994    
       360   0.72           300.17349      130604.66     -807635.44     -299.82398      0.36350708     0.056402844    28.41402       3503.8303    
       370   0.74           301.91408      135241.82     -807628.91     -306.5448       0.36350185     0.057667994    28.402499      3503.5953    
       380   0.76           308.63482      139991.05     -807625.05     -311.23206      0.36349647     0.058550639    28.437536      3503.2401    
       390   0.78           305.45951      140706.55     -807622.75     -313.05419      0.36349095     0.058894323    28.420935      3502.9378    
       400   0.8            300.87793      139755.06     -807623.66     -311.366        0.36348529     0.05857764     28.43653       3502.5849    
       410   0.82           309.62334      133254.39     -807632.26     -303.9248       0.36347948     0.057178632    28.461187      3502.1581    
       420   0.84           299.68884      130008.78     -807637.17     -297.45151      0.36347353     0.0559617      28.433441      3501.8162    
       430   0.86           286.44715      126290.22     -807638.7      -294.02274      0.36346744     0.055317549    28.40335       3501.56      
       440   0.88           294.12454      127250.4      -807638.31     -295.4032       0.3634612      0.055578224    28.370449      3501.392     
       450   0.9            295.94372      130491.2      -807634.16     -299.68154      0.36345482     0.056384155    28.393583      3501.1521    
       460   0.92           297.20437      137225.55     -807627.22     -306.71713      0.3634483      0.057708916    28.403012      3500.8821    
       470   0.94           310.91706      140215.27     -807623.45     -312.28042      0.36344163     0.058756729    28.449486      3500.4868    
       480   0.96           311.74774      141306.69     -807622.62     -313.03539      0.36343482     0.058899882    28.468096      3500.0456    
       490   0.98           309.88184      136889.98     -807626.98     -308.33456      0.36342786     0.058016496    28.430974      3499.7014    
       500   1              316.13091      132347.95     -807633.12     -302.87948      0.36342077     0.056991178    28.409938      3499.4086    
       510   1.02           299.57097      128094.98     -807636.64     -9504.1312      0.36341353     0.055886752    28.311698      3499.3518    
       520   1.04           294.43638      127910.6      -807637.99     -9433.8967      0.36340614     0.055474882    28.290988      3499.333     
       530   1.06           295.93351      127358.6      -807638.22     -9432.589       0.36339862     0.055468342    28.3021        3499.2756    
       540   1.08           308.66211      132265.42     -807632.79     -9658.7023      0.36339095     0.0567992      28.319537      3499.1671    
       550   1.1            307.68759      136267.8      -807626.95     -9842.2913      0.36338313     0.057880063    28.338908      3499.0062    
       560   1.12           305.92161      141825.9      -807621.42     -10006.961      0.36337518     0.058849733    28.363885      3498.7831    
       570   1.14           313.46589      139525.94     -807624.57     -9938.2202      0.36336707     0.058446779    28.388663      3498.5017    
       580   1.16           309.533        137141.92     -807626.41     -9858.8345      0.36335883     0.057981226    28.312739      3498.38      
       590   1.18           302.71338      131413.59     -807631.87     -9653.6771      0.36335044     0.056775976    28.325807      3498.2229    
       600   1.2            299.94268      129906.14     -807636.36     -9494.0309      0.36334191     0.055838363    28.307102      3498.0979    
       610   1.22           304.87603      126121.07     -807640.5      -9384.3751      0.36333324     0.055194749    28.272475      3498.036     
       620   1.24           302.95396      129507.88     -807637.1      -9480.6008      0.36332442     0.055762059    28.275155      3497.9592    
       630   1.26           305.93992      131939.81     -807631.92     -9665.5609      0.36331546     0.056851342    28.303829      3497.8172    
       640   1.28           312.74025      138011.31     -807626.31     -9875.4611      0.36330636     0.058087398    28.342802      3497.593     
       650   1.3            307.10423      139226.42     -807624        -9927.4854      0.36329711     0.05839489     28.328171      3497.3928    
       660   1.32           305.19854      140494.89     -807622.7      -9962.8139      0.36328772     0.058604212    28.376049      3497.0985    
       670   1.34           297.8434       136964.61     -807625.88     -9834.3646      0.36327819     0.057850154    28.329376      3496.8883    
       680   1.36           307.69265      131649.66     -807633.67     -9631.2226      0.36326851     0.05665669     28.334618      3496.6644    
       690   1.38           299.9943       128011.44     -807638.16     -9457.2764      0.36325869     0.055634938    28.305435      3496.4892    
       700   1.4            301.28723      126637.83     -807639.63     -9424.6142      0.36324873     0.055444314    28.312605      3496.2962    
       710   1.42           295.63975      129620.87     -807635.31     -9544.0677      0.36323863     0.056148613    28.328216      3496.0714    
       720   1.44           302.05248      133351.68     -807631.93     -9690.0026      0.36322838     0.057008769    28.335818      3495.8301    
       730   1.46           302.93288      137909.19     -807626.24     -9883.4579      0.36321798     0.05814858     28.361092      3495.5429    
       740   1.48           300.96444      140255.71     -807623.86     -9960.5035      0.36320745     0.058603572    28.39043       3495.2051    
       750   1.5            297.72086      140030.5      -807623.84     -9955.3578      0.36319677     0.058575019    28.333402      3494.9606    
       760   1.52           303.77989      134707.45     -807629.85     -9796.3904      0.36318595     0.057641409    28.313204      3494.7463    
       770   1.54           297.35296      131332.91     -807634.93     -9611.1867      0.36317498     0.056553389    28.367897      3494.4405    
       780   1.56           291.25988      126419.82     -807639.01     -9461.9178      0.36316387     0.055676775    28.337641      3494.1815    
       790   1.58           285.7684       127524.04     -807638.38     -9461.5905      0.36315262     0.055676575    28.25842       3494.0443    
       800   1.6            280.69709      129061.06     -807635.88     -9525.0249      0.36314122     0.056051612    28.286947      3493.8574    
       810   1.62           302.67648      134429.4      -807632.33     -9737.8889      0.36312968     0.057306067    28.321319      3493.6139    
       820   1.64           302.14357      136791.97     -807628.07     -9876.3454      0.363118       0.058122733    28.347257      3493.3286    
       830   1.66           287.29186      141614.73     -807622.29     -9994.6481      0.36310618     0.058820865    28.397243      3492.9675    
       840   1.68           299.36204      136932.62     -807628.08     -9867.6421      0.36309421     0.058075319    28.409825      3492.5882    
       850   1.7            302.60114      134972.65     -807631.21     -9779.6433      0.3630821      0.057559328    28.365784      3492.2733    
       860   1.72           281.61574      129556.11     -807634.94     -9569.4498      0.36306984     0.056324109    28.289675      3492.0669    
       870   1.74           284.17796      128627.53     -807637.87     -9483.8359      0.36305745     0.055822107    28.265716      3491.8912    
       880   1.76           288.37471      126092.27     -807640.08     -9431.3717      0.3630449      0.055515219    28.276496      3491.6963    
       890   1.78           300.21041      130504.29     -807637.24     -9572.7768      0.36303222     0.056349531    28.285439      3491.4854    
       900   1.8            293.15063      133454.69     -807630.87     -9744.5806      0.36301939     0.057362869    28.331871      3491.2076    
       910   1.82           299.48169      139319.28     -807627.13     -9886.8412      0.36300642     0.058202386    28.393318      3490.8448    
       920   1.84           301.25279      138245.78     -807626.24     -9921.0972      0.36299331     0.058406156    28.388854      3490.4882    
       930   1.86           291.52226      139023.73     -807626        -9880.4135      0.36298005     0.058168773    28.343576      3490.1918    
       940   1.88           297.71697      134752.38     -807631.98     -9713.1452      0.36296665     0.057186128    28.335448      3489.9047    
       950   1.9            295.56327      130271.19     -807635.31     -9590.4036      0.36295311     0.056465594    28.330705      3489.6225    
       960   1.92           295.70291      126992.01     -807639.49     -9451.359       0.36293942     0.055649037    28.34967       3489.3144    
       970   1.94           296.76847      128763.83     -807638.19     -9491.3675      0.36292559     0.055886734    28.346292      3489.0096    
       980   1.96           299.83411      131342.57     -807635.23     -9593.9514      0.36291162     0.05649294     28.394332      3488.6436    
       990   1.98           311.59215      134908.43     -807631.36     -9763.5163      0.3628975      0.057493641    28.39141       3488.2815    
      1000   2              296.59386      137510.96     -807625.18     -9889.6437      0.36288325     0.058238646    28.361008      3487.9571    
      1010   2.02           301.2496       138689.23     -807625.09     -309.58734      0.36286884     0.058341961    28.484826      3487.4817    
      1020   2.04           304.75753      137137.76     -807626.63     -308.25525      0.3628543      0.058093258    28.474295      3487.0214    
      1030   2.06           312.00679      133004.63     -807632.33     -303.3654       0.36283961     0.057174039    28.408471      3486.6415    
      1040   2.08           292.32488      130894.56     -807633.71     -299.02988      0.36282478     0.056359244    28.412727      3486.257     
      1050   2.1            301.31174      128359.8      -807637.88     -295.95945      0.3628098      0.055782851    28.408161      3485.8786    
      1060   2.12           298.76249      129666.01     -807635.75     -297.5341       0.36279469     0.056081981    28.375227      3485.5387    
      1070   2.14           302.8993       131656.21     -807632.81     -300.99963      0.36277943     0.056737583    28.428986      3485.137     
      1080   2.16           303.68689      136579.45     -807628.24     -305.52348      0.36276402     0.057592761    28.472245      3484.6873    
      1090   2.18           302.79051      137958.25     -807625.47     -308.10769      0.36274848     0.058082387    28.454749      3484.259     
      1100   2.2            315.44938      139701.19     -807625.52     -309.70804      0.36273279     0.0583866      28.43719       3483.8515    
      1110   2.22           304.53805      136381.35     -807627.65     -306.08687      0.36271695     0.057706451    28.422485      3483.4613    
      1120   2.24           318.36714      133479.34     -807633.44     -302.12259      0.36270098     0.056961575    28.429404      3483.0642    
      1130   2.26           301.13216      128822.05     -807636.57     -296.62439      0.36268486     0.055927442    28.42775       3482.6698    
      1140   2.28           301.99326      129088.11     -807637.03     -296.21398      0.3626686      0.055852563    28.430036      3482.2736    
      1150   2.3            296.00216      128457.22     -807636.35     -296.13495      0.36265219     0.055840188    28.442585      3481.8648    
      1160   2.32           313.15055      132525.04     -807633.96     -300.87119      0.36263564     0.056735858    28.425047      3481.4755    
      1170   2.34           307.90379      135173.18     -807628.54     -305.6044       0.36261895     0.057631061    28.374445      3481.1399    
      1180   2.36           307.64597      139915.55     -807624.46     -309.62018      0.36260212     0.05839107     28.432136      3480.7441    
      1190   2.38           302.75035      138418.96     -807624.43     -309.03466      0.36258514     0.058283376    28.435784      3480.3452    
      1200   2.4            309.27792      136858.81     -807628.07     -306.2575       0.36256802     0.057762336    28.432729      3479.9503    
      1210   2.42           297.90135      132475.7      -807631.39     -301.41966      0.36255076     0.056852593    28.3758        3479.6137    
      1220   2.44           301.13465      130213.7      -807634.82     -298.4117       0.36253335     0.056287945    28.400351      3479.2522    
      1230   2.46           302.01388      126562.26     -807638.64     -294.81954      0.3625158      0.055613066    28.418829      3478.8724    
      1240   2.48           298.55631      130096.64     -807634.98     -297.92927      0.36249811     0.05620241     28.425024      3478.487     
      1250   2.5            299.17793      132278.9      -807632.13     -301.07904      0.36248028     0.056799389    28.448326      3478.0794    
      1260   2.52           299.98233      137479.65     -807625.67     -307.68331      0.3624623      0.058048181    28.524304      3477.5992    
      1270   2.54           303.80644      137713.27     -807625.72     -308.22277      0.36244418     0.058152863    28.464688      3477.1782    
      1280   2.56           304.72101      139164.82     -807625.46     -308.65142      0.36242592     0.058236672    28.464592      3476.7584    
      1290   2.58           307.99704      134608.52     -807629.44     -305.2617       0.36240751     0.057600023    28.435846      3476.3668    
      1300   2.6            296.61506      133597.54     -807632.08     -301.02915      0.36238896     0.056804287    28.449915      3475.9626    
      1310   2.62           301.10578      128213.9      -807638.47     -295.36471      0.36237027     0.05573828     28.457899      3475.5518    
      1320   2.64           289.26092      128366.69     -807636.81     -295.38908      0.36235143     0.055745777    28.399591      3475.1958    
      1330   2.66           305.29195      129136.31     -807636.95     -297.62447      0.36233245     0.056170581    28.419929      3474.8212    
      1340   2.68           294.41072      134293.68     -807629.75     -303.38094      0.36231333     0.05726002     28.460925      3474.4097    
      1350   2.7            307.10149      136829.89     -807628.9      -306.04957      0.36229407     0.057766768    28.482139      3473.9798    
      1360   2.72           295.04851      139116.15     -807624.72     -308.62956      0.36227466     0.058256861    28.466273      3473.5654    
      1370   2.74           297.48324      138392.78     -807624.87     -308.88704      0.36225511     0.05830861     28.47152       3473.1472    
      1380   2.76           306.73525      134036.22     -807629.95     -305.16507      0.36223542     0.057609145    28.454658      3472.7448    
      1390   2.78           301.54835      131212.56     -807635.34     -299.10964      0.36221558     0.056469091    28.463551      3472.3354    
      1400   2.8            286.55654      128006.11     -807637.38     -295.0745       0.3621956      0.055710367    28.397147      3471.9847    
      1410   2.82           303.23153      129009.75     -807638.32     -296.45743      0.36217548     0.055974575    28.427513      3471.6076    
      1420   2.84           289.33388      128974.41     -807635.67     -297.36771      0.36215522     0.056149588    28.447524      3471.2138    
      1430   2.86           305.07361      134812.67     -807632.18     -303.0478       0.36213481     0.057225339    28.454104      3470.8149    
      1440   2.88           298.35524      134645.01     -807629.11     -305.41011      0.36211426     0.057674695    28.42933       3470.4377    
      1450   2.9            289.39981      140938.51     -807622.7      -310.56323      0.36209357     0.058651178    28.440884      3470.051     
      1460   2.92           293.12866      135495.85     -807627.19     -306.76915      0.36207273     0.057937984    28.431865      3469.6724    
      1470   2.94           301.77743      135460.61     -807630.59     -304.51698      0.36205176     0.057515961    28.440421      3469.2871    
      1480   2.96           291.0331       128525.68     -807636.85     -296.98192      0.36203064     0.05609604     28.39102       3468.9429    
      1490   2.98           286.2825       131084.68     -807635.15     -297.9248       0.36200937     0.056277444    28.398476      3468.5925    
      1500   3              294.08157      125648.75     -807640.68     -293.6873       0.36198796     0.055480268    28.404909      3468.2369    
      1510   3.02           294.9428       132676.34     -807635.41     -9567.5286      0.36196642     0.056484466    28.363058      3467.9152    
      1520   3.04           300.24531      130727.49     -807634.75     -9622.9566      0.36194472     0.056815105    28.344467      3467.608     
      1530   3.06           295.16846      139058.67     -807625.15     -9905.9506      0.36192289     0.058489465    28.351853      3467.2944    
      1540   3.08           288.036        136175.98     -807626.86     -9826.9443      0.36190091     0.058026497    28.391448      3466.9488    
      1550   3.1            290.43391      139419.06     -807626.81     -9837.2495      0.36187879     0.058090899    28.410794      3466.5879    
      1560   3.12           295.85047      132041.92     -807632.91     -9673.3796      0.36185653     0.057126729    28.362237      3466.2651    
      1570   3.14           296.97171      132212.44     -807634.67     -9620.4681      0.36183412     0.056817775    28.301148      3465.9897    
      1580   3.16           286.95581      127264.07     -807639.59     -9422.7066      0.36181157     0.055653278    28.267071      3465.7397    
      1590   3.18           280.55628      129422.79     -807638.25     -9435.9346      0.36178888     0.055734902    28.307387      3465.4574    
      1600   3.2            294.66216      129580.74     -807636.51     -9557.4719      0.36176605     0.056456346    28.384868      3465.1148    
      1610   3.22           289.20433      134566.3      -807630.67     -9721.0577      0.36174307     0.0574263      28.39593       3464.7637    
      1620   3.24           290.09873      137081        -807627.83     -9814.2394      0.36171995     0.057980469    28.407586      3464.4038    
      1630   3.26           301.64223      137325.78     -807629.12     -9824.1046      0.36169669     0.058042483    28.427507      3464.0292    
      1640   3.28           297.06911      136639.09     -807628.57     -9817.5761      0.36167329     0.058007665    28.413979      3463.6648    
      1650   3.3            298.56894      132836.29     -807632.13     -9706.4352      0.36164974     0.057354717    28.37205       3463.3316    
      1660   3.32           289.71927      130925.2      -807635.96     -9538.8013      0.36162605     0.056367871    28.294644      3463.0553    
      1670   3.34           286.68075      127094.19     -807639.66     -9401.4266      0.36160222     0.055559741    28.246266      3462.8137    
      1680   3.36           289.86971      130316.93     -807636.56     -9507.145       0.36157824     0.056188232    28.275227      3462.5496    
      1690   3.38           282.82249      130677.1      -807634.2      -9548.3526      0.36155413     0.056435537    28.319071      3462.2525    
      1700   3.4            294.07794      136029.53     -807629.73     -9726.7239      0.36152987     0.057493659    28.30681       3461.9636    
      1710   3.42           305.3836       135627.05     -807630.6      -9745.469       0.36150546     0.057608348    28.351696      3461.6419    
      1720   3.44           298.55733      140790.92     -807623.86     -9916.3666      0.36148092     0.058622554    28.312458      3461.3477    
      1730   3.46           300.01177      134134.1      -807628.63     -9764.9746      0.36145623     0.057731514    28.349709      3461.0265    
      1740   3.48           300.47318      135082.21     -807631.6      -9657.2732      0.3614314      0.057098694    28.345297      3460.7079    
      1750   3.5            307.62252      127466.74     -807639.77     -9422.3041      0.36140643     0.055713287    28.330446      3460.3994    
      1760   3.52           291.05329      130590.49     -807634.86     -9494.1697      0.36138131     0.056142124    28.251209      3460.1457    
      1770   3.54           302.42617      126599.65     -807638.71     -9420.4274      0.36135605     0.055709955    28.269851      3459.8778    
      1780   3.56           310.72666      132276        -807635.28     -9553.7695      0.36133065     0.056502478    28.286298      3459.5977    
      1790   3.58           305.05227      132947.74     -807631.17     -9659.4219      0.36130511     0.057131361    28.334842      3459.2835    
      1800   3.6            296.67362      140118.49     -807622.24     -9899.8334      0.36127942     0.058557455    28.343833      3458.9627    
      1810   3.62           305.76752      137060.57     -807625.28     -9840.415       0.3612536      0.058210157    28.359181      3458.6312    
      1820   3.64           303.9276       137104.56     -807627.34     -9758.755       0.36122763     0.057731255    28.331315      3458.3183    
      1830   3.66           307.25766      132860.05     -807632.19     -9616.1481      0.36120151     0.056891728    28.308836      3458.0199    
      1840   3.68           303.41221      130409.28     -807633.13     -9566.2852      0.36117526     0.05660084     28.339597      3457.7004    
      1850   3.7            293.07437      128382.1      -807635.58     -9437.9094      0.36114886     0.05584536     28.335711      3457.3832    
      1860   3.72           306.65449      128386.31     -807638.51     -9401.2919      0.36112232     0.055632778    28.352431      3457.0546    
      1870   3.74           305.60842      132295.34     -807633.9      -9544.4166      0.36109564     0.056483901    28.341723      3456.7327    
      1880   3.76           310.27527      135179.63     -807628.28     -9743.8904      0.36106881     0.057668672    28.370931      3456.3916    
      1890   3.78           311.73152      139071.79     -807625.83     -9826.0483      0.36104184     0.058159263    28.399664      3456.0318    
      1900   3.8            306.0098       136840.46     -807627.67     -9743.098       0.36101474     0.05767262     28.33321       3455.7148    
      1910   3.82           306.40746      138073.5      -807627.07     -9762.0614      0.36098748     0.057789233    28.292452      3455.4234    
      1920   3.84           306.77712      131858.15     -807631.26     -9634.3928      0.36096009     0.057037792    28.284063      3455.1368    
      1930   3.86           302.05284      131160.51     -807634.05     -9519.382       0.36093255     0.056361201    28.230076      3454.8839    
      1940   3.88           296.76201      126518.96     -807639.89     -9313.6965      0.36090487     0.055147633    28.271715      3454.6035    
      1950   3.9            303.26869      131837.36     -807635.49     -9482.1222      0.36087705     0.056149233    28.336473      3454.2817    
      1960   3.92           295.21731      131140.93     -807631.08     -9594.7088      0.36084909     0.056820327    28.387896      3453.9277    
      1970   3.94           315.42035      136924.37     -807629.12     -9744.2543      0.36082098     0.057710438    28.386506      3453.5745    
      1980   3.96           299.46953      134966.92     -807628.57     -9697.7825      0.36079273     0.057439704    28.362732      3453.236     
      1990   3.98           311.63413      139797.69     -807625.22     -9859.3537      0.36076434     0.058401282    28.365047      3452.8958    
      2000   4              304.83404      134608.41     -807627.73     -9758.3304      0.36073581     0.057807449    28.34445       3452.5682    
      2010   4.02           309.69096      134101.04     -807632.93     -300.39713      0.36070713     0.056949324    28.378843      3452.2194    
      2020   4.04           297.95739      128265.05     -807638.05     -293.87051      0.36067831     0.055716456    28.340512      3451.8937    
      2030   4.06           292.44748      129903.82     -807636.26     -294.98999      0.36064935     0.055933195    28.362164      3451.5547    
      2040   4.08           304.0943       127553.85     -807637.63     -295.57685      0.36062025     0.056048994    28.397214      3451.1947    
      2050   4.1            292.76101      132281.93     -807632.37     -299.38921      0.36059101     0.05677652     28.424482      3450.8187    
      2060   4.12           296.48002      134337.45     -807631.36     -301.21403      0.36056162     0.057127236    28.412947      3450.4496    
      2070   4.14           305.39155      138320.35     -807627.06     -306.95791      0.36053209     0.05822137     28.443048      3450.0632    
      2080   4.16           295.23367      137824.25     -807625.35     -307.52372      0.36050242     0.058333489    28.394674      3449.7052    
      2090   4.18           297.05015      136202.74     -807629.66     -303.62914      0.36047261     0.057599498    28.426062      3449.3291    
      2100   4.2            290.10366      132529.75     -807633.85     -298.64672      0.36044265     0.056659024    28.430759      3448.9505    
      2110   4.22           287.44019      129910.17     -807637.26     -295.08371      0.36041256     0.055987727    28.414013      3448.5817    
      2120   4.24           293.31387      127932.56     -807638.12     -295.13954      0.36038232     0.05600302     28.418011      3448.2109    
      2130   4.26           294.14411      128373.79     -807639.1      -294.36688      0.36035193     0.055861116    28.434338      3447.8309    
      2140   4.28           297.95166      131369.47     -807636.45     -297.66005      0.36032141     0.056490835    28.473864      3447.4289    
      2150   4.3            290.85872      135062.12     -807629.38     -303.85631      0.36029075     0.05767169     28.466912      3447.0313    
      2160   4.32           293.67621      138837.34     -807625.94     -307.73445      0.36025994     0.058412751    28.432481      3446.6533    
      2170   4.34           295.30801      136744.84     -807628.82     -305.1071       0.36022899     0.057919015    28.391577      3446.2985    
      2180   4.36           294.76097      135478.88     -807631.16     -302.58261      0.36019789     0.057444746    28.406769      3445.9352    
      2190   4.38           285.41884      131278.41     -807632.81     -299.69022      0.36016666     0.056900564    28.40531       3445.5728    
      2200   4.4            285.22765      130133.92     -807635.17     -297.14776      0.36013528     0.056422757    28.468508      3445.1758    
      2210   4.42           287.00713      126812.61     -807640.55     -291.93067      0.36010377     0.055436982    28.449468      3444.7896    
      2220   4.44           298.90265      130278.89     -807639.18     -294.77016      0.36007211     0.055981116    28.411256      3444.4245    
      2230   4.46           290.7169       132325.46     -807632.96     -299.8121       0.3600403      0.056943684    28.440607      3444.0436    
      2240   4.48           292.03863      136983.46     -807627.96     -304.8007       0.36000836     0.057896311    28.465763      3443.6494    
      2250   4.5            301.58549      135861.86     -807630.82     -303.19501      0.35997627     0.057596446    28.460213      3443.2586    
      2260   4.52           290.56656      137987.21     -807627.05     -305.22441      0.35994404     0.057987153    28.431391      3442.8835    
      2270   4.54           289.64516      134048.76     -807629.56     -302.5231       0.35991167     0.057479122    28.398341      3442.5263    
      2280   4.56           293.11004      133020.74     -807632.48     -299.8813       0.35987916     0.056982329    28.361327      3442.1888    
      2290   4.58           296.20828      127443.95     -807639.92     -292.72085      0.35984651     0.055626775    28.384773      3441.8388    
      2300   4.6            296.79045      129050.16     -807639.26     -293.2942       0.35981371     0.055740811    28.405907      3441.4775    
      2310   4.62           288.94531      129864.61     -807634.81     -296.62332      0.35978077     0.056378673    28.431408      3441.103     
      2320   4.64           307.38083      132957.16     -807633.27     -300.59707      0.35974769     0.057139211    28.421684      3440.7338    
      2330   4.66           296.91225      135168.95     -807630.48     -301.84829      0.35971447     0.057382349    28.459675      3440.3451    
      2340   4.68           298.19086      137975.66     -807628.3      -304.0798       0.35968111     0.057811929    28.427829      3439.9731    
      2350   4.7            291.29841      137768.38     -807625.12     -306.25193      0.3596476      0.05823032     28.426074      3439.6021    
      2360   4.72           295.58107      135361.92     -807629.68     -302.09509      0.35961396     0.057445319    28.434186      3439.2272    
      2370   4.74           300.95727      131273.29     -807636.73     -295.59112      0.35958017     0.05621383     28.418638      3438.8604    
      2380   4.76           299.63161      128370.97     -807638.28     -293.78874      0.35954624     0.055876336    28.451125      3438.4772    
      2390   4.78           287.74636      130053.83     -807635.29     -294.96264      0.35951216     0.056104919    28.446309      3438.0967    
      2400   4.8            294.90599      130039.68     -807635.54     -295.599        0.35947795     0.056231313    28.413077      3437.7332    
      2410   4.82           310.35453      132914.92     -807635.13     -297.9895       0.35944359     0.056691471    28.444359      3437.3542    
      2420   4.84           296.64228      136329.8      -807629.56     -301.69035      0.35940909     0.057401056    28.440743      3436.9771    
      2430   4.86           299.11623      138948.79     -807624.41     -307.01029      0.35937446     0.058418883    28.475382      3436.5831    
      2440   4.88           296.60095      136322.16     -807627.18     -303.77053      0.35933967     0.057808007    28.47332       3436.1904    
      2450   4.9            305.89361      134294        -807632.75     -299.26821      0.35930475     0.056956743    28.402577      3435.833     
      2460   4.92           297.64424      130566.26     -807634.68     -296.13441      0.35926969     0.056365819    28.406623      3435.4735    
      2470   4.94           295.34064      130341.63     -807634.41     -295.89701      0.35923448     0.056326152    28.445913      3435.095     
      2480   4.96           302.96872      127969.71     -807638.04     -293.20047      0.35919913     0.055818337    28.479159      3434.7005    
      2490   4.98           299.92255      130594.56     -807637.5      -293.10423      0.35916364     0.05580553     28.405986      3434.3418    
      2500   5              304.67275      132861.27     -807633.01     -298.12907      0.35912801     0.056767866    28.367053      3434.002     
[...]
     98740   197.48         306.90688      134257.61     -807629.45     -9722.7584      0.36236891     0.05733715     28.183178      44.445753    
     98750   197.5          303.77622      134724.47     -807629.77     -9705.1784      0.36238762     0.057230523    28.167903      44.093038    
     98760   197.52         309.87592      132377.85     -807633.5      -9623.1833      0.36240618     0.056744099    28.156853      43.740324    
     98770   197.54         302.23232      133514.67     -807632.14     -9640.8191      0.36242459     0.056845202    28.211443      43.387601    
     98780   197.56         288.72273      132521.65     -807629.77     -9667.2942      0.36244287     0.056998433    28.184904      43.034882    
     98790   197.58         305.56446      134092.91     -807631.29     -9700.9909      0.362461       0.057194248    28.139919      42.682169    
     98800   197.6          298.07716      133858.08     -807631.59     -9666.5673      0.36247899     0.056988468    28.127625      42.329457    
     98810   197.62         292.70423      135994.19     -807629.31     -9721.1653      0.36249683     0.057307525    28.172238      41.976738    
     98820   197.64         297.6825       133707.94     -807631.14     -9695.5007      0.36251453     0.057153438    28.171678      41.624019    
     98830   197.66         291.03168      135045.41     -807629.59     -9716.3009      0.36253209     0.057273277    28.212683      41.271294    
     98840   197.68         304.67283      131248.8      -807634.08     -9639.5636      0.36254951     0.056818216    28.197209      40.91857     
     98850   197.7          301.64868      132720.27     -807632.72     -9672.3667      0.36256678     0.05700885     28.208598      40.565844    
     98860   197.72         292.73094      132097.97     -807631.73     -9667.8713      0.36258391     0.056979662    28.231808      40.213114    
     98870   197.74         306.19817      133746.54     -807632.58     -9704.1698      0.3626009      0.057190916    28.212088      39.860387    
     98880   197.76         289.43961      133081.75     -807631.65     -9662.4936      0.36261774     0.056942654    28.221113      39.507659    
     98890   197.78         295.97395      134758.55     -807630.01     -9745.0729      0.36263445     0.057426663    28.241948      39.154927    
     98900   197.8          295.00186      133824.99     -807630.49     -9728.9559      0.362651       0.057329069    28.267384      38.802191    
     98910   197.82         292.66634      135477.51     -807629.61     -9744.4579      0.36266742     0.057417818    28.281136      38.449453    
     98920   197.84         294.45511      132733.7      -807631.74     -9685.7167      0.36268369     0.057069133    28.24557       38.09672     
     98930   197.86         297.43021      133725.79     -807632.15     -9684.2823      0.36269982     0.057058144    28.252213      37.743985    
     98940   197.88         308.75436      132244.78     -807633.88     -9679.612       0.36271581     0.057028114    28.267546      37.391249    
     98950   197.9          299.59841      132582.24     -807632.98     -9666.9249      0.36273165     0.056950879    28.235443      37.038516    
     98960   197.92         300.05508      131957.65     -807633.43     -9655.0633      0.36274735     0.056878537    28.174272      36.685791    
     98970   197.94         294.28117      134211.26     -807630.88     -9709.7251      0.36276291     0.0571981      28.225591      36.333059    
     98980   197.96         302.69774      133885.68     -807631.38     -9730.8327      0.36277832     0.057320005    28.245508      35.980325    
     98990   197.98         291.94737      134261.19     -807630.55     -9707.8299      0.36279359     0.057182099    28.21484       35.627593    
     99000   198            297.84396      134075.06     -807631.36     -9706.4717      0.36280872     0.057171714    28.18476       35.274866    
     99010   198.02         302.07452      133073.05     -807631.08     -304.15685      0.3628237      0.057325714    28.240472      34.922131    
     99020   198.04         292.81113      134213.98     -807630.7      -303.18812      0.36283855     0.057140795    28.284684      34.56939     
     99030   198.06         291.64726      133396.93     -807632.2      -301.45992      0.36285324     0.056812787    28.295584      34.216647    
     99040   198.08         304.89189      132730.76     -807633.26     -302.17631      0.3628678      0.056945511    28.289713      33.863905    
     99050   198.1          292.45236      133675.32     -807630.18     -303.42355      0.36288221     0.057178285    28.255921      33.511168    
     99060   198.12         307.84916      133204.67     -807631.83     -303.84033      0.36289648     0.057254573    28.254019      33.15843     
     99070   198.14         298.82307      133619.81     -807630.67     -303.5828       0.36291061     0.057203819    28.279835      32.805688    
     99080   198.16         300.98861      134078.7      -807630.74     -303.73744      0.36292459     0.057230752    28.26662       32.452949    
     99090   198.18         311.34614      133859.59     -807631.21     -304.65376      0.36293843     0.057401218    28.227962      32.100213    
     99100   198.2          298.19713      134832.61     -807629.71     -304.20896      0.36295213     0.057315248    28.258207      31.747474    
     99110   198.22         303.2749       132947.8      -807631.53     -303.00385      0.36296568     0.057086065    28.277377      31.394732    
     99120   198.24         305.84242      133559.08     -807632.41     -302.32447      0.36297909     0.056955965    28.278936      31.04199     
     99130   198.26         297.4236       133035.77     -807630.9      -302.59845      0.36299236     0.057005497    28.284863      30.689247    
     99140   198.28         300.21164      134234.01     -807629.91     -303.79561      0.36300548     0.057228957    28.310846      30.336501    
     99150   198.3          305.72941      132977.29     -807632.24     -302.10139      0.36301846     0.056907764    28.284265      29.983758    
     99160   198.32         299.31632      135499.83     -807629.64     -303.54083      0.3630313      0.057176895    28.287154      29.631014    
     99170   198.34         309.92902      133473.75     -807630.8      -303.74294      0.36304399     0.057212966    28.28688       29.278271    
     99180   198.36         299.65336      135687.2      -807626.7      -306.12906      0.36305655     0.057660421    28.316641      28.925524    
     99190   198.38         311.81345      132911.42     -807632.03     -302.32113      0.36306895     0.056941239    28.30629       28.572778    
     99200   198.4          310.63779      134945.16     -807630.9      -302.94033      0.36308122     0.057055935    28.287411      28.220034    
     99210   198.42         303.64514      132735.38     -807630.04     -302.627        0.36309334     0.05699502     28.27444       27.867291    
     99220   198.44         308.83274      134242.18     -807629.04     -303.98168      0.36310532     0.057248263    28.281527      27.514547    
     99230   198.46         313.71129      132392.28     -807632.03     -301.42062      0.36311715     0.056764095    28.324904      27.161798    
     99240   198.48         312.36769      134840.56     -807629.48     -303.38597      0.36312885     0.057132373    28.294935      26.809053    
     99250   198.5          317.48718      134355.57     -807629.46     -303.9402       0.3631404      0.057234923    28.266324      26.45631     
     99260   198.52         310.66625      136063.27     -807626.96     -305.26996      0.3631518      0.057483524    28.262251      26.103567    
     99270   198.54         321.83486      135321.03     -807629.77     -303.78122      0.36316306     0.057201414    28.232799      25.750827    
     99280   198.56         317.48995      135313.75     -807628.97     -303.83526      0.36317418     0.057209839    28.241987      25.398085    
     99290   198.58         305.08009      135052.32     -807627.26     -303.70739      0.36318516     0.057184033    28.241581      25.045344    
     99300   198.6          318.57727      133773.21     -807630.14     -302.60949      0.36319599     0.056975615    28.264918      24.6926      
     99310   198.62         319.87311      133390.7      -807630.93     -301.91403      0.36320668     0.056843       28.262742      24.339856    
     99320   198.64         324.4226       133452.67     -807631.59     -301.95762      0.36321723     0.056849556    28.227072      23.987115    
     99330   198.66         308.75385      135920.39     -807627.85     -303.61124      0.36322763     0.057159244    28.264918      23.63437     
     99340   198.68         319.33099      133859.43     -807629.62     -303.5255       0.36323789     0.05714149     28.261409      23.281626    
     99350   198.7          305.67486      135635.74     -807627.38     -304.05166      0.36324801     0.05723895     28.223716      22.928884    
     99360   198.72         311.5257       134617.6      -807628.93     -303.56338      0.36325798     0.05714546     28.248847      22.57614     
     99370   198.74         305.54937      135829.16     -807626.58     -305.29443      0.36326781     0.057469773    28.249064      22.223396    
     99380   198.76         318.56918      133790.18     -807630.2      -303.88708      0.3632775      0.057203323    28.265984      21.87065     
     99390   198.78         315.90894      135260.33     -807631.44     -302.50459      0.36328704     0.056941589    28.262631      21.517904    
     99400   198.8          306.32161      133040.62     -807631.16     -301.80059      0.36329644     0.056807603    28.244873      21.165159    
     99410   198.82         303.48832      134594.01     -807629.35     -303.50421      0.3633057      0.057126817    28.218574      20.812416    
     99420   198.84         311.74701      133699.12     -807631.58     -302.72713      0.36331481     0.056979122    28.29145       20.459667    
     99430   198.86         302.46176      134841.27     -807629.03     -304.14718      0.36332378     0.057244991    28.241005      20.106922    
     99440   198.88         305.25511      134301.23     -807630.2      -303.61162      0.36333261     0.057142802    28.235219      19.754177    
     99450   198.9          303.62099      135220.18     -807628.76     -304.96391      0.36334129     0.057395945    28.28823       19.401428    
     99460   198.92         310.58406      133471.68     -807631.37     -303.43034      0.36334983     0.057105976    28.2906        19.048679    
     99470   198.94         300.93405      133376.03     -807630.87     -302.72251      0.36335823     0.056971445    28.313218      18.695928    
     99480   198.96         308.72842      132847.91     -807632.68     -302.10802      0.36336648     0.056854508    28.258127      18.34318     
     99490   198.98         309.03969      132851.54     -807632.07     -302.89513      0.3633746      0.057001364    28.296337      17.99043     
     99500   199            295.51486      134190.46     -807629.81     -303.37997      0.36338256     0.057091353    28.32349       17.637678    
     99510   199.02         302.96603      134114.31     -807631        -9705.8143      0.36339039     0.057076336    28.185834      17.284935    
     99520   199.04         312.56368      133713.89     -807631.91     -9722.7651      0.36339807     0.057174809    28.167774      16.932192    
     99530   199.06         300.99463      134036.44     -807629.58     -9750.8286      0.3634056      0.057338647    28.230832      16.579445    
     99540   199.08         302.81668      134017.17     -807629.81     -9755.4596      0.363413       0.057364712    28.219988      16.226698    
     99550   199.1          297.75055      133648.29     -807630.61     -9710.0607      0.36342025     0.057096615    28.212826      15.873951    
     99560   199.12         313.29327      133370.91     -807633.95     -9677.0839      0.36342736     0.056901594    28.194948      15.521205    
     99570   199.14         301.57475      132805.71     -807631.55     -9706.9462      0.36343432     0.057076091    28.188009      15.168459    
     99580   199.16         301.10855      133123.15     -807630.67     -9736.0535      0.36344114     0.057246165    28.170418      14.815714    
     99590   199.18         308.63248      132571.12     -807633.38     -9687.7164      0.36344782     0.056960906    28.216762      14.462966    
     99600   199.2          300.00761      134659.13     -807630.73     -9737.2816      0.36345435     0.057251305    28.221751      14.110217    
     99610   199.22         295.7197       134187.54     -807629.96     -9749.595       0.36346074     0.057322696    28.202934      13.757468    
     99620   199.24         296.22044      135616.7      -807628.9      -9787.6198      0.36346699     0.057545273    28.198729      13.40472     
     99630   199.26         292.85218      133120.37     -807631.18     -9704.4549      0.3634731      0.057055356    28.201945      13.051971    
     99640   199.28         298.15547      133345.97     -807631.59     -9716.0848      0.36347906     0.057122794    28.191434      12.699222    
     99650   199.3          299.5694       132176.16     -807632.63     -9694.3035      0.36348487     0.056993826    28.200601      12.346472    
     99660   199.32         293.8688       134010.16     -807631        -9723.5461      0.36349055     0.057164853    28.192483      11.993723    
     99670   199.34         296.08566      131699.51     -807633.53     -9656.1723      0.36349608     0.056767899    28.217329      11.640972    
     99680   199.36         299.11099      134007.97     -807632.22     -9711.8632      0.36350147     0.057094455    28.270737      11.288218    
     99690   199.38         300.47748      132754.71     -807631.88     -9734.5647      0.36350671     0.057227088    28.250065      10.935465    
     99700   199.4          292.32538      134742.38     -807629.44     -9776.5086      0.36351181     0.057472859    28.235286      10.582712    
     99710   199.42         298.46539      133232.26     -807632.23     -9718.6368      0.36351677     0.057131871    28.210891      10.22996     
     99720   199.44         295.86976      134402.57     -807631.42     -9734.1305      0.36352158     0.057222194    28.147895      9.8772099    
     99730   199.46         290.39167      133371.11     -807630.79     -9734.6386      0.36352625     0.057224445    28.131425      9.5244598    
     99740   199.48         297.80349      133327.91     -807631.53     -9742.5998      0.36353078     0.057270532    28.14935       9.1717085    
     99750   199.5          287.81879      132778.58     -807632.12     -9682.8029      0.36353516     0.056918338    28.208601      8.8189549    
     99760   199.52         288.54473      134192.14     -807632.05     -9687.7223      0.3635394      0.056946591    28.200856      8.4662011    
     99770   199.54         292.29519      133327.8      -807631.31     -9729.5143      0.3635435      0.057191609    28.212231      8.1134466    
     99780   199.56         298.40718      133938.77     -807632.06     -9731.3211      0.36354745     0.057201608    28.20699       7.760692     
     99790   199.58         296.95947      133436.88     -807632.09     -9721.3287      0.36355126     0.057142273    28.184125      7.4079376    
     99800   199.6          291.50581      134190.49     -807630.56     -9745.9173      0.36355493     0.057286227    28.15638       7.0551834    
     99810   199.62         290.78517      134635.02     -807630.01     -9758.721       0.36355845     0.057360931    28.146251      6.7024291    
     99820   199.64         299.73013      132824.47     -807632.16     -9727.5497      0.36356183     0.057177177    28.176555      6.3496735    
     99830   199.66         287.63495      133602.33     -807631.2      -9699.4263      0.36356507     0.057011364    28.206084      5.9969169    
     99840   199.68         299.62396      132675.57     -807633.17     -9687.9516      0.36356816     0.056943434    28.169193      5.6441607    
     99850   199.7          299.92657      133280.52     -807631.78     -9728.3915      0.36357111     0.057180666    28.175873      5.2914039    
     99860   199.72         299.84268      133412.35     -807631.68     -9724.1712      0.36357392     0.057155419    28.167636      4.9386468    
     99870   199.74         293.61893      134470.79     -807631.14     -9706.7997      0.36357658     0.057052897    28.123358      4.58589      
     99880   199.76         295.18259      133509.04     -807630.77     -9719.2782      0.3635791      0.057125845    28.129972      4.2331325    
     99890   199.78         296.45546      134877.87     -807629.57     -9754.7811      0.36358148     0.057334142    28.128181      3.8803745    
     99900   199.8          296.44707      133980.95     -807630.89     -9704.4471      0.36358371     0.057037951    28.146855      3.5276157    
     99910   199.82         300.55636      133998.73     -807631.26     -9701.1974      0.3635858      0.057018524    28.176704      3.174856     
     99920   199.84         305.14093      133781.65     -807632.15     -9684.9296      0.36358775     0.056922605    28.185041      2.8220959    
     99930   199.86         307.74198      133830.62     -807631        -9724.942       0.36358955     0.057157492    28.194276      2.4693352    
     99940   199.88         302.7411       133436.47     -807630.54     -9709.4407      0.36359121     0.057066124    28.262322      2.1165737    
     99950   199.9          308.20007      132701.74     -807631.92     -9683.7783      0.36359273     0.056915059    28.217146      1.7638122    
     99960   199.92         305.4834       133990.67     -807630.15     -9722.139       0.3635941      0.057140303    28.162156      1.4110507    
     99970   199.94         298.60486      134579.47     -807628.1      -9754.688       0.36359533     0.057331411    28.149981      1.0582888    
     99980   199.96         300.14525      135391.64     -807628.11     -9755.9159      0.36359641     0.057338456    28.127795      0.70552641   
     99990   199.98         300.19509      134285.18     -807630.33     -9683.0708      0.36359736     0.056910176    28.139569      0.35276346   
    100000   200            311.44537      134837.08     -807630.14     -9736.2696      0.36359816     0.057222715    28.184131      0            
Loop time of 3527.64 on 32 procs for 100000 steps with 1080 atoms

Performance: 4.898 ns/day, 4.899 hours/ns, 28.348 timesteps/s, 30.615 katom-step/s
62.4% CPU use with 32 MPI tasks x 1 OpenMP threads

MPI task timing breakdown:
Section |  min time  |  avg time  |  max time  |%varavg| %total
---------------------------------------------------------------
Pair    | 2549       | 2808.5     | 3082       | 242.7 | 79.61
Neigh   | 0.0016642  | 0.0017738  | 0.0019847  |   0.2 |  0.00
Comm    | 371.42     | 644.48     | 903.93     | 506.5 | 18.27
Output  | 2.4322     | 2.4426     | 2.455      |   0.4 |  0.07
Modify  | 65.388     | 66.104     | 66.733     |   4.5 |  1.87
Other   |            | 6.13       |            |       |  0.17

Nlocal:          33.75 ave          43 max          24 min
Histogram: 1 0 7 3 5 2 7 5 1 1
Nghost:        1044.69 ave        1060 max        1025 min
Histogram: 1 1 0 5 6 7 1 4 5 2
Neighs:              0 ave           0 max           0 min
Histogram: 32 0 0 0 0 0 0 0 0 0
FullNghs:      5324.44 ave        6793 max        3741 min
Histogram: 1 0 7 3 5 1 8 3 3 1

Total # of neighbors = 170382
Ave neighs/atom = 157.76111
Neighbor list builds = 4
Dangerous builds = 0

Total wall time: 1:02:19
