
units		metal
atom_style	atomic

read_data ${STRUCTURE}.data
read_data BaTiO3-sc333.data
Reading data file ...
  orthogonal box = (0 0 0) to (11.898253 11.898253 12.912076)
  2 by 4 by 4 MPI processor grid
  reading atoms ...
  135 atoms
  read_data CPU = 0.004 seconds
replicate $L $L $L
replicate 2 $L $L
replicate 2 2 $L
replicate 2 2 2
Replication is creating a 2x2x2 = 8 times larger system...
  orthogonal box = (0 0 0) to (23.796507 23.796507 25.824152)
  2 by 4 by 4 MPI processor grid
  1080 atoms
  replicate CPU = 0.003 seconds

pair_style allegro
pair_coeff	* * ${MODEL}.pth Ba Ti O
pair_coeff	* * BaTiO3-E0.pth Ba Ti O
mass 1 137.3
mass 2 47.9
mass 3 15.9994

timestep 0.002
compute polarization all allegro polarization 3
compute allegro will evaluate the quantity polarization of length 3 (src/compute_allegro.cpp:53)
compute polarizability all allegro polarizability 9
compute allegro will evaluate the quantity polarizability of length 9 (src/compute_allegro.cpp:53)

thermo_style custom pe fmax fnorm spcpu cpuremain

variable efield equal 1e-2*36.36
fix born all addbornforce 0.0 0.0 ${efield}
fix born all addbornforce 0.0 0.0 0.3636

thermo 10
min_style fire
#minimize 0.0 1e-6 100 100
velocity all create ${TEMP} ${SEED} dist gaussian rot yes mom yes
velocity all create 310 ${SEED} dist gaussian rot yes mom yes
velocity all create 310 14322 dist gaussian rot yes mom yes
fix nvt all nvt temp ${TEMP} ${TEMP} $(100*dt)
fix nvt all nvt temp 310 ${TEMP} $(100*dt)
fix nvt all nvt temp 310 310 $(100*dt)
fix nvt all nvt temp 310 310 0.2000000000000000111
run 5000
Neighbor list info ...
  update: every = 1 steps, delay = 0 steps, check = yes
  max neighbors/atom: 2000, page size: 100000
  master list distance cutoff = 8
  ghost atom cutoff = 8
  binsize = 8, bins = 3 3 4
  1 neighbor lists, perpetual/occasional/extra = 1 0 0
  (1) pair allegro/kk, perpetual
      attributes: full, newton on, kokkos_device
      pair build: full/bin/kk/device
      stencil: full/bin/3d
      bin: kk/device
Per MPI rank memory allocation (min/avg/max) = 3.516 | 3.516 | 3.516 Mbytes
    PotEng          Fmax          Fnorm          S/CPU         CPULeft    
-807708.29      1.5958271      37.042315      0              0            
-807647.29      3.1552924      44.752868      2.6834621      1859.539     
-807635.1       2.5571116      35.516071      25.875655      1024.1358    
-807605.46      3.4271593      37.907676      25.900767      745.34821    
-807604.58      4.0317585      50.137898      25.838332      605.8771     
-807570.42      3.8820105      39.403619      25.808073      522.08454    
-807602.46      2.9256535      38.364989      25.900856      465.97941    
-807647.33      3.6722484      33.712593      25.859784      425.83721    
-807684.39      2.7600575      33.833236      25.811372      395.67844    
-807670.29      2.8619048      33.364695      25.811758      372.13524    
-807652.38      4.5451718      35.371774      25.904535      353.1552     
-807660.62      2.6536181      27.661661      25.869764      337.57895    
-807627.47      3.7955506      31.12629       25.853177      324.54441    
-807585.95      3.6428906      41.190069      25.824491      313.47177    
-807567.29      3.1614891      38.372054      25.895675      303.88866    
-807633.13      3.5102409      33.484515      25.886546      295.53622    
-807654.13      3.0100966      30.700823      25.871601      288.1863     
-807666.62      2.9205567      33.793838      25.860699      281.66022    
-807646.94      4.3845719      45.064052      25.879995      275.80859    
-807680.38      3.5343773      35.973185      25.859084      270.54015    
-807642.83      4.5238997      38.946674      25.827486      265.77123    
-807617.9       3.3851255      38.699093      25.885067      261.39998    
-807560.5       5.3810089      45.963276      25.920127      257.37965    
-807603.27      3.9414565      48.943774      25.830673      253.70306    
-807613.68      4.3303306      39.156141      25.818921      250.3041     
-807644.31      3.3353658      35.233583      25.896293      247.12407    
-807643.81      4.3005929      45.189783      25.89008       244.16066    
-807682.09      3.0268359      37.374596      25.825935      241.40494    
-807664.18      3.2833516      34.874693      25.788917      238.82778    
-807639.61      3.0746667      31.834691      25.893184      236.37625    
-807608.31      3.7344686      33.980525      25.895567      234.06185    
-807604.02      4.5815438      41.587338      25.889153      231.8733     
-807597.79      4.1354313      36.56124       25.829587      229.81042    
-807609.79      3.5217308      32.887351      25.918396      227.83033    
-807643.15      4.2983033      29.693362      25.899436      225.94789    
-807672.91      2.6221208      31.859227      25.875589      224.15568    
-807678.06      2.8058029      32.277045      25.785643      222.45895    
-807644.46      4.5002664      38.440241      25.871732      220.81681    
-807648.15      2.8672305      31.019057      25.879392      219.23937    
-807622.12      4.4025922      34.07682       25.902913      217.71887    
-807602.08      3.8419642      43.486832      25.903621      216.25496    
-807569.82      4.5051563      42.132511      25.891241      214.8457     
-807623.28      3.3682192      35.894182      25.916083      213.48112    
-807649.16      4.9877909      36.564039      25.918321      212.1617     
-807673.08      3.2949313      35.230182      25.811432      210.90128    
-807643.33      5.993819       46.511082      25.868138      209.67107    
-807667.4       3.0555379      35.476846      25.897357      208.47324    
-807646.08      4.1279487      36.886122      25.890613      207.31092    
-807624.98      3.0606867      38.023525      25.891395      206.18082    
-807566.01      4.1252519      43.600789      25.887397      205.08164    
-807599.46      4.0093256      42.99683       25.890421      204.01056    
-807624.71      3.4972011      34.477688      25.797137      202.97864    
-807655.66      2.5379717      31.413556      25.875907      201.96133    
-807644.92      4.260291       39.656264      25.908669      200.9637     
-807672.86      2.5961662      34.089126      25.91506       199.98795    
-807667.21      2.4929681      32.775933      25.81549       199.04568    
-807644.53      3.0118329      30.696981      25.912542      198.11173    
-807602.82      3.11399        35.157941      25.927529      197.19527    
-807594.58      3.6424956      38.746732      25.918551      196.29814    
-807605.38      3.8676316      40.316045      25.806976      195.43081    
-807619.57      3.9710951      33.052845      25.910966      194.56807    
-807639.42      3.1141931      32.260992      25.928975      193.71902    
-807662.45      4.1047342      34.392416      25.909372      192.88699    
-807676.96      3.0361504      34.939071      25.76442       192.08418    
-807648.44      4.4957912      37.988468      25.851123      191.28547    
-807636.73      2.8693547      32.895795      25.902187      190.49432    
-807613.88      3.299317       34.801762      25.921164      189.71359    
-807603.62      4.1010048      44.786189      25.807557      188.95562    
-807581.07      4.042546       40.107146      25.804027      188.20889    
-807614.8       2.970955       36.20225       25.918278      187.4619     
-807645.46      4.1298212      36.20351       25.898092      186.72707    
-807674.17      3.1660709      36.218748      25.825283      186.00865    
-807651.55      5.1367137      41.44801       25.840966      185.29802    
-807654.37      3.2209955      34.969432      25.911051      184.59015    
-807644.28      3.4868444      32.947683      25.891606      183.89264    
-807625.8       3.1364286      36.2336        25.852771      183.20672    
-807578.89      3.6539246      38.839114      25.85124       182.5288     
-807589.3       3.0157072      38.875425      25.86588       181.85723    
-807626.38      3.2570748      32.796047      25.892303      181.19084    
-807659.71      3.6870866      31.610037      18.122691      181.41393    
-807652.82      3.9807302      35.867901      22.752966      181.02813    
-807658.07      4.273882       35.707471      24.685348      180.46303    
-807667.13      3.1509638      32.216263      23.569387      179.9996     
-807644.76      3.4851937      32.12598       10.900355      182.01461    
-807607.32      2.714938       33.975391      25.93471       181.32604    
-807582.78      3.3621145      38.26516       16.483282      181.72404    
-807607.34      3.8532067      38.868807      25.867881      181.03915    
-807625.82      3.8207181      32.552718      25.869755      180.36098    
-807643.14      3.1197362      32.732343      25.928707      179.68533    
-807652.22      3.5482892      37.158341      25.926008      179.01638    
-807672.42      3.183393       35.307364      25.350064      178.39364    
-807654.19      3.4830916      35.219473      9.4753915      180.7463     
-807633.16      2.8926816      32.727427      10.944885      182.39646    
-807604.94      3.8811067      35.334625      25.925022      181.68105    
-807604.61      3.8365874      42.802475      25.850577      180.97744    
-807594.5       3.7077859      37.964077      25.829168      180.28187    
-807617.98      3.2972317      34.152257      25.825008      179.59299    
-807641.46      4.1106163      35.177345      25.524472      178.92927    
-807670.78      3.0923246      34.616663      25.882175      178.24889    
-807659.38      3.3346897      35.812938      21.643253      177.88095    
-807648.42      2.8655583      33.71605       11.922079      179.01811    
-807636.07      3.4842806      32.862914      25.891255      178.32834    
-807625.21      3.2638782      35.044725      25.916505      177.64305    
-807592.04      3.7850751      37.866521      25.906128      176.96418    
-807589.59      3.0316902      38.0552        25.925858      176.28982    
-807624.2       2.7220411      32.51756       25.921286      175.62121    
-807656.95      3.1563643      31.920795      25.923384      174.95782    
-807661.88      2.5845506      32.984317      25.885853      174.30168    
-807650.79      3.7795602      36.512831      25.900135      173.64976    
-807657.9       2.7318821      32.291773      25.773274      173.00954    
-807643.87      2.6847495      31.615103      25.849392      172.36985    
-807613.74      3.2259492      34.456429      25.829354      171.73576    
-807580.58      3.3048804      38.697733      25.870507      171.10396    
-807605.35      3.2366247      38.103737      25.849658      170.47756    
-807630.91      2.9711167      33.412371      25.887238      169.85346    
-807649.97      3.0353158      33.012799      25.835884      169.23607    
-807646.59      5.2456428      38.789118      25.859728      168.62147    
-807667.09      2.9098192      34.640832      25.852239      168.01113    
-807654.29      4.2117259      35.150424      25.764814      167.40883    
-807635.71      3.0368455      33.0807        25.815937      166.80767    
-807598.12      3.7198585      37.042508      25.867843      166.20761    
-807602.62      3.4087546      39.375249      25.858561      165.61152    
-807603.46      2.9907837      36.883977      25.780146      165.0225     
-807627.8       3.1748135      32.798201      25.854671      164.43332    
-807637.84      3.7666641      35.201617      25.861844      163.84708    
-807666.25      2.9843168      33.578352      25.840677      163.26499    
-807660.97      3.6073888      34.576807      25.77287       162.68901    
-807649.76      3.2665228      33.284663      25.819163      162.11396    
-807627         4.3028954      33.523343      25.910713      161.53786    
-807619.16      3.0341206      33.990488      25.91568       160.96449    
-807598.73      4.1747775      38.79507       25.859588      160.39639    
-807598.99      3.7272588      36.787547      25.859224      159.83108    
-807623.28      3.2764488      32.888461      25.883691      159.26745    
-807653.9       4.0448188      33.002858      25.891849      158.70615    
-807662.79      2.8348901      34.066434      25.799136      158.15126    
-807650.69      4.97054        36.754825      25.854886      157.59658    
-807650.12      3.607695       33.541564      25.886237      157.04312    
-807636.39      3.4661508      33.144674      25.839344      156.49396    
-807615.14      3.5101478      36.560233      25.885483      155.94534    
-807584.36      3.6429017      38.69855       25.91279       155.398      
-807603.5       3.3885842      37.764227      25.871092      154.85456    
-807631.38      3.4305825      34.166943      25.85772       154.31386    
-807654.74      2.6806278      33.135364      25.890239      153.7741     
-807648.07      4.2247377      38.283011      25.773663      153.24085    
-807657.86      3.5630538      34.977033      25.80365       152.7085     
-807651.35      2.9365349      34.056842      25.871222      152.17567    
-807636.96      2.9576382      33.145362      25.835744      151.64614    
-807596.26      3.4207307      37.510327      25.881207      151.1169     
-807595.18      3.2385108      39.908914      25.84002       150.59107    
-807608.64      3.7756575      37.339165      25.791449      150.06881    
-807635.82      2.8788588      33.614453      25.79255       149.54831    
-807638.52      3.8100957      37.082319      25.752488      149.03096    
-807658.71      3.066818       35.037075      25.851291      148.51191    
-807659.31      4.1609694      35.862351      25.789689      147.99669    
-807648.32      2.7668865      33.522147      25.849718      147.4811     
-807621.48      3.6781164      34.375849      25.91196       146.9651     
-807606.99      3.3936782      36.835638      25.877343      146.45191    
-807599.3       3.4727425      39.739766      25.778721      145.94356    
-807609.33      3.099264       35.667335      25.773         145.43692    
-807624.17      3.8064903      34.232979      25.807887      144.93065    
-807649.17      3.6864173      33.870569      25.824752      144.42533    
-807663.99      2.8357938      34.180436      25.837768      143.92106    
-807653.56      2.9738687      35.151327      25.829909      143.41849    
-807641.39      3.1670602      34.2186        25.874294      142.91596    
-807628.54      3.455667       33.442129      25.917331      142.41353    
-807613.71      4.3552017      37.767261      25.881052      141.91361    
-807590.85      3.8551465      38.52595       25.835973      141.41642    
-807606.84      3.4986347      37.071059      25.887865      140.91899    
-807632.72      3.4784715      33.426682      25.910605      140.42222    
-807658.19      2.9624295      33.220071      25.885043      139.92751    
-807652.59      3.7537506      36.487315      25.916589      139.43316    
-807651.81      3.998569       35.644072      25.885797      138.94097    
-807646.53      3.8906469      34.197472      25.836028      138.45142    
-807633.66      3.5343608      34.088419      25.889649      137.96154    
-807600.67      3.5796481      36.799065      25.877759      137.47319    
-807594.07      3.8747806      38.520481      25.872396      136.98615    
-807614.25      3.6883047      34.80437       25.833185      136.50133    
-807641.85      4.1486872      32.855931      25.847721      136.01722    
-807646.06      3.4055553      34.097131      25.875267      135.53346    
-807656.16      3.7818431      33.924544      25.894261      135.05028    
-807656.55      2.8004089      33.83849       25.864941      134.56895    
-807648.66      3.937799       32.763474      25.823964      134.08975    
-807622.9       2.8461213      32.497837      25.869937      133.61035    
-807602.01      3.1223987      35.673481      25.90715       133.13102    
-807603.1       3.6152674      37.926414      25.857893      132.65395    
-807619.14      3.1968352      34.751809      25.791644      132.17956    
-807633.01      4.1981237      33.259162      25.868226      131.70416    
-807647.13      3.5862774      33.713642      25.904769      131.2288     
-807661.02      2.8241367      34.252646      25.842249      130.75593    
-807655.07      4.1397215      33.830897      25.860008      130.28354    
-807640.58      3.3383815      32.549364      25.852939      129.81223    
-807619.97      3.6300876      33.580613      25.924365      129.34007    
-807610.96      3.48           37.444984      25.8634        128.87028    
-807600.32      4.9002564      37.790889      25.795738      128.40295    
-807614.56      3.1671643      34.885793      25.850274      127.93516    
-807631.89      3.8725671      34.059598      25.909771      127.46681    
-807657.26      2.8315879      33.393669      25.895694      126.99963    
-807655.61      2.9428075      34.863213      25.859639      126.5341     
-807650.15      3.1837115      34.364921      25.866852      126.0692     
-807637.94      4.7237987      33.824165      25.898017      125.60438    
-807628.71      2.8198497      33.87245       25.900786      125.14029    
-807606.11      3.7709739      35.685644      25.878213      124.67747    
-807597.53      3.5473588      37.347462      25.864063      124.21572    
-807614.89      3.0752964      34.265862      25.872761      123.75453    
-807642.12      2.8058005      33.214598      25.883008      123.29384    
-807652.22      3.7238228      34.06864       25.822912      122.83517    
-807650.19      3.9768926      35.401182      25.819122      122.37728    
-807649.62      3.8240178      34.820976      25.838896      121.91964    
-807644.06      2.9561325      32.807602      25.86432       121.46216    
-807622.57      2.8371847      34.266301      25.843695      121.00578    
-807598.25      3.8777188      37.119971      25.853616      120.54986    
-807603.7       3.976996       37.013434      25.852103      120.09462    
-807621.85      4.0565531      35.283613      25.830398      119.64047    
-807641.39      3.0890429      33.123982      25.823289      119.1871     
-807644.4       3.7216785      35.85397       25.870732      118.73339    
-807654.87      3.1356302      34.997478      25.883672      118.28005    
-807651.4       4.4176502      35.181848      25.833423      117.82832    
-807639.18      3.3036117      33.351313      25.853354      117.3768     
-807611.52      4.4026917      35.544887      25.907033      116.92483    
-807605.97      3.1992352      37.770015      25.891526      116.47376    
-807605.26      3.610151       37.269563      25.868021      116.02373    
-807625.14      2.9530254      33.417452      25.872952      115.57418    
-807632.34      4.3462698      34.153952      25.875907      115.12514    
-807653.55      3.1623294      33.090973      25.894045      114.67633    
-807654.82      3.202631       34.904657      25.851753      114.22885    
-807649.99      2.5488785      33.409158      25.836663      113.78219    
-807631.17      3.7480482      33.783726      25.893212      113.33504    
-807620.4       3.403168       35.050282      25.918705      112.88796    
-807607.24      3.6826074      36.935978      25.853345      112.44258    
-807607.06      3.0125421      36.813046      25.832057      111.9981     
-807619.6       3.8024733      34.656949      25.866937      111.5535     
-807643.59      3.0753728      33.436269      25.842445      111.10982    
-807654.69      3.7653885      34.450207      25.79243       110.66751    
-807652.39      3.747905       34.8991        25.794009      110.22563    
-807645.37      4.222511       34.763774      25.835558      109.78351    
-807636.17      3.9480003      33.818829      25.873293      109.34123    
-807621.66      3.2902067      34.781576      25.851903      108.89977    
-807602.83      3.3567405      35.923164      25.830324      108.45913    
-807608.35      3.1646326      35.604516      25.873897      108.01822    
-807626.53      2.9978878      33.924178      25.864226      107.57793    
-807647.97      2.8922002      32.258126      25.876445      107.13789    
-807648.97      3.6443956      35.387885      25.879125      106.69824    
-807652.14      3.8501571      35.017602      25.823895      106.25992    
-807646.99      3.2447178      35.523974      25.842072      105.82173    
-807638.64      4.1691001      33.570068      25.883382      105.38332    
-807609.14      3.3483066      36.823275      25.915811      104.94482    
-807603.29      3.5260562      37.967808      25.871695      104.50743    
-807611.38      3.1122834      35.989546      25.852813      104.07075    
-807632.03      2.8716554      33.991421      25.863016      103.63431    
-807639.44      3.4592002      34.34407       25.890712      103.19785    
-807651.58      3.3658934      34.926199      25.859396      102.76226    
-807655.18      3.1400747      33.790164      25.859751      102.32706    
-807647.36      3.0736044      33.826608      25.8437        101.89248    
-807627.26      3.644989       34.472424      25.864058      101.45798    
-807613.85      3.7908051      35.129535      25.867357      101.02381    
-807607.19      3.4861096      36.76004       25.860718      100.5901     
-807612.32      3.2885807      35.687557      25.850993      100.1569     
-807626.51      3.3407633      33.486456      25.873962      99.72374     
-807642.43      3.022344       33.399948      25.859298      99.291145    
-807654.31      3.1489109      34.156405      25.836938      98.859215    
-807651.28      3.2968824      34.084948      25.830174      98.427725    
-807640.72      3.0977406      33.746762      25.850638      97.996294    
-807628.17      3.7147787      33.935003      25.822837      97.565581    
-807616.44      3.2457587      35.221777      25.810344      97.135368    
-807603.8       3.0383243      37.60853       25.804259      96.705561    
-807611.52      3.2830003      35.679368      25.830487      96.275723    
-807628.96      3.2135252      34.493841      25.819992      95.846345    
-807647.47      3.6105773      34.247849      25.850904      95.416879    
-807651.38      3.5484383      34.957085      25.84808       94.987766    
-807646.85      3.6305824      35.650502      25.852836      94.558907    
-807642.44      3.2539099      33.925488      25.870442      94.130135    
-807630.63      3.2900493      34.496247      25.875327      93.701613    
-807610.81      2.9605521      35.399696      25.875458      93.2734      
-807603.23      3.016787       37.088193      25.884917      92.845373    
-807614.59      3.215706       35.136602      25.871568      92.417816    
-807634.27      3.2880886      34.611572      25.838597      91.990961    
-807643.7       2.8241239      34.699665      25.849452      91.564263    
-807648.98      2.794214       35.78424       25.87205       91.13758     
-807648.94      3.2952214      35.152578      25.881595      90.711072    
-807643.17      2.7231312      34.081158      25.840276      90.285342    
-807626.32      2.9188398      33.968276      25.864493      89.859603    
-807607.8       3.238519       35.795763      25.903611      89.433688    
-807608.75      3.4078621      35.560128      25.850591      89.008668    
-807618.27      3.2608445      35.071528      25.840146      88.584037    
-807631.32      3.254095       32.813132      25.869432      88.159339    
-807643.75      3.3829136      34.41991       25.869428      87.734908    
-807652.99      4.2819695      34.681655      25.876871      87.310658    
-807649.32      3.0832565      34.463224      25.879485      86.886643    
-807637.51      3.1292568      33.986184      25.86197       86.463082    
-807623.86      3.2599565      33.972825      25.894827      86.039418    
-807611.52      3.5000246      36.116172      25.880725      85.616165    
-807611.62      3.1106807      35.42836       25.818824      85.19383     
-807617.65      4.0699445      35.074537      25.813824      84.771789    
-807633.54      3.0263404      32.870543      25.886681      84.349214    
-807647.54      3.9745906      34.29101       25.867446      83.927087    
-807654.02      3.7108856      33.50945       25.870839      83.505166    
-807646.44      4.0658008      34.248441      25.843434      83.083767    
-807636.05      3.3077533      33.020511      25.874935      82.662277    
-807627.09      4.0238106      33.880002      25.866511      82.241108    
-807612.53      3.5267621      35.019158      25.869245      81.820143    
-807611.01      4.1849262      35.858713      25.876352      81.399336    
-807618.93      4.6916985      35.219701      25.871573      80.978804    
-807640.44      4.1357228      32.405367      25.877797      80.558437    
-807647.87      3.1522375      33.835617      25.884351      80.138231    
-807650.74      3.252961       33.57362       25.876398      79.718323    
-807644.95      3.4434849      33.632863      25.855287      79.298837    
-807638.69      3.0419286      32.621293      25.855731      78.879561    
-807623.38      2.7146516      33.540801      25.831535      78.460724    
-807609.24      3.1212274      35.489875      25.855955      78.041865    
-807609.42      3.0382041      35.186023      25.889593      77.622903    
-807625.32      3.4002772      33.239763      25.398449      77.20873     
-807639.17      3.353467       32.11194       25.87537       76.790278    
-807645         3.1161705      33.6752        25.862479      76.372148    
-807650.27      3.0706798      32.829334      25.868839      75.954162    
-807646.52      2.870527       33.365137      25.82111       75.536799    
-807634.91      2.9337195      32.896045      25.826708      75.119578    
-807618.56      3.3997673      34.683108      25.891423      74.701983    
-807611.36      4.3549496      35.110176      25.886878      74.284626    
-807611.7       3.0610456      35.533198      25.880327      73.86752     
-807625.82      3.4278638      33.996772      25.882713      73.450586    
-807636.04      3.6175687      33.789172      25.876823      73.033892    
-807646.43      4.6750212      34.244183      25.866058      72.617477    
-807649.97      2.9408966      33.873639      25.853419      72.201352    
-807643.46      3.0878602      33.576917      25.82279       71.785659    
-807631.54      3.4834456      33.174715      25.850259      71.369919    
-807617.47      3.0762068      34.966213      25.871507      70.954185    
-807612.29      3.2384998      35.675014      25.855786      70.538756    
-807612.62      3.1300139      36.073346      25.86681       70.123415    
-807625.95      2.76261        33.832884      25.865315      69.708261    
-807638.43      2.6644931      33.865706      25.888342      69.293102    
-807648.13      3.8536197      34.116908      25.865249      68.878295    
-807648         2.693945       34.403656      25.883583      68.463519    
-807639.87      2.9831927      33.921461      25.861956      68.049078    
-807631.1       2.4996188      33.103429      25.852906      67.634871    
-807617.08      2.5762823      34.411589      25.833581      67.220972    
-807611.6       3.1472539      35.035072      25.886166      66.806846    
-807613.54      3.5738571      35.228095      25.897768      66.392802    
-807628.54      2.9617034      32.973928      25.890168      65.978977    
-807640.9       3.4730326      33.261006      25.836196      65.565703    
-807646.74      3.2982293      34.284648      25.818595      65.152708    
-807645.01      3.8399469      34.537874      25.805412      64.739958    
-807639.45      3.2360524      33.753433      25.804724      64.32736     
-807629.25      3.8668678      34.184865      25.805557      63.914904    
-807616.75      4.1789206      34.764728      25.888637      63.502023    
-807608.03      4.0772441      36.272927      25.883026      63.089336    
-807615.49      3.3334602      35.37978       25.859601      62.676958    
-807628.93      3.1596081      34.523189      25.857766      62.264741    
-807639.69      3.8161033      34.539577      25.861381      61.852646    
-807644.53      3.2654984      35.752154      25.858149      61.440719    
-807646.41      2.6724642      34.850013      25.867964      61.028873    
-807640.26      3.0744754      33.891243      25.863226      60.617202    
-807626.78      2.8687636      34.16965       25.86068       60.20569     
-807614.06      2.7508225      35.259417      25.855273      59.794352    
-807607.88      3.0393607      36.705761      25.833292      59.383291    
-807619.5       3.6973122      35.251042      25.810525      58.972506    
-807628.44      3.054296       33.731064      25.840658      58.561668    
-807640.21      3.3954433      34.402353      25.848285      58.150917    
-807646.09      3.0131831      34.670606      25.859699      57.740232    
-807647.66      3.4132398      34.122866      25.871255      57.329613    
-807635.92      2.8942746      33.993577      25.878563      56.919085    
-807625.67      3.4765102      34.085757      25.898087      56.508578    
-807612.8       2.6993129      35.856595      25.862899      56.098407    
-807613.38      3.0616013      35.447934      25.906404      55.68812     
-807618.76      3.5139211      34.405856      25.893263      55.27804     
-807631.96      3.9040945      34.058759      25.869179      54.868225    
-807643.25      2.5437455      33.721176      25.884444      54.458454    
-807647.3       3.0653723      34.55318       25.871858      54.048879    
-807644.22      3.0387797      34.798184      25.866618      53.639459    
-807635.78      3.1656399      34.049264      25.85616       53.230219    
-807624.71      3.3533368      34.512792      25.839278      52.82119     
-807615.53      3.1487431      35.575423      25.827551      52.412342    
-807611.21      3.4628727      36.442251      25.86946       52.003393    
-807622.7       3.6188588      34.308734      25.866263      51.59458     
-807634.16      3.2715639      33.757045      25.860928      51.185914    
-807644.8       3.3712161      33.467929      25.864899      50.777345    
-807645.25      3.5474298      34.481978      25.864347      50.368897    
-807644.92      3.4589561      33.85016       25.893338      49.960421    
-807636.51      2.8272685      33.332325      25.87441       49.552156    
-807623.77      2.882531       33.813831      25.857117      49.144089    
-807614.09      3.5913921      35.743054      25.877548      48.736038    
-807613.24      2.676919       35.493386      25.864917      48.32816     
-807623.2       2.9899199      34.974638      25.83462       47.920535    
-807634.74      3.3179866      33.775951      25.864614      47.512879    
-807643.22      3.5597339      33.667824      25.828352      47.105498    
-807645.81      3.5777632      34.489277      25.808036      46.698315    
-807644.97      3.8301304      33.997407      25.820811      46.291177    
-807632.05      3.6941086      34.184482      25.831633      45.884094    
-807622.37      4.7675166      34.722031      25.866291      45.476963    
-807611.26      4.007376       36.583648      25.814177      45.070162    
-807616.71      3.4560991      35.472241      25.894382      44.66312     
-807620.15      3.881161       36.215525      25.884444      44.256226    
-807636.06      3.0402424      33.729706      25.863974      43.849522    
-807643.56      4.438236       34.380558      25.860311      43.442936    
-807646.26      2.7919097      34.49711       25.870395      43.03641     
-807641.84      4.0195712      33.86887       25.880668      42.629944    
-807631.94      2.8203691      33.216217      25.866562      42.223636    
-807619.95      3.1072553      34.643617      25.812539      41.81764     
-807612.79      3.1668969      36.474194      25.840453      41.411629    
-807614.6       3.2869015      35.115171      25.81852       41.005798    
-807622.6       3.8059578      34.885456      25.834522      40.599999    
-807636.75      2.9808348      34.142662      25.845472      40.194252    
-807642.71      3.1906505      34.40262       25.842104      39.788612    
-807644.78      3.7326511      34.942267      25.864464      39.382984    
-807639.96      3.7735803      34.505426      25.870493      38.977427    
-807631.68      2.9817077      34.088321      25.859854      38.572003    
-807618.61      3.2163371      36.260628      25.810813      38.166844    
-807612.48      3.5172563      36.505662      25.832066      37.761698    
-807613.69      3.6221846      35.820909      25.827914      37.356655    
-807627.15      2.969836       35.530169      25.886021      36.951503    
-807637.56      3.4093951      33.911637      25.870965      36.546494    
-807641.81      3.6441091      35.779484      25.841796      36.14167     
-807642.81      3.3059451      35.06438       25.826917      35.736982    
-807641.05      2.7507415      34.027867      25.855861      35.332286    
-807629.55      3.9153068      34.33871       25.848841      34.927699    
-807617.88      3.4903895      35.63987       25.852896      34.523185    
-807612.06      3.2592377      35.235826      25.843102      34.118787    
-807619.65      3.2997547      34.561083      25.867104      33.7144      
-807628.16      3.2303362      34.047317      25.848435      33.310153    
-807637.04      3.3741708      34.230167      25.853541      32.905975    
-807642.9       3.0086301      34.286193      25.814969      32.501992    
-807644.84      3.1201718      34.501383      25.851025      32.097985    
-807639.61      2.5225701      33.432905      25.830137      31.694118    
-807627.42      2.7765247      34.425988      25.885558      31.290177    
-807616.31      3.2984696      35.677578      25.904206      30.886269    
-807615.55      3.1997679      35.44375       25.880097      30.482509    
-807621.74      2.8995656      34.337154      25.862507      30.078878    
-807628.06      4.0182963      33.7164        25.860568      29.675331    
-807639.45      3.0841216      33.937909      25.869815      29.27184     
-807644.28      3.3846167      34.257863      25.861325      28.868449    
-807644.77      3.1352802      33.470637      25.876257      28.465099    
-807634.96      3.7243548      34.092547      25.864707      28.061856    
-807626.72      3.2128077      34.09068       25.875121      27.658665    
-807618.5       4.0180511      35.195783      25.873957      27.255555    
-807616.09      3.5343568      36.26304       25.857374      26.852559    
-807618.94      3.6208886      35.855417      25.886311      26.449573    
-807632.7       4.6705583      34.599439      25.882544      26.046671    
-807640.88      3.1362095      33.756926      25.858228      25.643899    
-807645.28      4.0277317      33.573692      25.851048      25.241216    
-807640.25      3.2447738      34.656637      25.867875      24.838569    
-807637.04      3.0918398      32.630633      25.869348      24.435993    
-807625.49      3.2227398      34.263828      25.855539      24.033517    
-807618.73      3.9370772      34.78171       25.870806      23.631083    
-807613.49      3.3943664      35.965546      25.883461      23.228695    
-807623.39      3.7048575      34.70497       25.869441      22.826407    
-807633.35      3.9228968      34.982758      25.842748      22.42424     
-807639.94      3.7835613      34.623881      25.825781      22.022173    
-807643.33      4.0965573      34.674971      25.833851      21.620158    
-807641.33      3.0567256      34.63717       25.866632      21.218151    
-807634.3       3.5306724      34.313848      25.860498      20.816224    
-807621.88      2.6305429      34.674051      25.861806      20.414363    
-807616.15      2.9838953      35.512931      25.861759      20.012569    
-807615.47      2.8652598      35.410078      25.887935      19.6108      
-807624.35      3.5669447      34.774472      25.873901      19.209121    
-807630.01      3.3048793      36.113165      25.852047      18.807543    
-807639.46      3.6035766      35.685557      25.825236      18.406072    
-807642.26      4.0300862      35.372698      25.860316      18.004611    
-807641.16      3.4187355      34.944551      25.847277      17.603233    
-807630.59      3.2520875      34.919512      25.856617      17.201906    
-807621.88      3.6832409      35.54221       25.831563      16.800676    
-807615.22      3.0877736      36.127274      25.849177      16.399485    
-807618.46      3.676676       35.497393      25.816449      15.998399    
-807620.6       3.7648         35.318753      25.830975      15.597354    
-807632.96      3.3337673      34.296039      25.823358      15.196378    
-807641.26      2.9190007      34.468731      25.847791      14.795433    
-807641.42      2.9311214      34.753269      25.882025      14.394508    
-807640.05      2.8479481      34.11654       25.892087      13.993635    
-807631.02      3.6070078      34.919272      25.889096      13.592828    
-807622.77      3.0965013      34.995659      25.875308      13.192097    
-807616.59      3.0530753      35.509859      25.856996      12.791447    
-807618.07      3.6224514      35.752794      25.854493      12.390858    
-807623.81      3.7610277      35.978975      25.83373       11.990347    
-807634.97      3.5266719      35.08349       25.824793      11.589902    
-807640.04      3.7185018      35.024682      25.832252      11.189507    
-807643.52      3.5039829      34.213411      25.856631      10.789147    
-807636.09      3.1652134      35.080252      25.844413      10.388854    
-807630.87      3.2468296      35.093667      25.841787      9.9886191    
-807620.47      3.813462       34.602648      25.845001      9.5884379    
-807620.55      4.0939304      34.914665      25.861932      9.1883001    
-807616.53      3.9625971      36.065932      25.865487      8.7882162    
-807629.21      3.6374253      34.091241      25.806915      8.388227     
-807635.95      3.620976       34.525942      25.86909       7.988251     
-807642.91      3.2938202      34.51687       25.920596      7.5883005    
-807640.27      3.4206988      34.878839      25.898832      7.1884209    
-807638.22      3.7364753      34.846788      25.872755      6.7886119    
-807629.23      3.4767128      35.018262      25.860115      6.3888641    
-807621.37      3.3369419      35.731709      25.854694      5.9891727    
-807617.45      3.1788096      35.376008      25.330485      5.5897649    
-807621.83      3.2320544      35.715611      25.814077      5.1901788    
-807629.35      3.0880102      34.738572      25.82916       4.7906371    
-807636.78      3.803268       35.622414      25.858207      4.3911363    
-807640.1       3.2974727      34.73011       25.829416      3.9916964    
-807640.95      4.6859876      34.464368      25.853067      3.5923       
-807637.52      2.7751231      34.163809      25.841849      3.1929576    
-807627.3       3.2878234      34.858947      25.888373      2.7936555    
-807621.92      3.3069649      34.398937      25.874474      2.3944087    
-807618.5       3.3129973      35.184647      25.87872       1.9952128    
-807623.36      3.6399068      35.019123      25.934355      1.5960617    
-807630.13      3.2244429      34.364441      25.878556      1.1969703    
-807638.09      3.6443529      34.109509      25.881835      0.7979295    
-807640.43      2.8421795      34.649142      25.839919      0.39894077   
-807642.02      4.2988594      34.072279      25.831588      0            
Loop time of 199.461 on 32 procs for 5000 steps with 1080 atoms

Performance: 4.332 ns/day, 5.541 hours/ns, 25.068 timesteps/s, 27.073 katom-step/s
67.8% CPU use with 32 MPI tasks x 1 OpenMP threads

MPI task timing breakdown:
Section |  min time  |  avg time  |  max time  |%varavg| %total
---------------------------------------------------------------
Pair    | 100.5      | 144.88     | 192.97     | 316.3 | 72.63
Neigh   | 0          | 0          | 0          |   0.0 |  0.00
Comm    | 3.8102     | 51.912     | 96.302     | 528.5 | 26.03
Output  | 0.032855   | 0.063187   | 0.068576   |   4.6 |  0.03
Modify  | 2.1855     | 2.2199     | 2.2843     |   2.0 |  1.11
Other   |            | 0.3896     |            |       |  0.20

Nlocal:          33.75 ave          48 max          21 min
Histogram: 8 8 0 0 0 0 0 8 0 8
Nghost:        1106.25 ave        1119 max        1092 min
Histogram: 8 0 8 0 0 0 0 0 8 8
Neighs:              0 ave           0 max           0 min
Histogram: 32 0 0 0 0 0 0 0 0 0
FullNghs:       5494.5 ave        7896 max        3378 min
Histogram: 8 8 0 0 0 0 0 8 0 8

Total # of neighbors = 175824
Ave neighs/atom = 162.8
Neighbor list builds = 0
Dangerous builds = 0

reset_timestep 0


variable interval equal 1000
thermo 10

variable nintervals equal $(v_PERIOD/v_interval)
variable nintervals equal 100
variable efield equal 1e-2*36.36*cos((step/${PERIOD})*2*3.14)
variable efield equal 1e-2*36.36*cos((step/100000)*2*3.14)
fix born all addbornforce 0.0 0.0 v_efield

variable Px equal f_born[1]+c_polarization[1]
variable Py equal f_born[2]+c_polarization[2]
variable Pz equal (f_born[3]+c_polarization[3])/vol
variable pe equal pe

fix aveP all ave/time 1 $(v_interval/2) ${interval} v_efield v_Pz v_pe f_born file Pz.${MODEL}.${STRUCTURE}.${TEMP}.$L.${ITER}
fix aveP all ave/time 1 500 ${interval} v_efield v_Pz v_pe f_born file Pz.${MODEL}.${STRUCTURE}.${TEMP}.$L.${ITER}
fix aveP all ave/time 1 500 1000 v_efield v_Pz v_pe f_born file Pz.${MODEL}.${STRUCTURE}.${TEMP}.$L.${ITER}
fix aveP all ave/time 1 500 1000 v_efield v_Pz v_pe f_born file Pz.BaTiO3-E0.${STRUCTURE}.${TEMP}.$L.${ITER}
fix aveP all ave/time 1 500 1000 v_efield v_Pz v_pe f_born file Pz.BaTiO3-E0.BaTiO3-sc333.${TEMP}.$L.${ITER}
fix aveP all ave/time 1 500 1000 v_efield v_Pz v_pe f_born file Pz.BaTiO3-E0.BaTiO3-sc333.310.$L.${ITER}
fix aveP all ave/time 1 500 1000 v_efield v_Pz v_pe f_born file Pz.BaTiO3-E0.BaTiO3-sc333.310.2.${ITER}
fix aveP all ave/time 1 500 1000 v_efield v_Pz v_pe f_born file Pz.BaTiO3-E0.BaTiO3-sc333.310.2.8

thermo_style custom step time temp press pe f_born v_efield v_Pz spcpu cpuremain

# dump 4a all custom 1000 dump.hyst.${MODEL}.${STRUCTURE}.${TEMP}.$L.${ITER}.bin id type xu yu zu fx fy fz
# dump_modify 4a sort id

fix nvt all nvt temp ${TEMP} ${TEMP} $(100*dt)
fix nvt all nvt temp 310 ${TEMP} $(100*dt)
fix nvt all nvt temp 310 310 $(100*dt)
fix nvt all nvt temp 310 310 0.2000000000000000111

run $(v_PERIOD)
run 100000
WARNING: non-constant efield is experimental, strongly distrust scalar/vector output (src/fix_addbornforce.cpp:193)
Per MPI rank memory allocation (min/avg/max) = 3.516 | 3.516 | 3.516 Mbytes
   Step          Time           Temp          Press          PotEng         f_born        v_efield         v_Pz          S/CPU         CPULeft    
         0   0              303.86379      124447.26     -807642.02     -291.11411      0.3636         0.054750351    0              0            
        10   0.02           312.3661       131521.15     -807634.31     -299.95811      0.36359993     0.056413669    28.597855      3496.4356    
        20   0.04           311.19022      135694.78     -807627.37     -306.90565      0.36359971     0.057720339    28.588879      3496.625     
        30   0.06           317.23279      143467.97     -807620.62     -314.37295      0.36359935     0.059124786    28.590403      3496.3928    
        40   0.08           299.32049      141775.32     -807619.15     -313.51405      0.36359885     0.058963333    28.594417      3495.9787    
        50   0.1            321.26259      140931.25     -807622.98     -312.60794      0.36359821     0.058793022    28.644885      3494.3593    
        60   0.12           299.20965      132995.54     -807629.01     -303.60961      0.36359742     0.057100806    28.666139      3492.7319    
        70   0.14           314.20292      129239.91     -807637.7      -296.83581      0.36359649     0.05582698     28.5907        3492.7831    
        80   0.16           291.69856      123150        -807641.16     -290.29518      0.36359541     0.054597022    28.52356       3493.7637    
        90   0.18           302.30458      127103.68     -807638.69     -294.16055      0.36359419     0.055324183    28.669003      3492.4735    
       100   0.2            301.97009      130129.33     -807633.43     -299.46276      0.36359283     0.056321606    28.658909      3491.4941    
       110   0.22           326.78036      137747.41     -807628.31     -307.94722      0.36359132     0.057917564    28.63001       3490.9498    
       120   0.24           310.19532      140826.17     -807620.89     -313.07039      0.36358968     0.058881378    28.661072      3490.1221    
       130   0.26           312.83587      143479.83     -807619.59     -314.60581      0.36358788     0.059170447    28.670639      3489.2789    
       140   0.28           318.03151      138219.14     -807624.89     -310.01909      0.36358595     0.058308097    28.6827        3488.4018    
       150   0.3            307.20686      133839.66     -807630.46     -302.81781      0.36358387     0.056954013    28.612686      3488.163     
       160   0.32           311.39773      127068.96     -807638.84     -294.92377      0.36358165     0.055469639    28.510286      3488.6937    
       170   0.34           303.70542      124889.56     -807640.6      -291.86065      0.36357928     0.054893881    28.559255      3488.7675    
       180   0.36           313.68305      126471.83     -807640.02     -293.75075      0.36357677     0.055249758    28.634109      3488.2866    
       190   0.38           307.8655       131316.18     -807632.52     -300.3646       0.36357412     0.056494128    28.640215      3487.7802    
       200   0.4            314.32828      138418.11     -807624.89     -308.70579      0.36357132     0.058063428    28.660028      3487.1696    
       210   0.42           320.98188      141822.78     -807621.66     -312.68538      0.36356838     0.058812411    28.656356      3486.6049    
       220   0.44           313.61064      142652.86     -807618.92     -314.10855      0.3635653      0.059080594    28.656199      3486.0606    
       230   0.46           314.82681      137346.44     -807624.8      -308.26588      0.36356207     0.057982162    28.560309      3486.0416    
       240   0.48           311.1629       134319.59     -807629.7      -302.47813      0.3635587      0.056894063    28.590312      3485.8423    
       250   0.5            319.66825      125977.47     -807638.21     -294.9442       0.36355519     0.055477519    28.605317      3485.5577    
       260   0.52           312.00534      127160.87     -807638.18     -293.65504      0.36355153     0.055235589    28.579504      3485.3892    
       270   0.54           306.81892      127166.52     -807637.33     -293.67711      0.36354773     0.055240319    28.663974      3484.8265    
       280   0.56           323.42866      133669.38     -807631.04     -301.98736      0.36354379     0.056804083    28.639241      3484.3863    
       290   0.58           327.88941      136466.4      -807625.7      -307.92159      0.3635397      0.057920967    28.649229      3483.9104    
       300   0.6            323.42769      143244.74     -807618.91     -313.83897      0.36353547     0.059034731    28.627577      3483.531     
       310   0.62           314.07544      140792.14     -807619.86     -311.55528      0.3635311      0.058605863    28.5907        3483.2982    
       320   0.64           318.0856       139579.81     -807623.34     -308.45424      0.36352658     0.058023255    28.535327      3483.2696    
       330   0.66           319.9024       131726.13     -807631.5      -300.54105      0.36352192     0.056535432    28.596228      3482.996     
       340   0.68           318.23462      129630.67     -807635.65     -296.02744      0.36351712     0.055687102    28.612697      3482.659     
       350   0.7            305.73817      126485.98     -807637.69     -292.30123      0.36351217     0.054986895    28.60174       3482.3594    
       360   0.72           311.87183      129369.58     -807635.64     -295.21921      0.36350708     0.055536596    28.616717      3482.0063    
       370   0.74           331.93236      132634.96     -807631.39     -302.37128      0.36350185     0.056882861    28.646076      3481.5571    
       380   0.76           320.91232      138595.47     -807623.08     -309.30131      0.36349647     0.058187416    28.504821      3481.5666    
       390   0.78           324.22245      142167.85     -807620.17     -312.78612      0.36349095     0.058843892    28.529068      3481.4814    
       400   0.8            320.25988      141102.23     -807620.76     -311.7478       0.36348529     0.058649468    28.512388      3481.4342    
       410   0.82           324.77645      137443.7      -807626.29     -307.03518      0.36347948     0.057763801    28.586921      3481.1497    
       420   0.84           321.98119      131328.91     -807632.83     -300.3803       0.36347353     0.056512715    28.607523      3480.8028    
       430   0.86           306.8392       128220.64     -807636.51     -294.80309      0.36346744     0.055464364    28.650473      3480.334     
       440   0.88           308.85631      126386.46     -807639.09     -292.79189      0.3634612      0.055086921    28.660916      3479.8422    
       450   0.9            304.06473      130236.37     -807633.8      -297.67204      0.36345482     0.056006074    28.656178      3479.3695    
       460   0.92           320.64414      133308.05     -807630.75     -303.42612      0.3634483      0.057089711    28.665398      3478.8777    
       470   0.94           319.36677      139857.28     -807623.49     -310.78294      0.36344163     0.058474971    28.659046      3478.4085    
       480   0.96           316.20089      140081.25     -807621.87     -312.33144      0.36343482     0.058767429    28.572295      3478.1639    
       490   0.98           305.8081       141016.39     -807621.21     -311.69948      0.36342786     0.058649643    28.56709       3477.928     
       500   1              311.56533      135072.7      -807628.63     -305.36478      0.36342077     0.057458823    28.617564      3477.5646    
       510   1.02           311.96382      130893.99     -807633.3      -9627.6355      0.36341353     0.05661299     28.514966      3477.4471    
       520   1.04           297.98984      125841.27     -807638.68     -9397.4162      0.36340614     0.055260364    28.538194      3477.2659    
       530   1.06           302.14632      127561.54     -807639.12     -9402.5855      0.36339862     0.055291906    28.567119      3477.0118    
       540   1.08           300.7843       128931.54     -807635.15     -9529.5612      0.36339095     0.056039769    28.520532      3476.8595    
       550   1.1            316.41179      135403.01     -807629.86     -9768.6127      0.36338313     0.057446777    28.52122       3476.6984    
       560   1.12           310.23365      138908.26     -807624.15     -9927.4673      0.36337518     0.058382239    28.512888      3476.5488    
       570   1.14           303.82953      141955.24     -807620.4      -10017.914      0.36336707     0.058915459    28.506927      3476.405     
       580   1.16           307.36821      139222.6      -807623.68     -9931.2847      0.36335883     0.058407316    28.536749      3476.1911    
       590   1.18           312.95978      136030.8      -807629.47     -9769.8112      0.36335044     0.057458993    28.502058      3476.0444    
       600   1.2            315.48041      128908.18     -807636.45     -9557.2705      0.36334191     0.056210302    28.53398       3475.8259    
       610   1.22           304.79872      126061.1      -807639.76     -9399.7943      0.36333324     0.055285438    28.551305      3475.5685    
       620   1.24           303.08395      126639.61     -807639.66     -9396.0224      0.36332442     0.055264594    28.5725        3475.2664    
       630   1.26           313.31115      129092.21     -807636.44     -9544.7262      0.36331546     0.05614061     28.495098      3475.1127    
       640   1.28           316.36803      136046.17     -807629.18     -9789.8961      0.36330636     0.057584105    28.507381      3474.9294    
       650   1.3            298.96603      139837.06     -807621.77     -9951.8335      0.36329711     0.05853811     28.528249      3474.7017    
       660   1.32           296.68921      142783.64     -807618.88     -10029.17       0.36328772     0.058994537    28.521424      3474.4829    
       670   1.34           303.63837      138778.75     -807623.42     -9913.4167      0.36327819     0.058315174    28.512734      3474.276     
       680   1.36           314.59228      135196.42     -807628.98     -9781.1698      0.36326851     0.057538771    28.533496      3474.0277    
       690   1.38           306.34611      128964.13     -807635.83     -9522.5479      0.36325869     0.056018914    28.531165      3473.7804    
       700   1.4            312.04027      126317.01     -807640.09     -9404.5954      0.36324873     0.055326545    28.494945      3473.5934    
       710   1.42           303.3165       125968.4      -807639.77     -9375.1601      0.36323863     0.055154914    28.568111      3473.2762    
       720   1.44           307.47596      131088.61     -807633.79     -9579.8337      0.36322838     0.056360618    28.554198      3472.9815    
       730   1.46           313.58534      134881.88     -807628.57     -9774.9725      0.36321798     0.057510314    28.522697      3472.738     
       740   1.48           309.04373      140673.86     -807621.83     -9964.2618      0.36320745     0.058625684    28.48919       3472.5468    
       750   1.5            305.12588      141245.32     -807620.41     -9988.1411      0.36319677     0.058767909    28.520453      3472.3004    
       760   1.52           308.14969      139142.28     -807622.76     -9921.1357      0.36318595     0.058375403    28.528022      3472.0392    
       770   1.54           314.5932       134352.93     -807628.83     -9749.5116      0.36317498     0.057367309    28.535794      3471.7633    
       780   1.56           308.63017      128961.82     -807634.58     -9532.4692      0.36316387     0.056091921    28.514574      3471.5187    
       790   1.58           309.10068      126818.86     -807639.53     -9371.4239      0.36315262     0.055145991    28.492331      3471.3058    
       800   1.6            307.8432       127891.64     -807637.65     -9419.9571      0.36314122     0.055433323    28.508919      3471.0641    
       810   1.62           317.42417      131176.24     -807633.05     -9605.1193      0.36312968     0.056524737    28.526811      3470.7929    
       820   1.64           327.02687      136165.58     -807628.29     -9792.7913      0.363118       0.057631014    28.527186      3470.519     
       830   1.66           314.25565      140830.11     -807622.09     -9927.8414      0.36310618     0.058427692    28.537927      3470.2276    
       840   1.68           323.11575      141256.68     -807621.08     -9993.7105      0.36309421     0.058817286    28.581717      3469.8714    
       850   1.7            317.77403      139684.01     -807623.15     -9896.6332      0.3630821      0.058247887    28.59098       3469.5021    
       860   1.72           324.67549      133454.7      -807630.8      -9675.3976      0.36306984     0.056947699    28.556151      3469.1825    
       870   1.74           317.52564      129104.32     -807635.88     -9471.7672      0.36305745     0.05575107     28.564132      3468.8509    
       880   1.76           313.44241      126038.6      -807637.98     -9382.8837      0.3630449      0.055229807    28.609501      3468.4565    
       890   1.78           304.77908      129378.23     -807633.81     -9469.4729      0.36303222     0.055741439    28.536334      3468.1629    
       900   1.8            322.86044      131303.58     -807633.13     -9569.3876      0.36301939     0.05633157     28.565284      3467.8289    
       910   1.82           330.38299      138061.9      -807625.81     -9829.6426      0.36300642     0.057865666    28.536755      3467.5326    
       920   1.84           326.3625       139554.89     -807621.07     -9959.8641      0.36299331     0.058634379    28.498269      3467.2861    
       930   1.86           317.76325      142720.43     -807618.57     -9992.3412      0.36298005     0.058827723    28.531012      3466.9945    
       940   1.88           323.01168      136882.25     -807625.16     -9801.4069      0.36296665     0.057705769    28.503164      3466.7378    
       950   1.9            329.9434       134305.62     -807629.88     -9674.1699      0.36295311     0.056958787    28.524788      3466.4513    
       960   1.92           312.36176      128741.01     -807633.94     -9465.8278      0.36293942     0.055734229    28.527021      3466.1607    
       970   1.94           310.48172      129373.92     -807634.27     -9438.8502      0.36292559     0.055577504    28.500078      3465.9026    
       980   1.96           320.76679      126950.58     -807637.44     -9384.7423      0.36291162     0.055261035    28.517777      3465.6206    
       990   1.98           322.40456      135051.88     -807629.16     -9653.1396      0.3628975      0.056843674    28.52751       3465.3253    
      1000   2              326.30211      135880.87     -807624.19     -9834.1818      0.36288325     0.057912039    28.45665       3465.1153    
      1010   2.02           324.93639      142872.74     -807618.42     -312.72544      0.36286884     0.05893334     28.500997      3464.849     
      1020   2.04           331.34247      138748.87     -807623.63     -308.63886      0.3628543      0.058165552    28.539423      3464.5351    
      1030   2.06           327.0315       139725.77     -807623.86     -307.78149      0.36283961     0.058006322    28.585757      3464.1659    
      1040   2.08           329.30141      131568.23     -807632.06     -300.22803      0.36282478     0.056585065    28.639579      3463.7346    
      1050   2.1            311.17753      131009.31     -807633.24     -296.62728      0.3628098      0.055908726    28.622901      3463.324     
      1060   2.12           308.98539      125850.29     -807638.87     -291.06917      0.36279469     0.054863412    28.681148      3462.8483    
      1070   2.14           312.51933      130526.2      -807634.03     -296.65777      0.36277943     0.055919155    28.664789      3462.3934    
      1080   2.16           319.11308      132407.36     -807629.7      -302.45293      0.36276402     0.057013947    28.67746       3461.9263    
      1090   2.18           313.08841      139664.68     -807622.65     -308.99574      0.36274848     0.058249797    28.72829       3461.4054    
      1100   2.2            321.49052      140616.14     -807623.21     -309.93881      0.36273279     0.058430104    28.782106      3460.8292    
      1110   2.22           308.18935      140306.55     -807622.2      -309.37947      0.36271695     0.058327204    28.700868      3460.3447    
      1120   2.24           319.40141      136856.09     -807626.58     -306.86793      0.36270098     0.057856251    28.65693       3459.9097    
      1130   2.26           310.52922      131048.48     -807632.87     -299.57993      0.36268486     0.056484697    28.633141      3459.5017    
      1140   2.28           310.51705      128313.4      -807637.84     -294.69131      0.3626686      0.055565457    28.637431      3459.0902    
      1150   2.3            304.56659      126085.13     -807639.83     -292.17529      0.36265219     0.055093542    28.669794      3458.6458    
      1160   2.32           307.08232      131560.77     -807633.05     -299.38087      0.36263564     0.056454827    28.611651      3458.2635    
      1170   2.34           314.41538      132318.72     -807630.45     -303.29599      0.36261895     0.05719574     28.646592      3457.8458    
      1180   2.36           309.42517      139708.96     -807624.44     -308.60015      0.36260212     0.058198704    28.646002      3457.4298    
      1190   2.38           313.5465       138875.39     -807625        -308.84216      0.36258514     0.05824707     28.637671      3457.0234    
      1200   2.4            307.54742      141136.55     -807621.71     -311.30162      0.36256802     0.058713694    28.618856      3456.6368    
      1210   2.42           311.78775      134158.91     -807629.61     -304.1755       0.36255076     0.057372389    28.649435      3456.2204    
      1220   2.44           305.98547      132119.32     -807634.64     -298.2799       0.36253335     0.056263084    28.646701      3455.8078    
      1230   2.46           296.25181      126152.26     -807638.91     -292.78642      0.3625158      0.05522955     28.656511      3455.3866    
      1240   2.48           291.6457       129227.02     -807634.99     -296.03413      0.36249811     0.055844904    28.663579      3454.9598    
      1250   2.5            306.34393      128107.38     -807636.39     -296.81479      0.36248028     0.055994926    28.653867      3454.5435    
      1260   2.52           304.36065      136467.78     -807629.08     -303.74933      0.3624623      0.057305988    28.699481      3454.0849    
      1270   2.54           312.70404      137317.85     -807626.71     -307.41864      0.36244418     0.058001147    28.626249      3453.6972    
      1280   2.56           304.86286      143094.54     -807619.87     -313.08568      0.36242592     0.059073334    28.655651      3453.2826    
      1290   2.58           301.44715      137609.31     -807625.23     -307.35571      0.36240751     0.057995142    28.629746      3452.8931    
      1300   2.6            309.33502      135375.12     -807630.02     -303.4622       0.36238896     0.057263405    28.609147      3452.5233    
      1310   2.62           302.31112      128073.13     -807636.12     -296.45158      0.36237027     0.055943384    28.594149      3452.1676    
      1320   2.64           302.34851      128971.33     -807636.84     -295.6244       0.36235143     0.055790187    28.616122      3451.792     
      1330   2.66           294.4048       126909.03     -807637.32     -294.00289      0.36233245     0.055487081    28.677897      3451.3609    
      1340   2.68           310.64966      131524.52     -807636.01     -297.48502      0.36231333     0.056147227    28.663051      3450.9443    
      1350   2.7            315.02794      135266.95     -807629.5      -304.55737      0.36229407     0.057485115    28.625471      3450.5622    
      1360   2.72           317.21696      139807.75     -807623.27     -311.02827      0.36227466     0.058709641    28.644059      3450.1642    
      1370   2.74           309.1829       140025.67     -807623.12     -309.90319      0.36225511     0.058500428    28.622895      3449.7854    
      1380   2.76           307.90049      137344.57     -807626.69     -305.99984      0.36223542     0.057766733    28.618874      3449.4105    
      1390   2.78           311.62332      132924.07     -807630.99     -302.04259      0.36221558     0.057022805    28.570887      3449.0777    
      1400   2.8            308.36835      129688.29     -807634.35     -297.98783      0.3621956      0.056260407    28.600723      3448.7189    
      1410   2.82           301.65127      127478.7      -807637.56     -293.66859      0.36217548     0.05544801     28.665696      3448.3049    
      1420   2.84           307.74956      127858.91     -807638.68     -293.19032      0.36215522     0.055360805    28.652692      3447.9027    
      1430   2.86           305.08644      133452.29     -807630.59     -300.69164      0.36213481     0.056780419    28.626283      3447.5235    
      1440   2.88           314.55994      137284.36     -807625.41     -307.0756       0.36211426     0.05798921     28.631154      3447.1406    
      1450   2.9            321.39833      140977.31     -807623.49     -309.6126       0.36209357     0.058471647    28.59861       3446.7852    
      1460   2.92           311.88237      140051.41     -807623.96     -307.58143      0.36207273     0.058091395    28.591899      3446.4354    
      1470   2.94           315.18718      138319.81     -807624.97     -306.7691       0.36205176     0.057941331    28.535475      3446.132     
      1480   2.96           309.80056      132417.84     -807628.71     -302.14023      0.36203064     0.057070379    28.599118      3445.776     
      1490   2.98           318.53912      129831.73     -807636.01     -295.70146      0.36200937     0.055857458    28.590643      3445.427     
      1500   3              307.52012      126442.06     -807639.37     -290.58523      0.36198796     0.054894258    28.611919      3445.0609    
      1510   3.02           312.65362      130840.1      -807633.7      -9495.7124      0.36196642     0.05606048     28.543206      3444.7498    
      1520   3.04           312.90488      132137.48     -807629.21     -9641.8853      0.36194472     0.056926863    28.526959      3444.4512    
      1530   3.06           332.00764      138165.13     -807626.99     -9787.0603      0.36192289     0.05778748     28.510895      3444.1646    
      1540   3.08           316.92431      137845.83     -807624.61     -9796.4427      0.36190091     0.057846391    28.511167      3443.877     
      1550   3.1            312.44477      141847.18     -807619.56     -9932.8541      0.36187879     0.058655463    28.517317      3443.5837    
      1560   3.12           315.88863      136472.24     -807624.9      -9778.4665      0.36185653     0.057747326    28.536766      3443.2747    
      1570   3.14           326.01036      133876.62     -807631.94     -9590.046       0.36183412     0.056638104    28.525578      3442.9737    
      1580   3.16           314.00203      127810.33     -807637.04     -9375.8404      0.36181157     0.055376473    28.591157      3442.622     
      1590   3.18           314.0326       129604.99     -807634.89     -9439.6386      0.36178888     0.055756781    28.59829       3442.2649    
      1600   3.2            321.57606      128357.73     -807634.59     -9487.9198      0.36176605     0.056045498    28.561061      3441.936     
      1610   3.22           321.3309       134264.25     -807630.12     -9629.1709      0.36174307     0.056883487    28.555758      3441.6108    
      1620   3.24           329.90961      136041.15     -807628.92     -9712.0625      0.36171995     0.057376829    28.576201      3441.27      
      1630   3.26           313.3253       141070.76     -807620.18     -9919.6675      0.36169669     0.058607085    28.543559      3440.9533    
      1640   3.28           315.04781      138896.42     -807622.31     -9866.5193      0.36167329     0.058296848    28.511695      3440.6596    
      1650   3.3            321.17713      136564.42     -807628        -9716.8571      0.36164974     0.057416299    28.526544      3440.3544    
      1660   3.32           318.88863      131484.04     -807634.4      -9511.96        0.36162605     0.056209257    28.512501      3440.0589    
      1670   3.34           301.66505      130405.67     -807633.3      -9480.0262      0.36160222     0.056024242    28.521339      3439.7563    
      1680   3.36           305.87684      128607.31     -807635.39     -9444.7169      0.36157824     0.055819275    28.517703      3439.4558    
      1690   3.38           309.92783      129591.1      -807635.89     -9459.2839      0.36155413     0.055909097    28.549118      3439.1321    
      1700   3.4            317.21298      133700.29     -807632.02     -9631.4338      0.36152987     0.056930409    28.564626      3438.7972    
      1710   3.42           312.95517      136584.87     -807625.67     -9829.4659      0.36150546     0.058104878    28.519428      3438.494     
      1720   3.44           311.17008      139166.34     -807623.21     -9907.9524      0.36148092     0.058572812    28.49534       3438.2072    
      1730   3.46           306.18815      137390.55     -807627.45     -9758.8195      0.36145623     0.057695124    28.536946      3437.8906    
      1740   3.48           301.65176      135128.79     -807629.49     -9678.2027      0.3614314      0.05722244     28.607544      3437.5248    
      1750   3.5            308.57152      130852.25     -807632.48     -9618.2384      0.36140643     0.05687183     28.518661      3437.2203    
      1760   3.52           301.90594      129569.62     -807635.53     -9491.79        0.36138131     0.056128052    28.581441      3436.8723    
      1770   3.54           296.12623      128318.71     -807638.6      -9367.607       0.36135605     0.055397589    28.518343      3436.5673    
      1780   3.56           311.17614      130247.32     -807637.02     -9484.0121      0.36133065     0.056089922    28.53304       3436.2517    
      1790   3.58           312.12258      133152.77     -807630.64     -9696.7613      0.36130511     0.057352207    28.511052      3435.9506    
      1800   3.6            310.68047      136959.44     -807626.18     -9831.9564      0.36127942     0.058155963    28.490878      3435.6625    
      1810   3.62           300.46261      137950.28     -807626.82     -9763.6711      0.3612536      0.057756185    28.539842      3435.3411    
      1820   3.64           293.96691      138084.18     -807625.58     -9772.4801      0.36122763     0.05781245     28.508912      3435.0398    
      1830   3.66           310.79078      134940.73     -807628.75     -9744.4293      0.36120151     0.057650674    28.529117      3434.7247    
      1840   3.68           295.65169      132288.67     -807631.69     -9580.0086      0.36117526     0.056682037    28.520178      3434.415     
      1850   3.7            302.39917      128756.39     -807638.44     -9387.8527      0.36114886     0.055549168    28.512238      3434.1101    
      1860   3.72           300.74641      128537.33     -807637.46     -9406.7056      0.36112232     0.055664814    28.526923      3433.7951    
      1870   3.74           311.59522      131132.03     -807633.82     -9568.7315      0.36109564     0.056627797    28.583678      3433.4433    
      1880   3.76           312.50817      134373.95     -807630.12     -9687.4655      0.36106881     0.057334725    28.590384      3433.0872    
      1890   3.78           317.70998      136224.01     -807629.79     -9715.4733      0.36104184     0.057504782    28.557915      3432.7518    
      1900   3.8            301.21175      138517.15     -807624.88     -9793.9497      0.36101474     0.057973628    28.635298      3432.3673    
      1910   3.82           311.82828      137356.64     -807625.39     -9821.6975      0.36098748     0.058142266    28.625091      3431.9897    
      1920   3.84           311.55715      133934.93     -807629.49     -9682.5233      0.36096009     0.057322735    28.613513      3431.6196    
      1930   3.86           308.9318       129876.48     -807635.7      -9461.1047      0.36093255     0.05601616     28.577665      3431.2719    
      1940   3.88           301.98439      128571.93     -807636.55     -9396.7317      0.36090487     0.055639295    28.587188      3430.9184    
      1950   3.9            308.03668      129798.89     -807634.56     -9483.5914      0.36087705     0.056157932    28.599939      3430.557     
      1960   3.92           303.74033      131750.72     -807631.67     -9549.0322      0.36084909     0.056549828    28.584888      3430.205     
      1970   3.94           324.05995      134097.54     -807632.14     -9616.4605      0.36082098     0.056953578    28.552983      3429.8724    
      1980   3.96           310.77932      137618.14     -807625.93     -9750.7613      0.36079273     0.057753497    28.509689      3429.566     
      1990   3.98           312.45979      139862.95     -807622.76     -9855.521       0.36076434     0.058378579    28.517236      3429.2546    
      2000   4              311.83828      136497.98     -807625.82     -9748.302       0.36073581     0.057748042    28.499083      3428.9537    
      2010   4.02           317.95879      134338.59     -807631.74     -299.32005      0.36070713     0.056745131    28.541867      3428.6267    
      2020   4.04           312.56146      130161.84     -807634.67     -295.51687      0.36067831     0.056028599    28.51112       3428.3177    
      2030   4.06           314.86128      129596.55     -807633.68     -296.63671      0.36064935     0.056245431    28.542703      3427.9897    
      2040   4.08           312.81223      128917.11     -807635.62     -294.31211      0.36062025     0.055809167    28.550575      3427.6568    
      2050   4.1            317.63628      132085.08     -807633.42     -297.00486      0.36059101     0.056324349    28.558575      3427.319     
      2060   4.12           323.3422       134350.63     -807629.44     -301.73688      0.36056162     0.057226398    28.634307      3426.9371    
      2070   4.14           312.46278      137994.04     -807622.53     -307.09792      0.36053209     0.058247926    28.66865       3426.5357    
      2080   4.16           320.01445      137762.01     -807624.34     -306.22752      0.36050242     0.058087616    28.702741      3426.1153    
      2090   4.18           315.83819      136643.79     -807627.92     -301.92136      0.36047261     0.057275525    28.628926      3425.7376    
      2100   4.2            311.23904      134417.39     -807629.17     -300.02963      0.36044265     0.056921389    28.512573      3425.4267    
      2110   4.22           317.97927      130819.31     -807632.63     -297.54755      0.36041256     0.056455204    28.544183      3425.0974    
      2120   4.24           321.90883      129941.86     -807635.95     -294.71526      0.36038232     0.055922511    28.644544      3424.7112    
      2130   4.26           301.65808      129871.56     -807634.7      -293.18432      0.36035193     0.055636706    28.579855      3424.3617    
      2140   4.28           321.75646      133046.5      -807632.67     -298.04603      0.36032141     0.056564089    28.601315      3424.0002    
      2150   4.3            308.17722      135495.23     -807624.88     -304.06762      0.36029075     0.057711796    28.659245      3423.6066    
      2160   4.32           322.2592       137808.19     -807625.86     -305.06217      0.36025994     0.057905511    28.638408      3423.2249    
      2170   4.34           315.79196      136786.39     -807627.56     -302.56592      0.36022899     0.057436618    28.652799      3422.8357    
      2180   4.36           309.40025      136551.37     -807626.08     -303.32046      0.36019789     0.057584825    28.686927      3422.4281    
      2190   4.38           318.87879      132667.46     -807630.39     -300.58028      0.36016666     0.057069557    28.693906      3422.0174    
      2200   4.4            314.82276      131366.12     -807634.48     -296.07933      0.36013528     0.056219883    28.742844      3421.5807    
      2210   4.42           305.29045      127194.08     -807637.5      -292.02198      0.36010377     0.055454321    28.762325      3421.1345    
      2220   4.44           307.70445      131062.22     -807634.03     -296.14171      0.36007211     0.056241594    28.722848      3420.7102    
      2230   4.46           304.35574      131561.24     -807631.05     -299.14629      0.3600403      0.056817225    28.697995      3420.2998    
      2240   4.48           312.65256      135768.45     -807628.57     -303.08182      0.36000836     0.057569813    28.697673      3419.8902    
      2250   4.5            303.81465      136254.56     -807628.06     -302.78351      0.35997627     0.057518275    28.683714      3419.4884    
      2260   4.52           302.81851      139078.81     -807625.34     -305.6438       0.35994404     0.058066829    28.682048      3419.088     
      2270   4.54           304.1486       135432.21     -807627.98     -303.46536      0.35991167     0.057658152    28.682761      3418.6877    
      2280   4.56           299.20872      133235.64     -807632.33     -298.57942      0.35987916     0.056734951    28.697535      3418.2801    
      2290   4.58           299.8577       128673.55     -807637.98     -293.17916      0.35984651     0.055713869    28.737738      3417.8523    
      2300   4.6            296.90297      129155.61     -807636.32     -294.42525      0.35981371     0.055955767    28.767376      3417.4099    
      2310   4.62           292.12691      129665.68     -807634.2      -296.00404      0.35978077     0.056260969    28.758177      3416.9731    
      2320   4.64           304.8323       132329.12     -807633.49     -298.46194      0.35974769     0.056733353    28.724017      3416.5544    
      2330   4.66           293.21141      135272.49     -807629.61     -300.76015      0.35971447     0.05717549     28.689255      3416.154     
      2340   4.68           300.61285      137861.87     -807626.64     -304.70236      0.35968111     0.057930291    28.765798      3415.7153    
      2350   4.7            303.01669      136743.56     -807626.37     -305.26888      0.3596476      0.058043405    28.803939      3415.2583    
      2360   4.72           300.89316      134475.92     -807630.25     -300.92915      0.35961396     0.057223608    28.766642      3414.8209    
      2370   4.74           305.18926      131095.91     -807635.51     -296.09706      0.35958017     0.056310046    28.747403      3414.3938    
      2380   4.76           304.51723      129767.2      -807635.98     -295.44575      0.35954624     0.056191487    28.779941      3413.9512    
      2390   4.78           296.79989      129490.33     -807634.03     -296.17875      0.35951216     0.056336236    28.781757      3413.5085    
      2400   4.8            307.13676      130347.82     -807636.4      -295.0472       0.35947795     0.056126345    28.706649      3413.1036    
      2410   4.82           306.91282      132930.08     -807633.59     -297.65397      0.35944359     0.056627638    28.642212      3412.7309    
      2420   4.84           307.66354      135513.05     -807628.16     -303.07111      0.35940909     0.057663764    28.639479      3412.3597    
      2430   4.86           305.1952       138034.85     -807624.72     -305.94797      0.35937446     0.05821674     28.718222      3411.9503    
      2440   4.88           300.5957       136751.78     -807627.96     -301.81177      0.35933967     0.05743525     28.683393      3411.5583    
      2450   4.9            310.85609      133862.72     -807632.69     -298.323        0.35930475     0.056776851    28.660077      3411.1779    
      2460   4.92           303.88853      130820.75     -807632.5      -297.33246      0.35926969     0.056593853    28.683668      3410.7864    
      2470   4.94           298.9692       130581.82     -807632.95     -295.91221      0.35923448     0.056329046    28.707506      3410.3838    
      2480   4.96           295.5973       128985.14     -807636.67     -291.54058      0.35919913     0.055502336    28.660375      3410.0042    
      2490   4.98           319.66093      131049.99     -807637.55     -293.70664      0.35916364     0.055920225    28.650236      3409.6296    
      2500   5              301.82714      133449.86     -807628.05     -300.61801      0.35912801     0.057241795    28.640871      3409.2597    
[...]
     98740   197.48         303.09178      133827.2      -807629.74     -9660.1742      0.36236891     0.056968078    28.003647      43.859745    
     98750   197.5          307.06261      131987.64     -807633.71     -9553.2114      0.36238762     0.056334388    28.013333      43.511764    
     98760   197.52         306.65454      134126.25     -807630.97     -9639.3202      0.36240618     0.056839252    28.041198      43.163777    
     98770   197.54         308.8192       134203.45     -807628.39     -9737.67        0.36242459     0.057416264    27.999227      42.815795    
     98780   197.56         313.77104      136575.53     -807627        -9802.9577      0.36244287     0.057798306    28.011322      42.467809    
     98790   197.58         315.54099      133875.23     -807631.28     -9678.7471      0.362461       0.057063105    27.984004      42.119826    
     98800   197.6          310.55981      136041.29     -807629.84     -9701.1696      0.36247899     0.057192463    27.960822      41.771844    
     98810   197.62         308.55108      132877.17     -807629.95     -9694.4743      0.36249683     0.057150178    27.96866       41.423859    
     98820   197.64         308.61052      133687.09     -807630.46     -9677.3007      0.36251453     0.057046152    27.972922      41.075871    
     98830   197.66         314.99457      130929.9      -807635.56     -9544.524       0.36253209     0.056260729    27.993726      40.727879    
     98840   197.68         308.92529      133740.92     -807632.32     -9620.2999      0.36254951     0.05670467     27.996244      40.379884    
     98850   197.7          305.47232      133168.3      -807629.85     -9688.6713      0.36256678     0.057104949    28.020773      40.031884    
     98860   197.72         306.90564      136152.38     -807628.44     -9739.188       0.36258391     0.057399982    28.005799      39.683884    
     98870   197.74         307.46461      134486.84     -807630.9      -9665.5501      0.3626009      0.056963313    28.026751      39.335879    
     98880   197.76         301.5351       136656.8      -807628.18     -9723.2375      0.36261774     0.057300628    28.0277        38.987872    
     98890   197.78         298.71435      134281.86     -807627.53     -9735.3782      0.36263445     0.057369533    28.063385      38.639858    
     98900   197.8          304.24825      134369.82     -807629.55     -9692.1203      0.362651       0.057112011    28.013059      38.29185     
     98910   197.82         314.48607      132186.3      -807634.13     -9590.5886      0.36266742     0.056511165    28.061746      37.943833    
     98920   197.84         305.3992       133981.94     -807631.61     -9630.6563      0.36268369     0.056744712    28.07798       37.595813    
     98930   197.86         315.23808      133589.1      -807630.25     -9719.348       0.36269982     0.057264745    28.085707      37.247789    
     98940   197.88         307.05811      133884.55     -807629.99     -9690.9793      0.36271581     0.057095085    28.06228       36.899767    
     98950   197.9          307.89256      134745.98     -807630.88     -9662.6337      0.36273165     0.056925598    28.041571      36.551746    
     98960   197.92         304.76901      134180.99     -807629.18     -9704.6834      0.36274735     0.057170852    28.043894      36.203724    
     98970   197.94         304.5267       135791.5      -807626.59     -9785.2701      0.36276291     0.057643121    28.00741       35.855704    
     98980   197.96         303.85934      134502.59     -807629.03     -9702.8649      0.36277832     0.057155259    27.999211      35.507683    
     98990   197.98         315.26712      133317.09     -807632.83     -9627.5467      0.36279359     0.056709206    27.928976      35.15967     
     99000   198            311.33712      132446.5      -807632.42     -9625.75        0.36280872     0.056696259    27.897349      34.811659    
     99010   198.02         304.27104      134164.72     -807628.6      -303.56095      0.3628237      0.057213402    28.021628      34.46363     
     99020   198.04         308.54308      132632.09     -807631.02     -301.69035      0.36283855     0.056858515    28.042878      34.115597    
     99030   198.06         314.02205      134643.68     -807631.55     -301.71072      0.36285324     0.056860051    28.009766      33.767565    
     99040   198.08         309.71856      134968.04     -807628.74     -303.96651      0.3628678      0.057282878    27.98297       33.419536    
     99050   198.1          307.35622      136743.91     -807626.11     -306.14689      0.36288221     0.057691482    27.998275      33.071502    
     99060   198.12         315.85872      133996.79     -807630.28     -302.99223      0.36289648     0.057094761    28.007596      32.723466    
     99070   198.14         307.7741       134934.27     -807630.19     -301.71723      0.36291061     0.05685229     28.05296       32.375422    
     99080   198.16         314.15078      132269.21     -807631.48     -301.15109      0.36292459     0.056743428    28.055643      32.027377    
     99090   198.18         306.98398      133976.43     -807628.11     -303.21269      0.36293843     0.0571297      28.05406       31.679329    
     99100   198.2          310.36454      132215.1      -807630.21     -301.24267      0.36295213     0.056756377    28.062483      31.33128     
     99110   198.22         319.8377       133920.38     -807631.36     -300.92986      0.36296568     0.056695324    28.090903      30.983225    
     99120   198.24         318.81711      135622.49     -807628.66     -303.20689      0.36297909     0.057122207    28.141233      30.635163    
     99130   198.26         315.09896      137406.29     -807624.19     -306.76873      0.36299236     0.057791122    28.074352      30.287107    
     99140   198.28         335.95501      134168.85     -807630.16     -303.38146      0.36300548     0.05715094     28.042247      29.939053    
     99150   198.3          311.65756      135771.74     -807628.06     -301.77457      0.36301846     0.056846202    28.020542      29.590999    
     99160   198.32         315.64751      134193.2      -807628.07     -302.26119      0.3630313      0.056935854    28.081019      29.242938    
     99170   198.34         325.07801      134457.45     -807627.46     -304.0301       0.36304399     0.057267054    28.075899      28.894875    
     99180   198.36         326.09563      132298.61     -807630.85     -300.6624       0.36305655     0.056630757    28.063083      28.546812    
     99190   198.38         337.63388      133572.72     -807632.35     -300.67101      0.36306895     0.056630444    28.085635      28.198744    
     99200   198.4          315.58051      134890.84     -807626.92     -303.12849      0.36308122     0.057091374    28.030082      27.850681    
     99210   198.42         328.72261      136988.31     -807625.92     -306.01243      0.36309334     0.057632613    28.006895      27.502619    
     99220   198.44         317.05689      134807.88     -807627.27     -303.09457      0.36310532     0.057081195    27.966311      27.154559    
     99230   198.46         322.11917      135347.14     -807628.55     -302.56077      0.36311715     0.056978809    28.025254      26.806491    
     99240   198.48         321.7183       134319.88     -807627.69     -303.61073      0.36312885     0.057174698    28.123584      26.458411    
     99250   198.5          321.02606      134614.03     -807627.26     -304.08065      0.3631404      0.057261371    28.113948      26.110331    
     99260   198.52         331.88421      133158.42     -807631.9      -301.08504      0.3631518      0.056695488    28.101113      25.762251    
     99270   198.54         318.53979      133036.48     -807631.08     -300.2612       0.36316306     0.056538602    28.084032      25.414171    
     99280   198.56         330.83773      134354.56     -807630.44     -302.89458      0.36317418     0.057032717    28.09512       25.066088    
     99290   198.58         318.32675      133877.38     -807627.97     -303.98751      0.36318516     0.057236777    28.074946      24.718006    
     99300   198.6          306.80812      136144.23     -807627.11     -303.48551      0.36319599     0.057140552    28.055588      24.369923    
     99310   198.62         314.87031      134886.72     -807629.92     -302.13944      0.36320668     0.056885438    28.029632      24.021841    
     99320   198.64         314.64677      136423.63     -807627.12     -305.18178      0.36321723     0.057456568    28.027388      23.673758    
     99330   198.66         314.0104       133016.67     -807628.79     -303.73859      0.36322763     0.057183221    27.989611      23.325676    
     99340   198.68         311.06494      135413.04     -807629.15     -303.04139      0.36323789     0.057050352    27.993277      22.977592    
     99350   198.7          315.62526      131790.62     -807632.99     -300.22708      0.36324801     0.056518958    27.984895      22.629507    
     99360   198.72         316.91158      135316.94     -807628.54     -304.9204       0.36325798     0.057400918    28.003674      22.281418    
     99370   198.74         320.71748      131585.62     -807631.35     -302.90452      0.36326781     0.057019887    28.024178      21.933326    
     99380   198.76         310.15537      136210.03     -807629.79     -303.00391      0.3632775      0.057037076    28.036075      21.585231    
     99390   198.78         320.62442      131946.1      -807633.61     -300.93457      0.36328704     0.056646057    28.082567      21.237131    
     99400   198.8          321.9049       136309.33     -807628.58     -306.12721      0.36329644     0.057621997    28.13023       20.889026    
     99410   198.82         302.63467      132341.72     -807628.51     -303.84843      0.3633057      0.057191608    28.140757      20.540918    
     99420   198.84         313.15559      135734.99     -807630.29     -303.45697      0.36331481     0.057116492    28.098698      20.192812    
     99430   198.86         312.13305      131258.36     -807632.77     -301.06443      0.36332378     0.056664772    28.149421      19.844701    
     99440   198.88         312.43504      135206.26     -807628.11     -305.7605       0.36333261     0.057547242    28.155355      19.496588    
     99450   198.9          307.92779      132630.83     -807630.8      -302.67101      0.36334129     0.056964408    28.096818      19.148477    
     99460   198.92         306.78         134651.75     -807629.98     -303.26496      0.36334983     0.05707485     28.046449      18.800369    
     99470   198.94         313.47123      131946.7      -807632.56     -301.74192      0.36335823     0.056786901    28.131535      18.452253    
     99480   198.96         304.91012      134909.06     -807627.2      -305.92778      0.36336648     0.057573358    28.139225      18.104135    
     99490   198.98         312.03943      132806.13     -807630.02     -304.19007      0.3633746      0.057245057    28.12133       17.756017    
     99500   199            312.16014      133948.31     -807631.74     -302.47026      0.36338256     0.05692016     28.083735      17.407899    
     99510   199.02         300.30339      133975.4      -807629.99     -9684.9556      0.36339039     0.056953673    27.973556      17.059787    
     99520   199.04         310.56888      133977.15     -807629.79     -9738.806       0.36339807     0.057269137    27.966212      16.711674    
     99530   199.06         300.44157      134413.89     -807628.86     -9723.7368      0.3634056      0.057179337    27.957786      16.363559    
     99540   199.08         312.61516      132026.01     -807633.1      -9644.7219      0.363413       0.056713544    28.018064      16.015438    
     99550   199.1          301.95265      135159.52     -807629.38     -9715.2454      0.36342025     0.057127102    28.048114      15.667314    
     99560   199.12         303.56461      132978.14     -807629.57     -9720.3917      0.36342736     0.057156245    28.035328      15.31919     
     99570   199.14         302.75615      135601.09     -807627.72     -9773.5355      0.36343432     0.057467631    28.05262       14.971062    
     99580   199.16         310.51632      132122.85     -807632.41     -9659.4284      0.36344114     0.056795625    28.04234       14.622933    
     99590   199.18         314.0252       135948.97     -807629.61     -9760.8556      0.36344782     0.057390943    28.010067      14.274805    
     99600   199.2          300.21573      132214.64     -807629.79     -9697.9041      0.36345435     0.057019782    27.98251       13.926676    
     99610   199.22         305.12473      135670.84     -807628.95     -9740.5985      0.36346074     0.0572698      27.911913      13.578548    
     99620   199.24         317.75586      130972.6      -807635.35     -9595.3987      0.36346699     0.056415129    27.872868      13.230421    
     99630   199.26         315.26078      135072.24     -807630.1      -9745.8014      0.3634731      0.057298444    27.918498      12.882289    
     99640   199.28         304.33413      132212.66     -807629.82     -9708.6152      0.36347906     0.057078879    27.96098       12.534153    
     99650   199.3          314.50363      136583.39     -807629.64     -9752.9291      0.36348487     0.057338492    27.964421      12.186016    
     99660   199.32         298.38632      134345.19     -807629.74     -9680.3164      0.36349055     0.056910705    27.933139      11.837877    
     99670   199.34         319.90314      136003.71     -807629.82     -9767.4416      0.36349608     0.057422042    27.96925       11.489735    
     99680   199.36         298.32876      133453.89     -807627.33     -9750.3539      0.36350147     0.057320735    27.967851      11.141592    
     99690   199.38         305.14925      134035.04     -807629.44     -9705.4968      0.36350671     0.057056205    27.974288      10.793446    
     99700   199.4          317.79958      131997.2      -807633.68     -9620.2673      0.36351181     0.056554368    28.027426      10.445296    
     99710   199.42         321.39267      132782.2      -807631.32     -9704.5034      0.36351677     0.057048786    28.059112      10.097143    
     99720   199.44         305.01823      134584.7      -807627.97     -9730.9272      0.36352158     0.057203363    28.100485      9.7489877    
     99730   199.46         322.46185      133520.92     -807631.45     -9688.0573      0.36352625     0.05695062     28.109902      9.4008301    
     99740   199.48         307.8984       135394.59     -807628.54     -9707.6714      0.36353078     0.05706521     28.091443      9.0526715    
     99750   199.5          313.91642      134889.29     -807628.04     -9744.9447      0.36353516     0.057283625    28.097656      8.7045112    
     99760   199.52         306.3654       136972.29     -807624.55     -9815.2072      0.3635394      0.057695976    28.082782      8.3563498    
     99770   199.54         316.46505      134359.9      -807630.03     -9680.4415      0.3635435      0.056903152    28.040429      8.008188     
     99780   199.56         314.94756      135294.44     -807629.11     -9693.2878      0.36354745     0.056978045    28.006066      7.6600255    
     99790   199.58         324.09392      131637.19     -807630.76     -9680.4767      0.36355126     0.056902144    28.009206      7.3118611    
     99800   199.6          320.14444      135225.24     -807627.58     -9756.3235      0.36355493     0.057347395    28.041581      6.9636942    
     99810   199.62         312.6744       132233.1      -807630.04     -9643.2797      0.36355845     0.056682377    27.999062      6.6155265    
     99820   199.64         324.64466      136167.99     -807629.41     -9709.5548      0.36356183     0.057071406    28.008121      6.2673569    
     99830   199.66         322.50062      133533.32     -807629.04     -9715.3058      0.36356507     0.057104701    28.006428      5.9191855    
     99840   199.68         316.14959      138076.65     -807624.07     -9840.0828      0.36356816     0.057837624    27.98386       5.5710128    
     99850   199.7          326.19789      132904.97     -807630.96     -9665.7086      0.36357111     0.056812234    27.995706      5.222838     
     99860   199.72         318.30938      135427.27     -807628.15     -9716.8203      0.36357392     0.057112213    27.991738      4.8746615    
     99870   199.74         324.09872      132742.01     -807630.7      -9668.0158      0.36357658     0.05682494     27.913615      4.5264845    
     99880   199.76         310.59921      136292.13     -807626.45     -9743.41        0.3635791      0.057267682    27.932375      4.1783052    
     99890   199.78         318.18543      132709.19     -807631.23     -9629.9295      0.36358148     0.056600321    27.965255      3.8301234    
     99900   199.8          320.34586      135019.25     -807631.01     -9649.3318      0.36358371     0.056714011    27.971418      3.4819397    
     99910   199.82         317.69082      134069.52     -807627.62     -9753.7837      0.3635858      0.057327598    27.974762      3.1337541    
     99920   199.84         318.31026      135228.67     -807626.5      -9800.9517      0.36358775     0.057604518    28.021139      2.7855662    
     99930   199.86         314.44666      134874.16     -807629.4      -9697.9141      0.36358955     0.056998638    28.003919      2.4373766    
     99940   199.88         320.68941      134235.12     -807630.82     -9688.9504      0.36359121     0.056945695    27.975768      2.0891855    
     99950   199.9          318.57847      134312.06     -807628.76     -9756.7437      0.36359273     0.057343903    27.899789      1.740993     
     99960   199.92         304.51003      134567.48     -807627.93     -9728.9625      0.3635941      0.057180407    27.908549      1.3927985    
     99970   199.94         315.73719      134103.64     -807632.16     -9652.7093      0.36359533     0.056732049    27.952524      1.0446017    
     99980   199.96         317.28887      133001.71     -807632.34     -9666.002       0.36359641     0.056810005    28.007255      0.69640292   
     99990   199.98         306.07308      135011.53     -807627.75     -9771.0925      0.36359736     0.057427505    28.028379      0.34820232   
    100000   200            315.52301      133689.89     -807630.24     -9744.0993      0.36359816     0.057268732    28.062861      0            
Loop time of 3482.03 on 32 procs for 100000 steps with 1080 atoms

Performance: 4.963 ns/day, 4.836 hours/ns, 28.719 timesteps/s, 31.016 katom-step/s
62.5% CPU use with 32 MPI tasks x 1 OpenMP threads

MPI task timing breakdown:
Section |  min time  |  avg time  |  max time  |%varavg| %total
---------------------------------------------------------------
Pair    | 2515       | 2787.5     | 3188.8     | 273.6 | 80.05
Neigh   | 0.0016398  | 0.0017751  | 0.0020083  |   0.2 |  0.00
Comm    | 220.74     | 621.96     | 894.34     | 579.0 | 17.86
Output  | 2.3488     | 2.3559     | 2.3616     |   0.2 |  0.07
Modify  | 63.98      | 64.237     | 64.462     |   1.5 |  1.84
Other   |            | 6.008      |            |       |  0.17

Nlocal:          33.75 ave          43 max          26 min
Histogram: 2 6 3 2 4 6 1 5 1 2
Nghost:        1047.78 ave        1073 max        1020 min
Histogram: 2 2 3 3 4 5 2 8 2 1
Neighs:              0 ave           0 max           0 min
Histogram: 32 0 0 0 0 0 0 0 0 0
FullNghs:      5333.56 ave        6794 max        4110 min
Histogram: 3 5 3 3 4 4 2 5 1 2

Total # of neighbors = 170674
Ave neighs/atom = 158.03148
Neighbor list builds = 4
Dangerous builds = 0

Total wall time: 1:01:24
