
units		metal
atom_style	atomic

read_data ${STRUCTURE}.data
read_data BaTiO3-sc333.data
Reading data file ...
  orthogonal box = (0 0 0) to (11.898253 11.898253 12.912076)
  4 by 4 by 4 MPI processor grid
  reading atoms ...
  135 atoms
  read_data CPU = 0.005 seconds
replicate $L $L $L
replicate 2 $L $L
replicate 2 2 $L
replicate 2 2 2
Replication is creating a 2x2x2 = 8 times larger system...
  orthogonal box = (0 0 0) to (23.796507 23.796507 25.824152)
  4 by 4 by 4 MPI processor grid
  1080 atoms
  replicate CPU = 0.004 seconds

pair_style allegro
pair_coeff	* * ${MODEL}.pth Ba Ti O
pair_coeff	* * BaTiO3-E0.pth Ba Ti O
mass 1 137.3
mass 2 47.9
mass 3 15.9994

timestep 0.002
compute polarization all allegro polarization 3
compute allegro will evaluate the quantity polarization of length 3 (src/compute_allegro.cpp:53)
compute polarizability all allegro polarizability 9
compute allegro will evaluate the quantity polarizability of length 9 (src/compute_allegro.cpp:53)

thermo_style custom pe fmax fnorm spcpu cpuremain

variable efield equal 1e-2*36.36
fix born all addbornforce 0.0 0.0 ${efield}
fix born all addbornforce 0.0 0.0 0.3636

thermo 10
min_style fire
#minimize 0.0 1e-6 100 100
velocity all create ${TEMP} 126342 dist gaussian rot yes mom yes
velocity all create 310 126342 dist gaussian rot yes mom yes
fix nvt all nvt temp ${TEMP} ${TEMP} $(100*dt)
fix nvt all nvt temp 310 ${TEMP} $(100*dt)
fix nvt all nvt temp 310 310 $(100*dt)
fix nvt all nvt temp 310 310 0.2000000000000000111
run 5000
Neighbor list info ...
  update: every = 1 steps, delay = 0 steps, check = yes
  max neighbors/atom: 2000, page size: 100000
  master list distance cutoff = 8
  ghost atom cutoff = 8
  binsize = 8, bins = 3 3 4
  1 neighbor lists, perpetual/occasional/extra = 1 0 0
  (1) pair allegro/kk, perpetual
      attributes: full, newton on, kokkos_device
      pair build: full/bin/kk/device
      stencil: full/bin/3d
      bin: kk/device
Per MPI rank memory allocation (min/avg/max) = 3.592 | 3.592 | 3.592 Mbytes
    PotEng          Fmax          Fnorm          S/CPU         CPULeft    
-807708.43      1.5953987      37.033096      0              0            
-807646.48      3.0864495      45.467093      2.4664019      2023.191     
-807636.23      2.4628514      35.674697      35.586855      1079.5379    
-807609.49      2.7967053      37.119593      36.079473      764.16394    
-807606.17      3.9764603      49.621935      36.058021      606.35887    
-807568.28      3.2989451      39.464578      36.046447      511.57362    
-807599.63      2.6386377      38.748443      36.119492      448.24483    
-807645.7       3.3386992      32.369851      36.074491      402.95519    
-807684.77      2.3932177      33.444948      36.072601      368.91959    
-807668.07      3.2989184      33.913207      36.030029      342.40366    
-807653.29      3.2646244      34.420147      36.082801      321.11555    
-807661.81      2.3748928      27.103176      36.092169      303.64442    
-807631.08      2.470385       30.109391      36.117032      289.03121    
-807587.36      2.9050907      39.188349      36.125963      276.62104    
-807568.32      2.7696544      37.681452      36.114527      265.94721    
-807630.93      3.5573831      33.776124      36.105074      256.66202    
-807653.41      2.8781416      30.223503      36.093934      248.50543    
-807664.49      3.4218461      33.827277      36.099003      241.27472    
-807646.04      4.4551932      44.763987      36.131104      234.81007    
-807681.59      2.8942319      36.109111      36.053862      229.01179    
-807643.22      3.6151561      38.998099      36.051475      223.76604    
-807618.37      3.0503955      38.442406      36.125762      218.98045    
-807563.04      3.6025491      45.246558      36.12085       214.60558    
-807605.65      3.8351579      49.242871      36.063288      210.59621    
-807612.28      3.8235849      38.016384      36.043262      206.90091    
-807639.62      2.8140123      35.518629      36.128159      203.46665    
-807642.61      4.6140381      44.622968      36.140434      200.27356    
-807683.23      2.9893684      37.364486      36.125051      197.29857    
-807662.81      4.2912005      34.965852      36.091605      194.52062    
-807639.32      2.9172528      31.725689      36.120513      191.91155    
-807609.06      3.3387602      33.416875      36.138418      189.4558     
-807607.78      3.6902833      41.375691      36.135226      187.14101    
-807595.91      3.0304722      36.141555      36.034191      184.96495    
-807607.48      2.4257511      32.38688       36.136192      182.89286    
-807641.21      3.2533757      29.90197       36.150416      180.9249     
-807674.57      2.3091285      30.939763      36.11624       179.05705    
-807676.89      2.2528414      32.150906      36.076528      177.28152    
-807645.34      4.1248331      37.356177      36.161235      175.57886    
-807650.05      3.3460603      30.53056       36.176603      173.94983    
-807625.16      3.737985       33.32724       36.171677      172.39062    
-807602.17      3.9717039      42.444372      36.098966      170.90193    
-807568.61      3.9900749      41.421257      36.171229      169.46616    
-807623.83      2.9854748      35.30857       36.135764      168.08856    
-807648.66      4.1351544      34.544409      36.123119      166.76319    
-807672.65      2.7736828      34.32681       36.048788      165.49139    
-807641.57      4.6245277      46.213064      36.042636      164.26427    
-807668.81      3.1849038      34.966336      36.064133      163.0768     
-807645.34      3.7099215      36.061121      36.083737      161.92662    
-807626.19      3.6010442      37.097182      36.120312      160.81017    
-807566.74      4.3873279      43.018315      36.193027      159.72287    
-807601.04      3.761932       43.799312      36.179446      158.66894    
-807620.8       3.6406         35.404233      36.169173      157.6462     
-807652.85      2.7625289      32.250175      36.162459      156.6526     
-807640.5       4.5504609      41.805539      36.164989      155.68589    
-807674.28      2.6594267      33.611685      36.173176      154.74424    
-807665.24      2.8576817      33.230793      36.140799      153.82877    
-807644.91      2.7885501      30.095494      36.125817      152.93703    
-807603.44      3.3542965      33.952073      36.217983      152.06139    
-807600.95      3.3358801      37.360001      36.157336      151.20995    
-807605.03      4.2973634      38.711228      36.113826      150.3805     
-807618.29      3.2443124      31.870396      36.214227      149.56382    
-807635.17      3.150439       32.20361       36.177544      148.76689    
-807664.53      3.1904045      32.377029      36.203578      147.98535    
-807676.48      2.6904314      34.734326      36.107196      147.22496    
-807647.07      4.770023       37.902017      36.178916      146.47593    
-807636.51      2.8122703      33.120351      36.189962      145.74089    
-807615.7       4.047665       35.359367      36.247021      145.01688    
-807606.55      3.9354856      44.496954      36.161573      144.31047    
-807577.2       4.344741       41.405274      36.16773       143.6164     
-807616.06      4.0511974      36.755149      36.238993      142.93104    
-807643.65      3.9287727      37.336905      36.237113      142.25746    
-807674.58      3.0098285      35.83098       36.169584      141.5982     
-807647.46      4.929971       42.745319      36.192313      140.94854    
-807654.55      3.1019079      35.61159       36.219522      140.30789    
-807642.98      3.8527756      35.275796      36.155994      139.67988    
-807628.03      3.6719142      37.536852      36.150991      139.06147    
-807576.23      3.8700989      39.674879      36.207423      138.44965    
-807591.67      3.4905249      40.213839      36.205739      137.84661    
-807624.9       3.2956487      32.886428      35.919963      137.26384    
-807659.32      2.4755351      30.620625      36.164368      136.67875    
-807647.85      3.5563454      36.832795      36.1794        136.10078    
-807659.98      2.8982051      34.468093      36.275948      135.52644    
-807665.17      2.6180761      32.378908      36.123556      134.96532    
-807646.66      3.5927259      30.799444      36.201555      134.40805    
-807605.53      2.9071784      34.756009      36.173678      133.85853    
-807588.7       4.006426       37.623163      36.171476      133.31551    
-807607.32      3.7856371      39.11563       36.228531      132.7766     
-807626.38      2.7779816      31.370334      36.2118        132.24433    
-807639.01      3.4040465      32.467456      36.177791      131.7191     
-807652.78      3.4394853      35.649559      36.227101      131.19773    
-807673.14      2.6778395      35.11889       36.112897      130.68579    
-807651.42      3.7105389      36.312286      36.214493      130.17551    
-807633.27      3.1979547      33.438886      36.211324      129.67044    
-807605.71      4.2855807      37.166746      36.194957      129.17083    
-807607.49      3.9673913      44.037334      36.170507      128.67679    
-807594.39      4.3152595      37.89669       36.221941      128.18565    
-807615.83      3.3708342      35.502792      36.281142      127.69709    
-807639.56      3.2376655      35.46126       36.229411      127.21456    
-807671.07      2.7848938      35.29559       36.175945      126.73792    
-807656.59      3.3584797      37.210684      36.147532      126.26621    
-807647.9       2.9467806      34.289641      36.243947      125.79545    
-807635.59      3.4732175      33.737634      36.193905      125.33005    
-807626.61      3.6132909      36.70044       36.199349      124.8682     
-807590.8       3.4213437      38.156316      36.22195       124.4093     
-807590.83      3.2721076      38.630062      36.211489      123.95421    
-807623.85      2.9997371      32.796379      36.188169      123.5032     
-807658.67      3.0901152      32.207624      36.233473      123.0542     
-807658.44      3.371609       34.496773      36.155053      122.61063    
-807652.25      3.7280607      35.633005      36.197455      122.16898    
-807658.31      2.372631       31.899915      36.182902      121.73076    
-807644.65      2.6147627      30.927967      36.16752       121.2959     
-807611.98      3.0126703      34.602733      36.238351      120.86201    
-807582.49      2.7486962      37.922015      36.217663      120.43147    
-807607.98      3.5646646      36.265811      36.150015      120.00545    
-807631.74      4.1401044      33.542653      36.117215      119.58289    
-807648.3       3.0549444      32.590033      36.228733      119.16001    
-807646.77      4.8598939      39.162011      36.222519      118.73982    
-807667.85      3.12847        34.842193      36.18805       118.32296    
-807652.74      3.8044227      36.030819      36.10929       117.91043    
-807633.66      3.2878627      33.781638      36.240975      117.49695    
-807597.14      4.3689051      38.263042      36.251894      117.08551    
-807604.08      4.3922538      40.52411       36.202974      116.67747    
-807605.64      3.741983       36.906715      36.170772      116.27236    
-807626.95      3.5543713      32.811507      36.185535      115.86899    
-807637.63      4.5207312      35.456609      36.286944      115.46533    
-807667.05      2.7742042      33.181756      36.181475      115.06613    
-807661.08      2.5060397      34.281345      36.140178      114.66982    
-807648.94      2.8920911      32.610759      36.147906      114.27521    
-807625.64      3.5238177      33.512807      36.127767      113.8829     
-807618.91      3.7091675      35.933659      36.164943      113.49156    
-807599.9       3.16304        37.803234      36.091641      113.10358    
-807599.77      3.0475507      37.156929      36.163427      112.71575    
-807620.51      3.4394404      34.465763      36.236893      112.32805    
-807654.86      3.7392388      33.859373      36.220036      111.94237    
-807661.34      3.1591076      35.453218      36.173706      111.5593     
-807650.68      4.0606509      36.957608      36.146392      111.17837    
-807646.36      3.5193487      34.317795      36.164057      110.79862    
-807637.1       3.0012043      33.623887      36.240167      110.41883    
-807616.26      3.0371169      36.02893       36.170452      110.04195    
-807585.33      3.1831775      38.907152      36.166862      109.66657    
-807604.52      2.895899       36.604686      36.217498      109.29162    
-807633.31      3.3267804      33.82329       36.238223      108.91767    
-807653.5       3.2439925      33.279159      36.208678      108.54567    
-807646.8       3.9643494      37.492014      36.250095      108.17421    
-807657.55      3.2199639      34.857267      36.161938      107.80575    
-807650.8       4.7298042      34.947034      36.152388      107.43874    
-807635.16      2.903413       33.403273      36.127047      107.07343    
-807596.52      4.1305392      37.670012      36.202178      106.70795    
-807596.35      4.5503828      39.661885      36.185288      106.34398    
-807611.25      3.5745608      36.64155       36.183039      105.98123    
-807635.32      2.4157923      33.336274      36.060355      105.62183    
-807638.37      3.7816029      36.224609      36.118089      105.26248    
-807657.63      2.6040396      35.032673      36.209154      104.90263    
-807659.15      3.2969415      35.521275      36.074891      104.5462     
-807647.62      3.8542711      33.386205      35.998767      104.19212    
-807618.34      5.1333487      35.724154      36.189294      103.83577    
-807607.81      3.699935       36.995123      36.201812      103.48023    
-807601.29      3.9961838      39.484073      36.086211      103.12764    
-807609.47      3.2273147      35.927578      36.148034      102.77497    
-807623.78      4.1340594      34.263903      36.139257      102.42341    
-807648.18      2.9008072      34.166696      36.28435       102.07043    
-807662.89      3.2939027      35.28248       36.166012      101.72031    
-807653.32      4.1923942      35.619292      36.213962      101.37034    
-807638.63      3.5738006      34.591442      36.175707      101.02188    
-807630.39      3.3952333      33.312693      36.28128       100.67264    
-807614.83      3.1383358      37.302614      36.147906      100.32636    
-807594.59      3.1130889      37.624722      36.09014       99.981818    
-807603.63      3.1681937      36.14884       36.120968      99.637607    
-807633.45      3.0729728      32.947635      36.144037      99.293849    
-807656.8       3.5012838      33.652462      36.185535      98.950264    
-807651.44      3.1536348      35.97096       36.053971      98.609427    
-807650.09      4.3622631      35.004553      36.230502      98.266733    
-807647.1       3.0095462      32.646585      36.212588      97.925074    
-807634.35      3.1865668      33.537546      36.1794        97.584652    
-807603.09      3.4794144      36.286354      36.155327      97.245309    
-807596.43      3.4608959      37.039686      36.18688       96.906237    
-807615.64      3.5609007      35.401476      36.11675       96.568865    
-807641.01      3.3875283      33.308789      36.168168      96.231458    
-807644.44      4.6429496      35.254936      36.086438      95.895869    
-807652.22      3.6784491      35.486864      36.137916      95.560225    
-807656.74      3.9489859      34.910666      36.231419      95.223966    
-807647.21      3.849801       33.888061      36.083974      94.890361    
-807620.58      3.4333284      34.021668      36.236306      94.555341    
-807603.43      3.5662179      35.659702      36.205665      94.221372    
-807606.95      3.9534018      37.253828      36.243488      93.887533    
-807619.73      3.4652059      34.809664      36.085674      93.556377    
-807630.29      3.3616873      33.75592       36.17132       93.224694    
-807646.46      3.713732       34.097736      36.249948      92.892598    
-807660.99      2.7842887      33.915528      36.194783      92.561797    
-807652.86      3.3136316      33.959214      36.182518      92.231728    
-807638.55      2.9294455      32.847549      36.132727      91.902845    
-807620.73      3.703837       33.763781      36.20031       91.573672    
-807614.24      3.5340797      35.799682      36.106349      91.246204    
-807603.16      3.4952308      37.566482      36.008672      90.920454    
-807612.81      3.2186866      34.758945      36.108225      90.593992    
-807631.26      3.7452542      34.756995      36.154579      90.267482    
-807655.37      2.7373576      33.53334       36.188105      89.941084    
-807652.46      3.0090814      35.593011      36.145662      89.615694    
-807648.06      3.1373039      34.677249      36.193639      89.290236    
-807636.85      3.5168631      34.119277      36.211223      88.965069    
-807627.07      3.4845804      34.518556      36.077673      88.641927    
-807607.91      3.2149087      35.902694      36.161728      88.318283    
-807599.1       3.8400607      36.868278      36.161509      87.995108    
-807616.57      3.52451        34.473891      36.171192      87.672284    
-807640.4       3.005466       33.328738      36.125662      87.35042     
-807650.61      3.33143        33.658462      36.163674      87.028577    
-807646.57      4.033464       35.738601      36.190694      86.706879    
-807649.43      2.8225123      33.769766      36.060945      86.387027    
-807643         2.9292071      32.839772      36.203963      86.066047    
-807620.6       2.5981587      34.13677       36.052183      85.747113    
-807601.73      3.2184282      35.933778      36.161235      85.427421    
-807605.48      3.7267146      37.104098      36.080309      85.108987    
-807623.34      3.602034       34.893109      36.050168      84.791257    
-807638.46      4.1634611      33.496559      36.153721      84.472836    
-807644.53      2.988206       34.938391      36.123174      84.155117    
-807654.16      3.5819603      34.566139      36.196028      83.837041    
-807651.07      3.2076849      33.506915      36.196476      83.519347    
-807635.72      3.5968105      33.45045       36.12486       83.20275     
-807614.01      3.1457424      34.336052      36.164733      82.886122    
-807607.61      3.6356631      36.681733      36.192523      82.569589    
-807607.77      3.4057665      37.2866        36.139184      82.25394     
-807622.85      3.1207865      34.167307      36.143599      81.938601    
-807635.06      3.7563146      34.346115      36.186422      81.6232      
-807652.71      3.094674       34.498921      36.187767      81.308136    
-807654.89      3.4081347      34.037944      36.17621       80.993528    
-807647.05      3.704129       33.280287      36.139312      80.679603    
-807631.17      3.5844049      33.72338       36.156688      80.365847    
-807620.58      3.4413757      33.957858      36.146793      80.05251     
-807611.68      2.9943402      35.697176      36.091487      79.74        
-807607.57      3.1311856      35.975333      36.173523      79.427055    
-807622.95      2.9845518      33.77606       36.13539       79.114771    
-807642.71      3.1285892      33.247793      36.153438      78.802634    
-807653.37      2.7380427      33.621695      36.155199      78.490787    
-807649.78      2.8830598      34.527873      36.165318      78.179154    
-807643.49      3.3266826      33.803532      36.169091      77.867789    
-807635.44      3.162929       32.797764      36.096391      77.557349    
-807621.67      3.2941253      34.144952      36.116167      77.247022    
-807605.22      3.0502939      35.885156      36.098912      76.937124    
-807609.46      3.2590364      35.846275      36.160231      76.626985    
-807628.14      3.0006125      34.067247      36.152242      76.317195    
-807646.48      3.0585924      32.345618      36.071111      76.008355    
-807647.44      3.1137871      34.444411      36.180698      75.698873    
-807649.8       3.3278874      33.715487      36.155382      75.389873    
-807647.26      3.308619       32.603472      36.121625      75.081413    
-807634.77      3.2360618      32.612465      36.043089      74.773844    
-807612.35      3.2146194      34.23587       36.148618      74.465679    
-807604.51      3.7361724      35.999069      36.073646      74.158363    
-807615.25      2.8630362      34.583996      36.09771       73.851102    
-807631.32      3.2609996      32.600492      36.113298      73.543964    
-807639.67      2.95139        33.099979      36.235096      73.236129    
-807648.92      3.2657952      33.815858      36.121807      72.929416    
-807653.97      3.5417826      33.106458      36.032486      72.623621    
-807643.62      3.6241247      33.080173      36.095572      72.317573    
-807626.62      3.8830418      32.792008      36.163491      72.011246    
-807611.97      3.4336443      34.368356      36.150453      71.705251    
-807608.51      3.0876101      36.882997      36.163829      71.399388    
-807613.91      3.6073804      34.052495      36.086375      71.094319    
-807626.87      3.7278491      33.741221      36.151283      70.788999    
-807641.67      3.3409811      33.567107      36.114044      70.484167    
-807652.83      3.1460694      34.438849      36.125461      70.17947     
-807649.54      3.1866795      34.262096      36.177608      69.874619    
-807637.87      3.5074571      34.69343       36.126373      69.570346    
-807626.93      3.4714813      33.960098      36.144339      69.266156    
-807616.46      3.3786556      36.241051      36.058439      68.962771    
-807606.48      3.4889643      36.809149      36.122262      68.659144    
-807611.08      3.3968165      36.063095      36.156094      68.35549     
-807630.95      2.6641902      33.481958      36.116568      68.052306    
-807647.45      3.2651117      33.710607      36.130648      67.749225    
-807648.56      3.0783361      34.616581      36.107751      67.446491    
-807646.11      3.2642593      34.580977      36.152579      67.143655    
-807639.79      3.3122616      33.825882      36.128451      66.84117     
-807630.27      2.8808951      33.369937      36.15467       66.538706    
-807611.65      2.9921449      35.522273      36.125525      66.236618    
-807604.8       3.0877476      36.209597      36.02401       65.935365    
-807617.37      3.1976281      35.458201      36.111421      65.63373     
-807634.97      2.801217       33.343597      36.101906      65.332334    
-807643.38      2.8795057      34.571044      36.071656      65.031304    
-807647.09      3.2660259      34.981156      36.193713      64.729693    
-807649.61      3.7403311      34.30938       36.125106      64.428683    
-807641.83      3.2700128      33.121527      36.080218      64.12812     
-807623.68      3.3654108      34.505151      36.184465      63.827096    
-807608.78      3.0115339      35.982128      36.134186      63.526547    
-807610.76      2.9896878      36.409263      36.148646      63.226082    
-807619.35      3.091169       34.845972      36.107087      62.926029    
-807635.1       2.9977033      33.113896      36.109509      62.626125    
-807644.03      3.6609135      34.232878      36.179647      62.325977    
-807653.65      2.6358496      33.567909      36.15184       62.026154    
-807648.58      3.3461153      33.69568       36.133748      61.726595    
-807638.92      2.704891       32.275095      36.118344      61.427282    
-807621.46      3.3792334      33.790295      36.120577      61.128112    
-807613.62      3.1448532      35.548699      36.069611      60.829379    
-807611.16      3.146864       35.127926      36.080346      60.530734    
-807621.83      3.0691306      33.889505      36.079973      60.232239    
-807635.1       2.874627       33.571897      36.021798      59.934205    
-807650.56      3.0127366      32.40646       36.139284      59.635678    
-807650.79      2.5771253      33.704201      36.179875      59.337084    
-807645.91      3.7626747      33.499179      36.171951      59.03868     
-807634.7       3.148028       33.655038      36.160304      58.740486    
-807624.21      2.5928724      33.492602      36.156815      58.442455    
-807612.52      2.7252862      34.803387      36.120968      58.144752    
-807611.06      3.1688585      34.642641      36.12424       57.847171    
-807623.04      2.9606472      33.37067       36.128752      57.549706    
-807639.32      3.6236738      32.498015      36.122344      57.252409    
-807649.47      3.3416696      32.726893      36.142413      56.955148    
-807647.22      4.978001       34.637138      36.187159      56.657801    
-807644.46      3.3922113      33.577783      36.158638      56.360732    
-807636.41      3.8326608      33.285496      36.171829      56.063733    
-807621.86      3.5436324      34.361624      36.140312      55.767019    
-807608.51      3.0317649      36.130052      36.167772      55.470304    
-807613.44      3.0604519      34.710102      36.138989      55.173856    
-807625.33      4.1736943      34.106649      36.15894       54.877442    
-807638.87      2.9833413      32.943217      36.02088       54.581799    
-807645.39      2.5938977      32.810491      36.167087      54.285596    
-807648.33      2.9986125      33.29084       36.174452      53.989486    
-807646.12      2.6507059      32.287437      36.123143      53.693733    
-807633.94      3.454343       32.66228       36.064175      53.398366    
-807616.12      2.7363731      33.621077      36.084062      53.103025    
-807610.65      3.2990584      35.380796      36.085462      52.807792    
-807615.81      2.843775       35.53905       36.042605      52.512862    
-807624.62      3.1705605      34.873502      36.105699      52.217766    
-807637.48      3.0078552      33.547819      36.106692      51.92278     
-807648.22      3.7067063      33.553518      36.085707      51.627995    
-807648.59      2.6434513      34.352562      36.157378      51.333017    
-807642.41      3.0009185      33.920392      36.132095      51.038258    
-807628.46      2.785524       33.905495      36.162721      50.743484    
-807617.31      3.0698772      35.203117      36.120118      50.448997    
-807611.25      3.3551055      35.43636       36.101912      50.154693    
-807612.97      3.3400236      35.517438      36.108795      49.860467    
-807626.44      3.260818       34.075779      36.111709      49.566335    
-807640.66      3.4210281      33.323042      36.143861      49.272179    
-807648.86      3.9284797      33.928081      36.126607      48.978197    
-807646.35      3.030467       33.71429       36.132213      48.684297    
-807638.36      2.8855734      34.012421      36.11887       48.390552    
-807629.39      4.0748236      33.725829      36.093157      48.097008    
-807615.03      3.2918813      36.31799       36.075452      47.80363     
-807609.31      2.894311       35.787768      36.094067      47.510278    
-807615.87      2.6833735      34.790188      36.074243      47.217097    
-807628.72      2.7153562      33.581838      36.192246      46.923574    
-807643.66      3.096588       33.656148      36.167562      46.630243    
-807645.93      2.7866012      34.184431      36.091429      46.337288    
-807644.37      2.9626393      34.158884      36.077233      46.044479    
-807639.29      3.7000344      33.16591       36.060579      45.75182     
-807628.87      3.0148661      33.688886      36.167005      45.458875    
-807612.88      3.4148307      35.3416        36.147794      45.166092    
-807610.54      3.0337975      35.78736       36.165096      44.873343    
-807618.85      2.7572675      35.089641      36.147292      44.58075     
-807633.13      2.6637         33.572145      36.122077      44.288335    
-807640.65      2.9450597      33.449505      36.147794      43.995922    
-807646.27      3.1515162      34.164469      36.201762      43.703421    
-807646         3.2447042      33.748057      36.151399      43.411179    
-807637.3       2.6991078      33.372086      36.109196      43.119164    
-807625.23      3.4548445      33.368545      36.158328      42.827077    
-807615.84      3.6050304      34.527035      36.178035      42.535013    
-807614.88      2.9169007      34.89026       36.216276      42.242917    
-807623.55      3.0279406      33.608676      36.148487      41.951125    
-807633.38      3.4164072      33.308381      36.138862      41.659448    
-807642.73      2.6046745      32.747181      36.185102      41.367713    
-807648.35      2.880829       33.636915      36.145686      41.076184    
-807644.54      3.179456       33.525694      36.164273      40.784682    
-807633.43      3.0294022      33.653872      36.16653       40.493257    
-807624.51      3.192618       33.729394      36.181792      40.201869    
-807616.06      2.6812402      34.71696       36.153927      39.910646    
-807617.72      2.972769       34.333175      36.138342      39.61955     
-807623.59      3.7376829      33.555795      36.062104      39.328753    
-807635.76      3.136657       31.955518      36.130837      39.037834    
-807645.08      3.0423248      33.337415      36.115535      38.747036    
-807647.03      3.2876757      33.31859       36.127071      38.456281    
-807640.69      4.1188916      33.568505      36.118696      38.165625    
-807634.4       3.9484652      33.096106      36.144372      37.874974    
-807626.12      3.8341298      33.084969      36.133444      37.584429    
-807613.25      3.6198294      35.291167      36.264414      37.293607    
-807615.56      3.2911037      34.64593       36.179589      37.003091    
-807624.62      3.0356034      34.652253      36.134967      36.712768    
-807638.95      3.0996659      32.825741      36.160072      36.422452    
-807642.81      3.3341973      34.599898      36.153635      36.132227    
-807644         4.6550079      34.647835      36.231736      35.841876    
-807641.63      4.3679624      34.299167      36.251606      35.551551    
-807633.78      2.9195348      34.012693      36.280522      35.261231    
-807619.57      4.0601792      35.515143      36.313463      34.970909    
-807611.92      3.3022457      35.909581      36.232406      34.680862    
-807616.89      3.8037369      35.9396        36.325366      34.390665    
-807626.54      3.1789893      34.859196      36.292588      34.100625    
-807636.38      3.088792       33.882178      36.338061      33.810554    
-807640.68      3.6741867      34.832224      36.277324      33.520702    
-807646.77      2.9508631      33.914771      36.243751      33.231       
-807640.17      3.4624286      34.401135      36.175494      32.941526    
-807630.52      4.51157        33.974463      36.193106      32.652079    
-807618.56      3.498083       35.032396      36.211239      32.362661    
-807615.21      3.2642495      35.785014      36.124337      32.073502    
-807618.39      2.9940547      35.339096      36.192538      31.784258    
-807624.51      2.9793264      35.056028      36.162849      31.495144    
-807636.3       3.314058       34.684399      36.169672      31.20608     
-807645.27      4.1841591      34.528743      36.20406       30.917008    
-807644.58      3.1071472      34.498972      36.16463       30.628083    
-807637.17      3.766329       34.806556      36.220884      30.339106    
-807628.76      3.0777456      33.981723      36.239017      30.050158    
-807618.53      2.7295356      35.739038      36.170979      29.761411    
-807615.76      3.2053782      35.570013      36.161131      29.472746    
-807616.53      3.470575       35.279743      36.254369      29.183959    
-807625.86      3.8243022      34.95729       36.199355      28.895344    
-807638.87      2.8989227      34.336356      36.215333      28.60676     
-807644.02      2.6834419      34.427662      36.207731      28.318252    
-807642.4       2.9720176      33.964839      36.386107      28.029476    
-807636.31      4.6128921      33.609845      36.295476      27.740934    
-807629.78      2.869417       33.951653      36.303142      27.452442    
-807619.76      3.2346335      34.390039      36.232039      27.164142    
-807614.17      2.8090127      34.735728      36.06492       26.876198    
-807617.9       2.6857894      34.632325      36.186227      26.588095    
-807630.03      3.320842       33.90663       36.194579      26.300035    
-807641.7       2.9712786      32.838567      36.273565      26.011898    
-807640.33      3.6019964      35.286548      36.116683      25.724085    
-807642.16      3.0098348      34.809046      36.324924      25.435982    
-807639.29      3.2439842      34.389362      36.252083      25.148059    
-807628.32      3.1057551      33.890709      36.206797      24.860267    
-807617.24      3.1429982      35.089993      36.202513      24.572538    
-807614.14      4.0010046      35.51327       36.229151      24.284823    
-807622.74      3.3471856      34.083987      36.281442      23.997083    
-807632.39      3.9238722      33.753304      36.218035      23.709498    
-807637.94      2.9426775      33.904546      36.231342      23.421948    
-807643.32      3.7187986      33.687001      36.172524      23.13454     
-807645.44      3.5522099      32.875863      36.179031      22.847174    
-807637.16      3.2597586      32.804094      36.190105      22.559845    
-807625.24      2.943435       33.512654      36.251294      22.272481    
-807618.36      3.4100504      34.699469      36.187334      21.985261    
-807619.91      3.2473147      33.95423       36.19984       21.698075    
-807624.73      3.091562       33.857693      36.283538      21.410828    
-807632.35      3.1076434      33.121748      36.165698      21.123792    
-807642.55      3.7872423      32.042124      36.147912      20.836828    
-807646.25      3.7442871      33.010828      36.189035      20.54986     
-807642.29      2.6825834      32.68315       36.227905      20.262892    
-807633.6       3.0374018      32.80681       36.191175      19.97602     
-807627.69      2.8895421      32.925156      36.213959      19.68917     
-807618.02      2.7972655      34.56378       36.14429       19.402453    
-807620.89      2.5648594      33.593635      36.254562      19.115653    
-807621.87      3.7994386      34.782207      36.219217      18.828944    
-807634.64      3.0271223      33.271657      36.199932      18.542305    
-807641.09      3.0566253      33.898317      36.144052      18.255777    
-807644.74      2.9880128      33.777088      36.204499      17.969228    
-807638.21      4.314166       34.60537       36.189355      17.682742    
-807634.24      3.436606       33.14991       36.178355      17.396314    
-807626.14      3.1628979      33.264485      36.178199      17.109932    
-807617.72      3.0899546      35.137278      36.236028      16.823536    
-807617.81      3.8623748      34.20112       36.198836      16.537224    
-807624.71      3.2151393      34.652315      36.155485      16.251001    
-807635.84      4.9125548      34.110919      36.186124      15.964791    
-807640.39      3.4563721      34.650423      36.182045      15.67863     
-807640.55      5.6123579      35.185082      36.142799      15.392548    
-807639.75      3.6698022      33.85934       36.188081      15.106468    
-807631.85      3.4016413      34.085758      36.235135      14.82039     
-807621.68      4.2905001      34.794355      36.205156      14.534382    
-807616.74      3.439733       35.063341      36.25152       14.248379    
-807620.41      4.1650873      34.566497      36.2174        13.962449    
-807626.21      2.8721527      34.66983       36.189407      13.676585    
-807636.24      3.4171186      33.392478      36.15041       13.390795    
-807639.75      3.089202       34.199614      36.137126      13.105055    
-807641.32      3.3921368      34.005493      36.248648      12.81927     
-807637.14      3.439904       34.811064      36.210018      12.533557    
-807628.8       4.2901344      34.635114      36.254761      12.247854    
-807620.3       3.0285845      35.333095      36.171397      11.962253    
-807616.38      3.6229954      36.085182      36.15975       11.676699    
-807621.89      3.1224441      34.700831      36.094847      11.391228    
-807626.41      4.3913578      34.312989      36.212142      11.105717    
-807636.01      3.0332181      33.920021      36.182603      10.820265    
-807639.67      2.6937936      34.357314      36.076239      10.534918    
-807641.94      2.885457       33.950639      36.337763      10.249451    
-807636.17      3.5268506      33.890469      36.370051      9.9640093    
-807628.57      2.9642608      34.325229      36.385569      9.6786045    
-807621.37      2.8515549      34.311263      36.302422      9.3932895    
-807619.49      2.6591358      34.39218       36.284961      9.1080256    
-807620.01      3.0435451      33.856913      36.302385      8.8227943    
-807629.23      3.3860836      33.874293      36.152665      8.5376773    
-807636.41      3.7177139      34.381208      36.166116      8.2525901    
-807640.26      3.7710686      34.170025      36.183316      7.9675315    
-807639.01      4.2745209      35.199473      36.16111       7.6825193    
-807635.44      3.2130127      34.652567      36.207628      7.3975234    
-807628.36      4.1391665      34.760206      36.249079      7.1125479    
-807622.18      2.8582336      34.778332      36.208552      6.8276263    
-807617.8       3.1359876      35.30919       36.261317      6.542722     
-807621.22      3.1591108      35.490038      36.187742      6.2578816    
-807631.94      3.1246849      34.28666       36.054555      5.9731215    
-807636.56      3.1318744      33.801872      35.963082      5.6884217    
-807640.11      3.2122833      34.071839      36.046422      5.4037241    
-807639.18      3.8552506      33.65539       36.17348       5.1190203    
-807636.06      2.8007198      33.951299      36.096148      4.8343715    
-807628.17      3.671391       33.517809      36.148776      4.5497408    
-807620.43      2.8047743      34.049897      36.250805      4.265119     
-807619.51      3.8649468      34.91842       36.186992      3.9805473    
-807625         3.364531       34.815065      36.154938      3.696016     
-807632.19      3.9941749      34.762749      36.132083      3.4115215    
-807637.1       3.285214       34.519451      36.101773      3.1270638    
-807639.28      3.4945892      34.962682      36.215266      2.842619     
-807640.46      3.3180343      34.681681      36.251328      2.5582029    
-807633.2       3.4675737      35.02183       36.227425      2.2738246    
-807625.97      3.2776232      34.525707      36.228012      1.9894801    
-807621.25      3.7821226      34.846388      36.164837      1.7051752    
-807620.93      2.9432747      34.749688      36.206172      1.4208985    
-807626.63      3.9477593      33.743261      36.185502      1.1366557    
-807632.72      2.8677208      33.585109      36.155458      0.85244601   
-807640.1       3.1266822      33.371193      36.201467      0.56826555   
-807640.59      3.0418755      34.178482      36.201879      0.28411693   
-807640.54      3.9757597      33.398529      36.21467       0            
Loop time of 142.051 on 64 procs for 5000 steps with 1080 atoms

Performance: 6.082 ns/day, 3.946 hours/ns, 35.199 timesteps/s, 38.015 katom-step/s
93.2% CPU use with 64 MPI tasks x 1 OpenMP threads

MPI task timing breakdown:
Section |  min time  |  avg time  |  max time  |%varavg| %total
---------------------------------------------------------------
Pair    | 67.961     | 93.481     | 137.72     | 225.9 | 65.81
Neigh   | 0          | 0          | 0          |   0.0 |  0.00
Comm    | 1.9313     | 46.079     | 71.715     | 321.7 | 32.44
Output  | 0.031856   | 0.035474   | 0.036644   |   0.4 |  0.02
Modify  | 1.991      | 2.1087     | 2.2142     |   4.7 |  1.48
Other   |            | 0.3463     |            |       |  0.24

Nlocal:         16.875 ave          32 max           7 min
Histogram: 16 0 16 16 0 0 0 0 8 8
Nghost:        883.125 ave         893 max         868 min
Histogram: 8 8 0 0 0 0 16 16 0 16
Neighs:              0 ave           0 max           0 min
Histogram: 64 0 0 0 0 0 0 0 0 0
FullNghs:      2747.25 ave        5264 max        1126 min
Histogram: 16 0 16 16 0 0 0 0 8 8

Total # of neighbors = 175824
Ave neighs/atom = 162.8
Neighbor list builds = 0
Dangerous builds = 0

reset_timestep 0


variable interval equal 1000
thermo 10

variable nintervals equal $(v_PERIOD/v_interval)
variable nintervals equal 100
variable efield equal 1e-2*36.36*cos((step/${PERIOD})*2*3.14)
variable efield equal 1e-2*36.36*cos((step/100000)*2*3.14)
fix born all addbornforce 0.0 0.0 v_efield

variable Px equal f_born[1]+c_polarization[1]
variable Py equal f_born[2]+c_polarization[2]
variable Pz equal (f_born[3]+c_polarization[3])/vol
variable pe equal pe

fix aveP all ave/time 1 $(v_interval/2) ${interval} v_efield v_Pz v_pe f_born file Pz.${MODEL}.${STRUCTURE}.${TEMP}.$L
fix aveP all ave/time 1 500 ${interval} v_efield v_Pz v_pe f_born file Pz.${MODEL}.${STRUCTURE}.${TEMP}.$L
fix aveP all ave/time 1 500 1000 v_efield v_Pz v_pe f_born file Pz.${MODEL}.${STRUCTURE}.${TEMP}.$L
fix aveP all ave/time 1 500 1000 v_efield v_Pz v_pe f_born file Pz.BaTiO3-E0.${STRUCTURE}.${TEMP}.$L
fix aveP all ave/time 1 500 1000 v_efield v_Pz v_pe f_born file Pz.BaTiO3-E0.BaTiO3-sc333.${TEMP}.$L
fix aveP all ave/time 1 500 1000 v_efield v_Pz v_pe f_born file Pz.BaTiO3-E0.BaTiO3-sc333.310.$L
fix aveP all ave/time 1 500 1000 v_efield v_Pz v_pe f_born file Pz.BaTiO3-E0.BaTiO3-sc333.310.2

thermo_style custom step time temp press pe f_born v_efield v_Pz spcpu cpuremain

dump 4a all custom 100 dump.hyst.${MODEL}.${STRUCTURE}.${TEMP}.$L.bin id type xu yu zu fx fy fz
dump 4a all custom 100 dump.hyst.BaTiO3-E0.${STRUCTURE}.${TEMP}.$L.bin id type xu yu zu fx fy fz
dump 4a all custom 100 dump.hyst.BaTiO3-E0.BaTiO3-sc333.${TEMP}.$L.bin id type xu yu zu fx fy fz
dump 4a all custom 100 dump.hyst.BaTiO3-E0.BaTiO3-sc333.310.$L.bin id type xu yu zu fx fy fz
dump 4a all custom 100 dump.hyst.BaTiO3-E0.BaTiO3-sc333.310.2.bin id type xu yu zu fx fy fz
dump_modify 4a sort id

fix nvt all nvt temp ${TEMP} ${TEMP} $(100*dt)
fix nvt all nvt temp 310 ${TEMP} $(100*dt)
fix nvt all nvt temp 310 310 $(100*dt)
fix nvt all nvt temp 310 310 0.2000000000000000111

run $(v_PERIOD)
run 100000
WARNING: non-constant efield is experimental, strongly distrust scalar/vector output (src/fix_addbornforce.cpp:193)
Per MPI rank memory allocation (min/avg/max) = 3.608 | 3.609 | 3.609 Mbytes
   Step          Time           Temp          Press          PotEng         f_born        v_efield         v_Pz          S/CPU         CPULeft    
         0   0              299.78257      126010.72     -807640.53     -293.92029      0.3636         0.055278113    0              0            
        10   0.02           312.75357      132061.53     -807633.25     -303.00855      0.36359993     0.05698737     45.765372      2184.8634    
        20   0.04           304.06709      136782.17     -807626.52     -308.55399      0.36359971     0.058030345    47.572678      2143.1336    
        30   0.06           294.86829      143208.26     -807620.56     -313.12989      0.36359935     0.058891002    47.549249      2129.4301    
        40   0.08           297.08555      142408.77     -807620.56     -313.45682      0.36359885     0.058952569    47.543833      2122.5328    
        50   0.1            314.98068      138560.21     -807625.67     -310.67409      0.36359821     0.058429319    47.47995       2118.8761    
        60   0.12           307.68625      131966.68     -807633.3      -301.90974      0.36359742     0.056781106    47.523492      2116.047     
        70   0.14           295.91458      127175.67     -807639.13     -294.21393      0.36359649     0.055333873    47.515402      2114.0169    
        80   0.16           300.53313      124344.99     -807641.74     -292.08136      0.36359541     0.054932955    47.529361      2112.3647    
        90   0.18           289.63242      127841.87     -807636.07     -296.06172      0.36359419     0.055681745    47.537204      2110.9942    
       100   0.2            309.32729      132273.98     -807632.51     -302.15595      0.36359283     0.056828128    47.54437       2109.8241    
       110   0.22           301.61031      137964.65     -807625.1      -308.27564      0.36359132     0.057979333    47.304638      2109.7966    
       120   0.24           309.84408      142194.96     -807620.76     -313.44757      0.36358968     0.058952317    47.490029      2109.0514    
       130   0.26           304.45489      142112.33     -807619        -314.21683      0.36358788     0.059097289    47.344368      2108.8862    
       140   0.28           319.55098      138268.18     -807626.64     -308.37008      0.36358595     0.057997953    47.529566      2108.1274    
       150   0.3            321.97647      131100.49     -807634.89     -300.1668       0.36358387     0.05645541     47.500443      2107.5276    
       160   0.32           310.54551      127898.26     -807637.67     -295.50835      0.36358165     0.055579588    47.500458      2106.9764    
       170   0.34           305.23264      126273        -807638.7      -293.56925      0.36357928     0.055215238    47.405845      2106.712     
       180   0.36           304.54505      129340.78     -807636.31     -295.69354      0.36357677     0.055615164    47.44158       2106.3652    
       190   0.38           316.63522      133705.7      -807631.35     -302.22256      0.36357412     0.056843582    47.376811      2106.1846    
       200   0.4            319.17926      139407.59     -807623.18     -310.6591       0.36357132     0.058430819    47.491494      2105.7463    
       210   0.42           305.96176      142912.02     -807617.9      -313.97773      0.36356838     0.059055487    47.29281       2105.7501    
       220   0.44           308.46488      141592.23     -807619.69     -312.49773      0.3635653      0.058777615    47.535499      2105.2447    
       230   0.46           327.92476      136728.32     -807628.08     -306.77064      0.36356207     0.05770092     47.538498      2104.7592    
       240   0.48           318.01015      131792.85     -807632.57     -300.86708      0.3635587      0.056591035    47.552881      2104.2702    
       250   0.5            312.22506      127373.31     -807638.13     -294.44322      0.36355519     0.055383286    47.586923      2103.7435    
       260   0.52           306.67941      126336.98     -807639.8      -292.00023      0.36355153     0.054924326    47.543549      2103.3146    
       270   0.54           311.19895      129330.83     -807636.8      -295.62177      0.36354773     0.055606108    47.521         2102.9389    
       280   0.56           318.05439      133734.12     -807629.32     -304.15853      0.36354379     0.057212482    47.562643      2102.5094    
       290   0.58           323.64978      139245.8      -807623.57     -310.71707      0.3635397      0.058446806    47.506053      2102.181     
       300   0.6            309.47567      142255.69     -807619.27     -313.03488      0.36353547     0.058883477    47.504903      2101.8621    
       310   0.62           314.55637      140606.62     -807621.45     -311.59585      0.3635311      0.058613495    47.322148      2101.8117    
       320   0.64           313.96086      136794.24     -807626.27     -306.81337      0.36352658     0.057714592    47.542365      2101.4462    
       330   0.66           315.60812      131555.67     -807632.8      -300.51531      0.36352192     0.056530589    47.507693      2101.1366    
       340   0.68           310.57361      126789.24     -807639.1      -293.56455      0.36351712     0.055223796    47.542996      2100.7872    
       350   0.7            298.89653      128072.59     -807637.78     -293.26938      0.36351217     0.055169022    47.482485      2100.5219    
       360   0.72           309.09658      129836.59     -807635.2      -297.43041      0.36350708     0.055952567    47.555487      2100.1701    
       370   0.74           319.71576      134630.75     -807628.88     -305.27903      0.36350185     0.057429875    47.549959      2099.8325    
       380   0.76           322.79312      138051.8      -807624.81     -309.90588      0.36349647     0.058301151    47.541355      2099.5118    
       390   0.78           311.26256      143111.6      -807619.97     -313.14921      0.36349095     0.0589122      47.52264       2099.2178    
       400   0.8            314.21406      140206.21     -807622.77     -310.91806      0.36348529     0.058493368    47.50391       2098.9486    
       410   0.82           315.60102      136633.56     -807627.77     -306.22392      0.36347948     0.057611174    47.287827      2098.9159    
       420   0.84           320.47361      129378.47     -807636.79     -297.96583      0.36347353     0.056058464    47.509348      2098.6409    
       430   0.86           296.18391      126842.18     -807637.15     -294.27297      0.36346744     0.055364627    47.538798      2098.3388    
       440   0.88           305.90914      126657.25     -807639.05     -293.85429      0.3634612      0.055286805    47.566641      2098.0129    
       450   0.9            300.68469      130192.68     -807633.25     -299.03943      0.36345482     0.056263345    47.514077      2097.7437    
       460   0.92           321.06616      135286.81     -807629.76     -305.48862      0.3634483      0.057477771    47.518934      2097.4723    
       470   0.94           302.35134      140955.91     -807621.54     -311.25538      0.36344163     0.058563863    47.508638      2097.2132    
       480   0.96           312.51427      142155.07     -807620.54     -313.7626       0.36343482     0.059036712    47.476266      2096.9859    
       490   0.98           312.53116      139309.93     -807623.53     -310.8696       0.36342786     0.058493492    47.531491      2096.7096    
       500   1              318.37312      135249.4      -807629.97     -305.30308      0.36342077     0.057447212    47.561363      2096.4096    
       510   1.02           306.74424      129519.18     -807636        -19056.217      0.36341353     0.056027746    47.160529      2096.4617    
       520   1.04           299.04855      127800.55     -807638.23     -18849.784      0.36340614     0.05542193     47.342567      2096.3477    
       530   1.06           300.82612      126102.66     -807639.61     -18784.135      0.36339862     0.055230054    47.268298      2096.2923    
       540   1.08           305.33647      131409.36     -807634.39     -19165.932      0.36339095     0.056353823    47.209386      2096.2798    
       550   1.1            316.34889      134200.13     -807630.08     -19552.033      0.36338313     0.057490317    47.236719      2096.2377    
       560   1.12           308.2456       141179.36     -807622.11     -19995.89       0.36337518     0.058796711    47.264007      2096.1681    
       570   1.14           302.84281      140250.24     -807622.36     -19946.452      0.36336707     0.058652648    47.312359      2096.0557    
       580   1.16           309.02262      139798.58     -807624.54     -19867.418      0.36335883     0.058421573    47.330486      2095.926     
       590   1.18           300.21649      132683.62     -807630.6      -19419.385      0.36335044     0.057105417    47.29684       2095.8188    
       600   1.2            308.4263       129382.02     -807636.47     -19121.851      0.36334191     0.056231799    47.213932      2095.7697    
       610   1.22           282.4644       125650.65     -807638.75     -18758.244      0.36333324     0.055163854    47.090221      2095.8059    
       620   1.24           301.35104      127711.65     -807639.59     -18882.156      0.36332442     0.055529598    47.237405      2095.7281    
       630   1.26           298.95267      130639.5      -807634.13     -19229.118      0.36331546     0.056551357    47.214321      2095.6623    
       640   1.28           307.34369      137322.1      -807627.9      -19718.772      0.36330636     0.057992845    47.308498      2095.5265    
       650   1.3            302.13755      139418.89     -807623.83     -19947.233      0.36329711     0.05866624     47.353136      2095.358     
       660   1.32           294.75046      141015.53     -807622.88     -19953.146      0.36328772     0.058685147    47.222714      2095.2758    
       670   1.34           297.91624      137804.79     -807626.55     -19762.039      0.36327819     0.0581246      47.358712      2095.0997    
       680   1.36           297.22006      132170.21     -807631.6      -19441.627      0.36326851     0.057183718    47.307138      2094.9562    
       690   1.38           288.0697       127648.54     -807637.31     -19000.914      0.36325869     0.055888959    47.285891      2094.8243    
       700   1.4            288.68633      126861.29     -807641.22     -18758.577      0.36324873     0.055177666    47.251233      2094.7122    
       710   1.42           287.59134      126494.29     -807638.31     -18939.223      0.36323863     0.055710579    46.989922      2094.7619    
       720   1.44           301.41343      131777.1      -807633.88     -19348.273      0.36322838     0.056915426    47.213807      2094.6652    
       730   1.46           310.786        136402.79     -807629.77     -19695.85       0.36321798     0.057939525    47.123573      2094.6205    
       740   1.48           296.1805       140170.45     -807623.8      -19937.778      0.36320745     0.058652907    47.139615      2094.5615    
       750   1.5            292.8067       140019.38     -807623.51     -19923.986      0.36319677     0.058614059    47.239026      2094.4393    
       760   1.52           293.88324      137499.8      -807625.89     -19770.383      0.36318595     0.058163911    47.152344      2094.3657    
       770   1.54           303.64265      131749.92     -807633.97     -19326.315      0.36317498     0.056859191    47.134183      2094.2989    
       780   1.56           288.03929      127364.82     -807638.6      -18869.96       0.36316387     0.055518266    47.198772      2094.1915    
       790   1.58           302.97864      126194.83     -807641.26     -18809.455      0.36315262     0.055341966    47.276741      2094.0376    
       800   1.6            295.20808      128052.73     -807636.69     -19016.601      0.36314122     0.055953196    47.302121      2093.8682    
       810   1.62           311.91566      133095.1      -807633.03     -19378.121      0.36312968     0.05701872     47.136154      2093.7888    
       820   1.64           306.3238       136996.82     -807627.7      -19646.253      0.363118       0.057809536    47.35265       2093.589     
       830   1.66           302.59293      140894.42     -807622.37     -19930.123      0.36310618     0.058646741    47.398878      2093.3642    
       840   1.68           303.9002       139983.53     -807621.92     -19954.622      0.36309421     0.058720767    47.311484      2093.1858    
       850   1.7            313.88013      136675.74     -807627.88     -19641.06       0.3630821      0.057799971    47.328029      2092.998     
       860   1.72           309.51886      131319.37     -807634.04     -19191.799      0.36306984     0.056479789    47.298075      2092.825     
       870   1.74           299.30139      127880.34     -807636.5      -18931.166      0.36305745     0.055714669    47.313485      2092.6434    
       880   1.76           307.67119      127331.62     -807638.59     -18859.164      0.3630449      0.055504685    47.273058      2092.4814    
       890   1.78           303.18229      128993.76     -807635.91     -18983.763      0.36303222     0.055873346    47.234133      2092.3377    
       900   1.8            312.16327      133927.61     -807631.26     -19355.399      0.36301939     0.056969165    47.260091      2092.1797    
       910   1.82           314.14388      137633.72     -807625.03     -19765.936      0.36300642     0.058179585    47.183841      2092.0578    
       920   1.84           309.40017      141152.01     -807620.8      -19982.775      0.36299331     0.05881996     47.304731      2091.8755    
       930   1.86           321.43786      138419.71     -807625.14     -19807.347      0.36298005     0.05830571     47.340235      2091.6758    
       940   1.88           312.36905      137048.58     -807627.28     -19581.83       0.36296665     0.057643997    41.096606      2094.8578    
       950   1.9            308.73084      131278.9      -807633.38     -19157.38       0.36295311     0.056396629    46.38264       2095.0763    
       960   1.92           311.71858      128175.77     -807636.79     -18951.609      0.36293942     0.055792971    47.29256       2094.8578    
       970   1.94           301.51439      126844.67     -807637.97     -18782.393      0.36292559     0.055296912    47.310171      2094.6315    
       980   1.96           304.71963      130225.63     -807633.82     -19071.173      0.36291162     0.056149265    47.37098       2094.3781    
       990   1.98           309.54463      134319.95     -807628.21     -19469.063      0.3628975      0.057322961    47.333521      2094.1421    
      1000   2              313.50879      138855.36     -807623.44     -19805.924      0.36288325     0.058317076    47.217497      2093.9582    
      1010   2.02           319.70529      140728.81     -807622.77     -310.92165      0.36286884     0.058593414    47.440983      2093.6758    
      1020   2.04           319.97483      138456.82     -807624.35     -309.29271      0.3628543      0.058288776    47.534568      2093.3546    
      1030   2.06           316.6336       135821.32     -807628.2      -304.83526      0.36283961     0.057451057    47.559783      2093.0248    
      1040   2.08           322.02427      129843.08     -807635.11     -298.63408      0.36282478     0.056284646    47.534868      2092.7078    
      1050   2.1            302.37323      128481.7      -807635.64     -295.28086      0.3628098      0.05565495     47.518209      2092.3998    
      1060   2.12           305.87861      126796.7      -807637.83     -293.58286      0.36279469     0.055337216    47.532311      2092.0878    
      1070   2.14           321.88246      131146.7      -807634.78     -298.76738      0.36277943     0.05631681     47.501199      2091.7905    
      1080   2.16           305.9219       133840.75     -807628        -303.41184      0.36276402     0.057194705    47.489745      2091.4993    
      1090   2.18           329.99525      139814.05     -807624.65     -309.93515      0.36274848     0.058426888    47.570086      2091.1774    
      1100   2.2            308.58244      137957.23     -807622.65     -309.05265      0.36273279     0.058263045    47.532311      2090.8726    
      1110   2.22           316.51089      141299.92     -807622.16     -310.44968      0.36271695     0.05852897     47.282346      2090.6685    
      1120   2.24           318.43714      132341.97     -807630.05     -303.01968      0.36270098     0.05713071     47.5269        2090.3683    
      1130   2.26           311.25029      133458.84     -807631.59     -300.29201      0.36268486     0.056618957    47.267377      2090.1707    
      1140   2.28           301.40238      125911.23     -807637.97     -292.73636      0.3626686      0.055196842    47.428175      2089.9107    
      1150   2.3            314.04125      130292.19     -807635.79     -296.49996      0.36265219     0.055909016    47.262993      2089.7149    
      1160   2.32           312.53191      128793.31     -807634.85     -297.4223       0.36263564     0.056085494    47.26513       2089.5179    
      1170   2.34           314.10914      137956.78     -807626.33     -306.07421      0.36261895     0.057719659    47.528604      2089.2217    
      1180   2.36           319.60721      136799.75     -807626.17     -307.23505      0.36260212     0.057941261    47.512832      2088.9327    
      1190   2.38           314.89179      141880.68     -807621.32     -311.3506       0.36258514     0.058720158    47.514992      2088.6443    
      1200   2.4            311.73804      136819.7      -807626.15     -306.36071      0.36256802     0.057781803    47.496803      2088.3637    
      1210   2.42           309.72187      136085.56     -807628.18     -303.99537      0.36255076     0.057338413    47.397968      2088.1203    
      1220   2.44           312.5853       128428.25     -807636.45     -296.36663      0.36253335     0.055902194    47.562027      2087.8184    
      1230   2.46           302.69278      128760.31     -807637.65     -293.81172      0.3625158      0.055422956    47.549486      2087.5225    
      1240   2.48           305.24827      127277.15     -807637.55     -294.51604      0.36249811     0.055558526    47.493415      2087.2477    
      1250   2.5            314.32701      131566.21     -807633.18     -300.32955      0.36248028     0.056657995    47.492297      2086.9744    
      1260   2.52           308.89064      136158.27     -807627.28     -305.655        0.3624623      0.057665516    47.546612      2086.6831    
      1270   2.54           309.49307      139628.69     -807624.41     -308.84043      0.36244418     0.058269398    47.523271      2086.4012    
      1280   2.56           301.35444      141230.08     -807621.3      -310.97828      0.36242592     0.058675707    47.549391      2086.1115    
      1290   2.58           310.30625      137290.15     -807625.6      -308.20896      0.36240751     0.058156142    47.511807      2085.8358    
      1300   2.6            309.18272      134286.29     -807631.74     -302.05646      0.36238896     0.056998141    47.519013      2085.5586    
      1310   2.62           295.60968      128221.03     -807636.62     -295.53177      0.36237027     0.055769805    47.303684      2085.3546    
      1320   2.64           301.63276      128543.41     -807637.83     -295.25894      0.36235143     0.055721218    47.546549      2085.0698    
      1330   2.66           299.54384      126617.76     -807637.79     -295.25007      0.36233245     0.055722462    47.534489      2084.7901    
      1340   2.68           299.48713      133653.47     -807632.72     -300.34153      0.36231333     0.056686362    47.524265      2084.5147    
      1350   2.7            300.98124      134453.21     -807629.56     -303.94634      0.36229407     0.057369784    47.502286      2084.2474    
      1360   2.72           309.4251       140353.98     -807623.45     -311.1827       0.36227466     0.058738792    47.52283       2083.9744    
      1370   2.74           302.27743      138271.68     -807624.47     -309.32542      0.36225511     0.058391363    47.533952      2083.6987    
      1380   2.76           300.04062      138529.09     -807626.01     -307.37578      0.36223542     0.058026483    47.509427      2083.4317    
      1390   2.78           300.14332      130795.68     -807633.54     -299.94875      0.36221558     0.056627508    47.543486      2083.1548    
      1400   2.8            299.50615      130612.13     -807635.42     -297.85624      0.3621956      0.056235562    47.54448       2082.8786    
      1410   2.82           297.55528      126137.44     -807639.5      -293.57762      0.36217548     0.055430833    47.306888      2082.6772    
      1420   2.84           292.36834      131215.52     -807636.09     -296.03558      0.36215522     0.055898053    47.493998      2082.4178    
      1430   2.86           297.37714      130430.07     -807633.76     -299.12523      0.36213481     0.056484631    47.52507       2082.1496    
      1440   2.88           307.87098      137767.59     -807626.4      -307.72929      0.36211426     0.058112655    47.578448      2081.8661    
      1450   2.9            296.43113      137701.27     -807623.87     -308.64424      0.36209357     0.058288768    47.517657      2081.6018    
      1460   2.92           307.2677       140811.28     -807624.01     -309.68669      0.36207273     0.058489006    47.562548      2081.3249    
      1470   2.94           298.9384       136045.09     -807627.72     -304.65648      0.36205176     0.057542309    47.535562      2081.0569    
      1480   2.96           307.68733      133634.43     -807631.75     -301.49656      0.36203064     0.056948797    47.53288       2080.7904    
      1490   2.98           303.19296      128833.32     -807636.93     -295.36047      0.36200937     0.055793046    47.524597      2080.5271    
      1500   3              302.27378      127439.32     -807637.89     -293.86125      0.36198796     0.05551313     47.511823      2080.2683    
      1510   3.02           310.17806      128864.98     -807637.35     -18889.842      0.36196642     0.05576062     47.204452      2080.0995    
      1520   3.04           313.51635      132990.19     -807631.62     -19262.47       0.36194472     0.056863983    47.26744       2079.9118    
      1530   3.06           320.03519      137971.25     -807626.05     -19653.078      0.36192289     0.058020582    47.290233      2079.7172    
      1540   3.08           324.6565       138582.37     -807625.54     -19713.476      0.36190091     0.058202424    47.286502      2079.5235    
      1550   3.1            303.49671      141153.42     -807620.7      -19812.986      0.36187879     0.058499797    47.232475      2079.345     
      1560   3.12           325.43315      134846.91     -807629.22     -19455.327      0.36185653     0.057447306    47.27302       2079.1545    
      1570   3.14           310.2601       134533.55     -807630.15     -19242.682      0.36183412     0.056822931    47.238194      2078.9736    
      1580   3.16           306.7986       126900.56     -807637.31     -18753.152      0.36181157     0.055380817    47.23916       2078.792     
      1590   3.18           306.51268      130541.61     -807635.65     -18836.234      0.36178888     0.055629659    47.205426      2078.6194    
      1600   3.2            314.00684      127543.49     -807636.86     -18836.559      0.36176605     0.055634131    47.209255      2078.4452    
      1610   3.22           317.43923      136406.91     -807627.92     -19423.128      0.36174307     0.057370218    47.119023      2078.2954    
      1620   3.24           322.18587      135173.92     -807627.55     -19500.364      0.36171995     0.05760203     47.248139      2078.1095    
      1630   3.26           313.54697      143077.62     -807620.71     -19847.515      0.36169669     0.05863125     47.292632      2077.9113    
      1640   3.28           313.90004      137804.44     -807624.07     -19644.848      0.36167329     0.05803631     47.252552      2077.7238    
      1650   3.3            318.44388      138714.71     -807626.25     -19536.536      0.36164974     0.057720083    47.232148      2077.5414    
      1660   3.32           315.97331      129871.45     -807634.63     -18988.157      0.36162605     0.056103589    47.258463      2077.3516    
      1670   3.34           315.50566      130117.34     -807636.21     -18875.607      0.36160222     0.055774719    47.329838      2077.1428    
      1680   3.36           305.63867      126213.71     -807637.73     -18702.215      0.36157824     0.055266034    47.289273      2076.9446    
      1690   3.38           311.30237      132056.17     -807633.27     -19031.982      0.36155413     0.056244264    47.319999      2076.7382    
      1700   3.4            309.62238      132930.67     -807630.28     -19219.674      0.36152987     0.056802752    47.456653      2076.4966    
      1710   3.42           316.4051       139018.21     -807624.19     -19667.704      0.36150546     0.058130805    47.189993      2076.3238    
      1720   3.44           311.22193      139443.64     -807622.37     -19747.59       0.36148092     0.058370883    47.335596      2076.1133    
      1730   3.46           316.6768       140026.99     -807623.75     -19707.504      0.36145623     0.058256373    47.323111      2075.9059    
      1740   3.48           308.62942      135008.99     -807627.57     -19398.728      0.3614314      0.057347555    47.323721      2075.6984    
      1750   3.5            317.0683       130668.88     -807634.32     -19048.86       0.36140643     0.056317148    47.367181      2075.4799    
      1760   3.52           307.82837      127622.48     -807636.99     -18799.589      0.36138131     0.055584053    47.230886      2075.2955    
      1770   3.54           309.0265       127581.91     -807638.14     -18742.976      0.36135605     0.055420541    47.422576      2075.0633    
      1780   3.56           305.14096      130159.19     -807633.96     -18983.959      0.36133065     0.056137041    47.253955      2074.8729    
      1790   3.58           322.59573      133439.7      -807631.31     -19322.586      0.36130511     0.057142429    47.281809      2074.6754    
      1800   3.6            318.02425      138501        -807625.82     -19641.087      0.36127942     0.058088457    47.313463      2074.47      
      1810   3.62           302.54177      139375.48     -807622.5      -19726.737      0.3612536      0.058345937    46.991999      2074.343     
      1820   3.64           310.16695      138976.8      -807624.44     -19673.395      0.36122763     0.05819235     47.277843      2074.1456    
      1830   3.66           316.00444      132569.96     -807631.1      -19311.642      0.36120151     0.057126444    47.333734      2073.9347    
      1840   3.68           316.90542      131509.87     -807634.68     -19092.99       0.36117526     0.056483748    47.223113      2073.7501    
      1850   3.7            291.08384      126068.91     -807637.42     -18695.89       0.36114886     0.055313028    47.302568      2073.5465    
      1860   3.72           309.08947      129096.02     -807638.2      -18807.228      0.36112232     0.055646518    47.309461      2073.3411    
      1870   3.74           297.94633      129430.43     -807634.65     -18950.513      0.36109564     0.056074613    47.283604      2073.1417    
      1880   3.76           312.41222      136588.45     -807628.86     -19451.163      0.36106881     0.057560312    47.371836      2072.9216    
      1890   3.78           307.32047      137052.2      -807626.5      -19569.447      0.36104184     0.057914667    47.276751      2072.7236    
      1900   3.8            299.40376      141602.73     -807622.03     -19783.493      0.36101474     0.05855252     47.251709      2072.5313    
      1910   3.82           307.76721      136280.84     -807627.27     -19533.819      0.36098748     0.057817933    35.899237      2075.7758    
      1920   3.84           310.99339      135826.95     -807629.92     -19391.734      0.36096009     0.057401734    47.170125      2075.5836    
      1930   3.86           308.62412      127609.59     -807638.78     -18815.822      0.36093255     0.055701217    47.276985      2075.3668    
      1940   3.88           297.11447      129316.47     -807638.11     -18748.13       0.36090487     0.055505083    47.295537      2075.1458    
      1950   3.9            296.64397      126449.51     -807638.97     -18701.957      0.36087705     0.055372652    47.308054      2074.9222    
      1960   3.92           302.14419      132890.07     -807632.77     -19147.86       0.36084909     0.056697274    47.229842      2074.7161    
      1970   3.94           315.25966      133257.14     -807631.89     -19330.281      0.36082098     0.057241886    47.304006      2074.4935    
      1980   3.96           308.71534      139696.73     -807625.67     -19665.023      0.36079273     0.058237701    47.284901      2074.2753    
      1990   3.98           303.03089      139182.37     -807624.16     -19718.309      0.36076434     0.058400103    47.286649      2074.0567    
      2000   4              303.24162      137963.51     -807625.42     -19639.69       0.36073581     0.058171855    47.163863      2073.8652    
      2010   4.02           308.12983      132975.27     -807632.77     -300.1973       0.36070713     0.056911439    47.401978      2073.6215    
      2020   4.04           293.59875      128805.67     -807636.79     -294.12438      0.36067831     0.055764589    47.536818      2073.3491    
      2030   4.06           295.75956      127479.71     -807638.36     -292.80565      0.36064935     0.055519022    47.498135      2073.0856    
      2040   4.08           287.42732      127588.4      -807636.53     -293.52465      0.36062025     0.055659844    47.513235      2072.8195    
      2050   4.1            315.01321      132021.36     -807635.47     -298.2944       0.36059101     0.056568899    47.525173      2072.5513    
      2060   4.12           313.1716       134580.28     -807630.92     -302.51303      0.36056162     0.057373601    47.533709      2072.2819    
      2070   4.14           310.34308      140651.79     -807624.42     -308.42951      0.36053209     0.058500491    47.490368      2072.0222    
      2080   4.16           299.72974      138608.84     -807623.76     -307.54159      0.36050242     0.058336878    47.54921       2071.7507    
      2090   4.18           299.61381      139026.92     -807624.88     -306.04617      0.36047261     0.058058016    47.555606      2071.4784    
      2100   4.2            312.79145      130442.96     -807634.67     -297.93542      0.36044265     0.056524077    47.559034      2071.206     
      2110   4.22           297.68163      130913.55     -807634.29     -295.80149      0.36041256     0.056123915    47.294397      2070.9887    
      2120   4.24           297.06249      126108.3      -807638.66     -291.19701      0.36038232     0.055254921    47.555101      2070.7181    
      2130   4.26           303.55822      130227.69     -807635.64     -294.70543      0.36035193     0.055925361    47.439687      2070.4715    
      2140   4.28           319.28571      129992.35     -807635.37     -296.96393      0.36032141     0.056358724    47.520473      2070.2088    
      2150   4.3            312.14494      137573.66     -807626.26     -304.76104      0.36029075     0.057843406    47.551626      2069.9403    
      2160   4.32           308.28346      138529.15     -807623.3      -306.99444      0.36025994     0.058272287    47.557865      2069.6712    
      2170   4.34           308.0742       140097.32     -807623.16     -306.79963      0.36022899     0.058240311    47.523643      2069.4094    
      2180   4.36           316.75076      135920.95     -807628.02     -302.93544      0.36019789     0.057511731    47.535476      2069.1457    
      2190   4.38           315.39214      132090.51     -807631.35     -299.15508      0.36016666     0.056798961    47.568625      2068.876     
      2200   4.4            308.78829      128547.71     -807635.94     -293.35991      0.36013528     0.055703515    47.548736      2068.6107    
      2210   4.42           318.25317      127335.63     -807639.52     -290.88093      0.36010377     0.055237638    47.326975      2068.3895    
      2220   4.44           307.84185      130220.05     -807634.2      -294.52978      0.36007211     0.055935466    47.510208      2068.1326    
      2230   4.46           319.89689      132401.79     -807632.05     -298.35543      0.3600403      0.056667016    47.501192      2067.8778    
      2240   4.48           311.19324      138583.66     -807624.67     -304.25482      0.36000836     0.057792621    47.519369      2067.6198    
      2250   4.5            309.61405      138167.2      -807623.72     -304.95823      0.35997627     0.057931397    47.516751      2067.3628    
      2260   4.52           315.69135      141208.68     -807621.69     -307.6068       0.35994404     0.058439764    47.550647      2067.0997    
      2270   4.54           316.76108      134823.68     -807627.39     -302.05636      0.35991167     0.057390442    47.52399       2066.8422    
      2280   4.56           321.76545      134149.09     -807631.04     -298.94481      0.35987916     0.056804382    47.538205      2066.5824    
      2290   4.58           314.57378      128083.47     -807636.91     -292.09393      0.35984651     0.055507639    47.567601      2066.3174    
      2300   4.6            307.64316      130077.57     -807634.89     -293.01033      0.35981371     0.055686862    47.51379       2066.0631    
      2310   4.62           314.17722      127610.96     -807635.15     -293.81293      0.35978077     0.055844507    47.219378      2065.8646    
      2320   4.64           305.13673      135636.21     -807627.96     -299.64278      0.35974769     0.056957814    47.448415      2065.623     
      2330   4.66           321.2651       135804.43     -807627.56     -302.42248      0.35971447     0.057491505    47.412781      2065.3883    
      2340   4.68           312.07504      141167.79     -807621.48     -307.15453      0.35968111     0.0583965      47.56057       2065.1264    
      2350   4.7            314.52085      137208.43     -807624.59     -304.59383      0.3596476      0.057915052    47.547698      2064.8673    
      2360   4.72           314.59471      137082.13     -807626.91     -302.19458      0.35961396     0.057464238    47.510416      2064.6155    
      2370   4.74           317.42391      130520.5      -807634.34     -295.30458      0.35958017     0.056159336    47.539725      2064.3587    
      2380   4.76           311.80686      129436.13     -807635.61     -293.32241      0.35954624     0.055787643    47.540309      2064.1021    
      2390   4.78           301.59876      127603.03     -807636.17     -291.55603      0.35951216     0.055456947    47.528505      2063.8481    
      2400   4.8            313.60046      130382.16     -807634.55     -294.99006      0.35947795     0.056115475    47.550903      2063.5904    
      2410   4.82           303.1562       133846.53     -807629.98     -298.31267      0.35944359     0.056752954    47.29479       2063.3792    
      2420   4.84           312.26452      138387.82     -807625.63     -304.12715      0.35940909     0.057864692    47.494499      2063.1322    
      2430   4.86           312.37963      138849.85     -807623.23     -306.75064      0.35937446     0.058369475    47.515792      2062.8817    
      2440   4.88           303.75268      138388.74     -807624.37     -304.62393      0.35933967     0.057970408    47.570604      2062.6218    
      2450   4.9            307.58162      136239.65     -807628.73     -300.96931      0.35930475     0.057280496    47.560333      2062.3641    
      2460   4.92           316.00019      129556.13     -807635.52     -295.56938      0.35926969     0.056258271    47.508493      2062.1159    
      2470   4.94           303.62061      129785.64     -807636.18     -293.33454      0.35923448     0.055838366    47.5014        2061.8693    
      2480   4.96           290.23743      127429.81     -807637.38     -290.55875      0.35919913     0.055315417    47.496011      2061.6239    
      2490   4.98           300.74066      132439.59     -807633.97     -295.49254      0.35916364     0.056260252    47.530998      2061.3727    
[...]
     98740   197.48         320.04693      134280.99     -807630.62     -19251.206      0.36236891     0.056764204    42.419889      28.607534    
     98750   197.5          326.37576      132793.72     -807630.68     -19309.716      0.36238762     0.056933787    42.447857      28.380598    
     98760   197.52         315.21559      135769.35     -807626.14     -19504.919      0.36240618     0.05750639     42.443265      28.153661    
     98770   197.54         310.12159      135243.27     -807628.1      -19340.929      0.36242459     0.057020002    42.371772      27.926727    
     98780   197.56         327.3931       134207.8      -807630.62     -19338.674      0.36244287     0.057010477    42.32708       27.699794    
     98790   197.58         316.77975      135276.93     -807626.75     -19505.765      0.362461       0.057500185    42.437767      27.472851    
     98800   197.6          310.2925       134133.09     -807627.65     -19409.822      0.36247899     0.057214522    42.397869      27.24591     
     98810   197.62         313.15168      133756.15     -807629.97     -19297.727      0.36249683     0.056881295    42.304419      27.018973    
     98820   197.64         320.77702      131734.41     -807633.47     -19169.728      0.36251453     0.056501254    42.382621      26.792029    
     98830   197.66         310.41881      134593.48     -807628.42     -19429.078      0.36253209     0.057262893    42.317347      26.565088    
     98840   197.68         315.8273       132664.04     -807630.37     -19388.795      0.36254951     0.057141421    42.516943      26.338131    
     98850   197.7          301.30722      134764.53     -807628.75     -19394.141      0.36256678     0.057154455    42.324703      26.111186    
     98860   197.72         307.48592      133510.07     -807631.46     -19307.712      0.36258391     0.05689706     42.357595      25.884236    
     98870   197.74         296.85653      135791.56     -807625.88     -19597.635      0.3626009      0.057748715    42.37107       25.657284    
     98880   197.76         305.53266      134265.71     -807629.49     -19465.89       0.36261774     0.057357836    42.403105      25.430328    
     98890   197.78         298.82973      134639.07     -807631.27     -19298.704      0.36263445     0.05686259     42.387063      25.203371    
     98900   197.8          303.17125      132209.42     -807633.41     -19213.239      0.362651       0.056608187    42.343853      24.976414    
     98910   197.82         297.32721      134190.94     -807629.49     -19418          0.36266742     0.057208886    42.263486      24.749461    
     98920   197.84         305.76257      133039.7      -807631.11     -19396.414      0.36268369     0.057142726    42.457902      24.522495    
     98930   197.86         315.09704      131839.26     -807633.99     -19297.076      0.36269982     0.056847545    42.499793      24.295524    
     98940   197.88         302.89704      133510.79     -807631.34     -19357.897      0.36271581     0.057024204    42.435868      24.068555    
     98950   197.9          309.0798       134592.62     -807629.34     -19545.651      0.36273165     0.057574772    42.391995      23.841586    
     98960   197.92         305.23668      134646.46     -807628.73     -19546.636      0.36274735     0.057575182    42.416559      23.614615    
     98970   197.94         299.9174       133573.17     -807631.51     -19320.442      0.36276291     0.056906481    42.48098       23.387638    
     98980   197.96         300.21044      133304.43     -807632.17     -19277.301      0.36277832     0.056776999    42.520024      23.160657    
     98990   197.98         299.90539      132665.93     -807629.59     -19436.811      0.36279359     0.057244392    42.528069      22.933675    
     99000   198            306.33413      132882.03     -807631.06     -19392.223      0.36280872     0.057110694    42.408016      22.706697    
     99010   198.02         303.50933      132387.96     -807632.99     -300.55332      0.3628237      0.056646541    42.423069      22.479716    
     99020   198.04         308.38787      134082.5      -807631.14     -302.96059      0.36283855     0.057097914    42.549782      22.252727    
     99030   198.06         311.59941      134191.27     -807629.07     -305.46525      0.36285324     0.057567625    42.612769      22.025733    
     99040   198.08         294.95114      135783.13     -807626.21     -305.76975      0.3628678      0.0576227      42.603412      21.798738    
     99050   198.1          299.96702      133903.5      -807630.81     -301.75863      0.36288221     0.05686454     42.585963      21.571742    
     99060   198.12         316.04614      134353.31     -807631.77     -302.85914      0.36289648     0.057069682    42.589865      21.344744    
     99070   198.14         313.90171      133092.33     -807630.4      -303.82237      0.36291061     0.057248961    42.600369      21.117744    
     99080   198.16         303.63566      133901.4      -807629.73     -302.80043      0.36292459     0.057054199    42.559128      20.890745    
     99090   198.18         310.08819      132142.91     -807633.84     -299.37851      0.36293843     0.056407284    42.590992      20.663743    
     99100   198.2          322.28658      132436.72     -807632.78     -301.93461      0.36295213     0.056886743    42.493726      20.436744    
     99110   198.22         304.66749      133751.1      -807627.15     -305.04488      0.36296568     0.057470595    42.426111      20.209746    
     99120   198.24         304.39634      135265.97     -807626.83     -305.1032       0.36297909     0.057479459    42.564189      19.98274     
     99130   198.26         311.33094      134005.51     -807630.85     -301.80878      0.36299236     0.056856733    42.574061      19.755732    
     99140   198.28         313.84571      135824.04     -807628.93     -303.89692      0.36300548     0.057248042    42.55334       19.528724    
     99150   198.3          314.8046       135231.65     -807627.62     -305.29333      0.36301846     0.05750904     42.514915      19.301715    
     99160   198.32         314.38678      134802.21     -807628.48     -304.1739       0.3630313      0.057296143    42.608855      19.074701    
     99170   198.34         314.93462      133286.71     -807633.07     -299.54601      0.36304399     0.056422432    42.600564      18.847685    
     99180   198.36         305.20897      133325.54     -807630.26     -300.93422      0.36305655     0.056681955    42.547548      18.62067     
     99190   198.38         305.18352      133723.64     -807626.74     -304.41691      0.36306895     0.057335971    42.578813      18.393652    
     99200   198.4          311.5442       133700.31     -807628.89     -303.05079      0.36308122     0.057076739    42.532129      18.166635    
     99210   198.42         316.84934      134692.58     -807630.14     -302.39829      0.36309334     0.056951945    42.450216      17.93962     
     99220   198.44         318.46073      134033.28     -807628.68     -304.13677      0.36310532     0.057277471    42.633024      17.712595    
     99230   198.46         311.51127      136912.56     -807624.62     -307.21629      0.36311715     0.057855545    42.612723      17.485569    
     99240   198.48         318.02942      135372.19     -807628.83     -303.93696      0.36312885     0.057236133    42.651311      17.25854     
     99250   198.5          315.96175      134047.84     -807630.5      -301.94187      0.3631404      0.056858617    42.682576      17.031508    
     99260   198.52         303.65186      132844.78     -807629.01     -301.78578      0.3631518      0.05682744     42.667809      16.804476    
     99270   198.54         319.53767      133514.53     -807629.79     -303.23691      0.36316306     0.057098921    42.612038      16.577444    
     99280   198.56         324.34654      132471.74     -807631.74     -302.04547      0.36317418     0.056872835    42.554958      16.350413    
     99290   198.58         315.07352      133408        -807630.99     -301.49973      0.36318516     0.056768361    42.575749      16.12338     
     99300   198.6          315.12848      133940.18     -807629.61     -303.04594      0.36319599     0.05705779     42.649609      15.896342    
     99310   198.62         310.25922      136153.74     -807625.81     -306.31426      0.36320668     0.057671455    42.483808      15.669309    
     99320   198.64         310.95401      134804.22     -807627        -305.33896      0.36321723     0.05748616     42.624406      15.442269    
     99330   198.66         308.33962      134238.03     -807629.01     -303.12577      0.36322763     0.057067848    42.559019      15.21523     
     99340   198.68         296.72708      134980.75     -807627.09     -303.66652      0.36323789     0.057168037    42.51917       14.988191    
     99350   198.7          313.73018      133408.23     -807629.09     -304.30817      0.36324801     0.057287238    42.569761      14.761148    
     99360   198.72         311.23326      133004.87     -807630.45     -302.82028      0.36325798     0.057005572    42.655314      14.534101    
     99370   198.74         309.53188      133283.68     -807633.08     -300.28205      0.36326781     0.056526224    42.605876      14.307054    
     99380   198.76         297.43369      133954.04     -807629.43     -302.66969      0.3632775      0.056974163    42.70851       14.080002    
     99390   198.78         307.14001      133999.9      -807628.54     -305.27284      0.36328704     0.057462666    42.629647      13.852951    
     99400   198.8          308.60628      135076.12     -807629.92     -304.44226      0.36329644     0.057304841    42.598105      13.625899    
     99410   198.82         298.80162      134808.12     -807630.01     -303.35756      0.3633057      0.057099214    42.465764      13.398851    
     99420   198.84         305.50957      134713.81     -807629.37     -305.22631      0.36331481     0.057449517    42.607296      13.171796    
     99430   198.86         296.27587      134407.41     -807628.1      -305.50344      0.36332378     0.057500258    42.716231      12.944736    
     99440   198.88         303.34831      132487.88     -807632.32     -302.4357       0.36333261     0.056921481    42.728099      12.717675    
     99450   198.9          298.82344      132729.74     -807633.08     -301.17705      0.36334129     0.056683236    42.605026      12.490615    
     99460   198.92         288.90661      132747.03     -807630.16     -302.86415      0.36334983     0.056999418    42.520761      12.263557    
     99470   198.94         302.58382      133846.78     -807629.59     -305.37211      0.36335823     0.05747009     42.602339      12.036495    
     99480   198.96         293.7028       134228.54     -807630.07     -303.71734      0.36336648     0.057157369    42.585613      11.809432    
     99490   198.98         294.89582      135273.1      -807630        -303.91283      0.3633746      0.057192883    42.604937      11.582366    
     99500   199            297.0328       135134.3      -807628.68     -305.59356      0.36338256     0.057507916    42.62126       11.355299    
     99510   199.02         296.77753      135429.57     -807628.19     -19583.724      0.36339039     0.05758235     42.319591      11.128238    
     99520   199.04         310.40875      132985.15     -807632.87     -19397.832      0.36339807     0.057034562    42.522706      10.90117     
     99530   199.06         298.38034      133437.91     -807632.48     -19309.808      0.3634056      0.056774575    42.454999      10.674102    
     99540   199.08         301.45217      133329.42     -807631.68     -19385.503      0.363413       0.056995972    42.408963      10.447034    
     99550   199.1          305.96749      132955.99     -807631.71     -19418.289      0.36342025     0.057091229    42.461823      10.219962    
     99560   199.12         301.99678      132999.1      -807631.96     -19355.351      0.36342736     0.056905072    42.475477      9.9928887    
     99570   199.14         296.36907      134103.45     -807630.99     -19361.654      0.36343432     0.056922512    42.512366      9.7658127    
     99580   199.16         303.6443       134237.78     -807629.24     -19532.602      0.36344114     0.057424015    42.565345      9.5387337    
     99590   199.18         299.96045      136376.5      -807627.11     -19624.504      0.36344782     0.05769314     42.548989      9.3116536    
     99600   199.2          304.72395      134531.67     -807630.46     -19440.809      0.36345435     0.057152075    42.475465      9.0845735    
     99610   199.22         307.67168      134328.98     -807631.03     -19416.138      0.36346074     0.057078545    42.427096      8.8574928    
     99620   199.24         301.92197      133298.06     -807629.87     -19435.437      0.36346699     0.057134296    42.476032      8.6304093    
     99630   199.26         304.18077      133840.37     -807629.16     -19490.115      0.3634731      0.05729407     42.386089      8.403326     
     99640   199.28         308.98616      132562.63     -807632.75     -19292.562      0.36347906     0.056712404    42.396079      8.1762407    
     99650   199.3          299.15292      134880.07     -807630.21     -19352.806      0.36348487     0.056888587    42.483581      7.9491519    
     99660   199.32         308.21195      133907.06     -807629.26     -19489.487      0.36349055     0.057289473    42.489267      7.7220614    
     99670   199.34         314.39425      135200.15     -807628.96     -19556.11       0.36349608     0.057484438    42.437231      7.4949701    
     99680   199.36         311.86095      134053.68     -807630.56     -19421.983      0.36350147     0.05708933     42.367739      7.2678784    
     99690   199.38         309.33252      134939.41     -807629.87     -19435.221      0.36350671     0.057127417    42.444968      7.0407836    
     99700   199.4          297.74083      134511.91     -807627.63     -19471.451      0.36351181     0.057233109    42.457516      6.8136868    
     99710   199.42         313.19569      134014.88     -807629.91     -19453.778      0.36351677     0.057180381    42.255035      6.5865917    
     99720   199.44         310.72897      133001.98     -807631.61     -19317.285      0.36352158     0.056778436    42.367476      6.3594928    
     99730   199.46         298.32555      134231.52     -807629.56     -19328.625      0.36352625     0.056811039    42.45442       6.1323909    
     99740   199.48         311.82503      134404.22     -807630.1      -19412.426      0.36353078     0.057056637    42.596065      5.9052852    
     99750   199.5          318.83115      135419.55     -807629.04     -19534.33       0.36353516     0.057414241    42.498359      5.6781794    
     99760   199.52         306.70568      134454.07     -807628.72     -19445.046      0.3635394      0.057151157    42.486417      5.451072     
     99770   199.54         315.80388      134763.03     -807629.66     -19459.971      0.3635435      0.057194378    42.502081      5.2239628    
     99780   199.56         309.99457      134339.35     -807628.49     -19485.457      0.36354745     0.057268661    42.459065      4.9968525    
     99790   199.58         312.69773      135447.43     -807628.75     -19488.713      0.36355126     0.057277632    42.502951      4.76974      
     99800   199.6          313.51071      133309.37     -807631.15     -19340.655      0.36355493     0.056841913    42.393443      4.5426271    
     99810   199.62         311.99426      133916.2      -807630.87     -19341.34       0.36355845     0.056843374    42.302549      4.3155133    
     99820   199.64         319.67635      132666.08     -807631.95     -19347.22       0.36356183     0.056860128    42.513716      4.0883956    
     99830   199.66         318.56811      134584.96     -807629.92     -19462.555      0.36356507     0.057198581    42.424846      3.8612771    
     99840   199.68         317.20388      133626.94     -807630.52     -19416.282      0.36356816     0.057062101    42.37747       3.6341574    
     99850   199.7          307.59318      135925.96     -807628.1      -19485.046      0.36357111     0.057263726    42.402959      3.4070356    
     99860   199.72         308.84127      134977.49     -807627.76     -19523.424      0.36357392     0.057376072    42.501866      3.1799113    
     99870   199.74         312.63544      134944.68     -807627.65     -19563.887      0.36357658     0.057494565    42.506888      2.9527854    
     99880   199.76         302.02642      133643.58     -807628.47     -19420.924      0.3635791      0.057074027    42.503532      2.7256578    
     99890   199.78         309.64005      133040.49     -807630.44     -19363.928      0.36358148     0.056906157    42.375652      2.4985294    
     99900   199.8          313.47204      133217.78     -807630.78     -19377.548      0.36358371     0.056945833    42.460425      2.2713987    
     99910   199.82         314.84976      133028.22     -807631.36     -19358.864      0.3635858      0.056890597    42.279253      2.0442673    
     99920   199.84         305.39746      133410.71     -807629.99     -19363.432      0.36358775     0.056903716    42.388925      1.8171335    
     99930   199.86         312.91543      133575.68     -807630.2      -19419.451      0.36358955     0.057068057    42.332866      1.5899982    
     99940   199.88         311.62673      135854.23     -807628.42     -19527.756      0.36359121     0.057386073    42.400197      1.3628608    
     99950   199.9          310.06442      134571.16     -807627.76     -19565.554      0.36359273     0.057496912    42.325783      1.1357219    
     99960   199.92         302.58612      135958.47     -807626.95     -19551.617      0.3635941      0.057455737    42.281712      0.90858128   
     99970   199.94         311.13353      132859.61     -807630.3      -19427.246      0.36359533     0.05709006     42.282849      0.68143877   
     99980   199.96         312.29741      134125.33     -807629.47     -19496.891      0.36359641     0.057294551    42.281463      0.45429438   
     99990   199.98         305.48055      132562.43     -807631.14     -19345.537      0.36359736     0.056849627    42.334643      0.2271481    
    100000   200            306.66073      134151.12     -807631.19     -19365.508      0.36359816     0.056908188    42.366473      0            
Loop time of 2271.49 on 64 procs for 100000 steps with 1080 atoms

Performance: 7.607 ns/day, 3.155 hours/ns, 44.024 timesteps/s, 47.546 katom-step/s
93.3% CPU use with 64 MPI tasks x 1 OpenMP threads

MPI task timing breakdown:
Section |  min time  |  avg time  |  max time  |%varavg| %total
---------------------------------------------------------------
Pair    | 1597       | 1750.6     | 1895.6     | 180.2 | 77.07
Neigh   | 0.0014705  | 0.0042561  | 0.0091838  |   3.9 |  0.00
Comm    | 296.56     | 441.35     | 594.56     | 358.4 | 19.43
Output  | 2.8498     | 3.236      | 3.529      |  10.5 |  0.14
Modify  | 67.692     | 69.352     | 70.4       |   7.3 |  3.05
Other   |            | 6.973      |            |       |  0.31

Nlocal:         16.875 ave          25 max          12 min
Histogram: 6 9 5 21 7 5 7 2 1 1
Nghost:        820.062 ave         833 max         804 min
Histogram: 3 4 1 5 11 9 16 7 6 2
Neighs:              0 ave           0 max           0 min
Histogram: 64 0 0 0 0 0 0 0 0 0
FullNghs:      2691.16 ave        3986 max        1914 min
Histogram: 6 9 11 12 10 6 6 2 1 1

Total # of neighbors = 172234
Ave neighs/atom = 159.47593
Neighbor list builds = 4
Dangerous builds = 0

Total wall time: 0:40:17
