
units		metal
atom_style	atomic

read_data ${STRUCTURE}.data
read_data BaTiO3-sc333.data
Reading data file ...
  orthogonal box = (0 0 0) to (11.898253 11.898253 12.912076)
  2 by 4 by 4 MPI processor grid
  reading atoms ...
  135 atoms
  read_data CPU = 0.009 seconds
replicate $L $L $L
replicate 2 $L $L
replicate 2 2 $L
replicate 2 2 2
Replication is creating a 2x2x2 = 8 times larger system...
  orthogonal box = (0 0 0) to (23.796507 23.796507 25.824152)
  2 by 4 by 4 MPI processor grid
  1080 atoms
  replicate CPU = 0.004 seconds

pair_style allegro
pair_coeff	* * ${MODEL}.pth Ba Ti O
pair_coeff	* * BaTiO3-E0.pth Ba Ti O
mass 1 137.3
mass 2 47.9
mass 3 15.9994

timestep 0.002
compute polarization all allegro polarization 3
compute allegro will evaluate the quantity polarization of length 3 (src/compute_allegro.cpp:53)
compute polarizability all allegro polarizability 9
compute allegro will evaluate the quantity polarizability of length 9 (src/compute_allegro.cpp:53)

thermo_style custom pe fmax fnorm spcpu cpuremain

variable efield equal 1e-2*36.36
fix born all addbornforce 0.0 0.0 ${efield}
fix born all addbornforce 0.0 0.0 0.3636

thermo 10
min_style fire
#minimize 0.0 1e-6 100 100
velocity all create ${TEMP} ${SEED} dist gaussian rot yes mom yes
velocity all create 340 ${SEED} dist gaussian rot yes mom yes
velocity all create 340 14213 dist gaussian rot yes mom yes
fix nvt all nvt temp ${TEMP} ${TEMP} $(100*dt)
fix nvt all nvt temp 340 ${TEMP} $(100*dt)
fix nvt all nvt temp 340 340 $(100*dt)
fix nvt all nvt temp 340 340 0.2000000000000000111
run 5000
Neighbor list info ...
  update: every = 1 steps, delay = 0 steps, check = yes
  max neighbors/atom: 2000, page size: 100000
  master list distance cutoff = 8
  ghost atom cutoff = 8
  binsize = 8, bins = 3 3 4
  1 neighbor lists, perpetual/occasional/extra = 1 0 0
  (1) pair allegro/kk, perpetual
      attributes: full, newton on, kokkos_device
      pair build: full/bin/kk/device
      stencil: full/bin/3d
      bin: kk/device
Per MPI rank memory allocation (min/avg/max) = 3.516 | 3.516 | 3.516 Mbytes
    PotEng          Fmax          Fnorm          S/CPU         CPULeft    
-807708.29      1.5954268      37.041818      0              0            
-807645.15      3.3669286      45.385738      2.1344538      2337.8356    
-807633.64      2.6265854      35.919614      25.857889      1262.8709    
-807606.11      3.0926036      38.096028      25.863858      904.27665    
-807602.45      4.3561567      50.490644      25.838407      724.83346    
-807565.1       3.6273083      41.29013       25.763651      617.12391    
-807600.05      2.6679071      39.791339      25.860485      545.0685     
-807642.52      3.388374       34.723092      25.856726      493.49384    
-807682.55      2.4272015      34.89473       25.825735      454.74471    
-807665.97      3.0476142      35.497289      25.827496      424.51897    
-807650.47      4.0634427      35.713747      25.894182      400.2121     
-807658.25      3.0868476      28.852947      25.879911      380.26391    
-807627.42      3.9994408      32.101721      25.836602      363.60236    
-807584.64      3.4290332      41.035581      25.840687      349.44229    
-807565.18      3.359622       39.241273      25.901714      337.21815    
-807628.12      3.4197135      35.058416      25.838043      326.60318    
-807650.61      3.1602844      32.139165      25.851016      317.26083    
-807663.7       2.8405381      34.792997      25.875552      308.96164    
-807643.08      4.6299394      46.732816      25.890211      301.5358     
-807677.34      2.7306092      37.644713      25.860901      294.86204    
-807640.4       4.0120945      41.353117      25.828409      288.82866    
-807617.41      3.1014715      39.484817      25.882527      283.31456    
-807558.85      4.6184874      47.64152       25.898139      278.26155    
-807600.61      4.5574613      50.48146       25.855227      273.62765    
-807608.67      4.8727583      40.711715      25.800024      269.36408    
-807639.23      3.6858355      36.657719      25.893994      265.38387    
-807639.12      5.497503       47.035221      25.888666      261.68157    
-807679.13      2.8661879      38.554708      25.847904      258.23558    
-807661.79      3.9489753      35.846672      25.788649      255.02308    
-807638.3       3.035223       33.24715       25.876086      251.98411    
-807606.07      3.683741       35.15686       25.894922      249.11756    
-807601.55      4.3296052      42.594796      25.852067      246.42073    
-807592.8       3.7717934      39.029292      25.767073      243.88693    
-807603.44      4.6670124      34.997846      25.86876       241.46159    
-807637.77      3.6991894      32.236203      25.882311      239.1534     
-807669.22      3.0358283      33.168598      25.869166      236.95764    
-807674.78      2.5131355      34.400748      25.786076      234.87844    
-807642.57      5.4758804      40.582305      25.852496      232.8782     
-807645.05      3.3399818      33.732883      25.890483      230.95599    
-807619.67      5.2789036      36.057465      25.877643      229.11479    
-807598.83      4.3780802      45.519107      25.794674      227.36063    
-807563.95      5.4816466      44.894095      25.881343      225.65861    
-807613.93      3.7219978      39.513195      25.874435      224.02035    
-807641.68      5.4764605      38.87354       25.843075      222.4453     
-807670.67      3.2348614      37.008533      25.837927      220.92505    
-807639.07      5.1353883      48.440072      25.887365      219.4477     
-807662.23      2.9321946      37.367486      25.87705       218.0193     
-807644.82      4.0823933      37.748713      25.86241       216.63735    
-807625.36      3.4351527      38.550651      25.880979      215.29426    
-807565.15      4.0807347      43.530459      25.897643      213.98793    
-807591.82      3.8581682      44.939449      25.906185      212.71726    
-807616.57      4.7790921      37.019123      25.841513      211.48979    
-807650.56      2.8284962      34.269119      25.84497       210.29419    
-807638.7       5.6704282      42.028111      25.867765      209.12624    
-807666.74      3.3362042      36.092019      25.867643      207.98724    
-807665         3.8022703      35.370711      25.808656      206.88276    
-807642.82      4.211342       32.966576      25.825219      205.80191    
-807600.91      4.190345       36.16508       25.885873      204.73835    
-807591.92      3.7090538      39.098297      25.907793      203.69565    
-807599         4.0720102      42.002249      25.813411      202.68576    
-807615.7       4.9252944      34.030721      25.843062      201.69336    
-807631.21      3.8944824      34.439438      25.843458      200.72077    
-807656.74      4.5069966      35.632737      25.866363      199.76465    
-807673.15      3.1366352      37.129095      25.798598      198.83365    
-807647.68      4.2941182      38.853881      25.824557      197.91698    
-807632.25      3.341515       35.11193       25.882415      197.01081    
-807611.64      4.4994088      37.714217      25.881025      196.12052    
-807603.34      3.9346262      45.684388      25.837251      195.24951    
-807578.11      3.7387113      42.182702      25.847293      194.39178    
-807607.34      3.2298199      38.283864      25.890282      193.54368    
-807639.07      5.4431543      38.062488      25.889861      192.70882    
-807669.19      3.5762625      37.776759      25.850737      191.89012    
-807649.98      4.5958382      41.50145       25.837988      191.08456    
-807649.76      3.4336084      37.177258      25.887562      190.28612    
-807640.51      4.0133206      35.842427      25.851806      189.50191    
-807626.76      3.3785513      37.700866      25.8632        188.72732    
-807581.79      3.7928508      39.629795      25.839335      187.96494    
-807584.35      3.2139405      41.275335      25.852161      187.21125    
-807621.29      3.2384639      34.080394      25.788445      186.47214    
-807653.57      3.1089719      33.140114      25.785756      185.74213    
-807650.26      3.6440206      36.535181      25.810689      185.01872    
-807652.22      3.4483075      37.626552      25.730964      184.30982    
-807662.06      3.6110933      34.291982      25.811829      183.60251    
-807646.12      3.1108914      32.380212      25.835018      182.90117    
-807607.64      2.9621777      35.673497      25.886762      182.20347    
-807584.09      3.8097322      39.634864      25.90732       181.51162    
-807602.42      3.4996097      40.965087      25.778504      180.83616    
-807624.42      3.2124605      34.920678      25.79863       180.16586    
-807637.11      3.4733222      34.536098      25.834309      179.49949    
-807646.82      4.1148861      37.937682      25.877611      178.83641    
-807667.44      2.8187074      35.958343      25.826583      178.18295    
-807652.94      3.5375864      36.142647      25.832371      177.53495    
-807632.02      2.8241684      34.007416      25.857035      176.89099    
-807603.97      4.1598674      37.349716      25.87769       176.2512     
-807604.28      4.0939954      42.742727      25.852259      175.61845    
-807594.82      4.0510788      39.327583      25.766786      174.99635    
-807613.09      3.9398734      36.630964      25.852142      174.37373    
-807632.38      4.0549111      37.226769      25.865433      173.75514    
-807663.79      2.8786816      36.351815      25.805828      173.14496    
-807656.29      3.6469935      37.065929      25.791297      172.54015    
-807645.12      2.8273042      35.851918      25.857058      171.93575    
-807630.39      4.4787959      35.684511      25.853813      171.33584    
-807622.42      3.2520758      37.717016      25.815929      170.74233    
-807593.29      3.7169063      39.052251      25.800885      170.15369    
-807587.08      3.2005702      40.80937       25.864891      169.56527    
-807615.82      3.383572       35.653835      25.870069      168.9804     
-807649.81      3.1990953      34.916613      25.848852      168.40045    
-807654.64      4.1546053      36.556462      25.812201      167.82613    
-807648.59      4.2293046      38.11564       25.789193      167.25652    
-807649.4       4.624999       36.785425      25.824753      166.68833    
-807640.9       3.7711122      34.573242      25.820529      166.12366    
-807611.17      3.857619       37.257597      25.789536      165.56382    
-807582.35      3.7097228      40.059345      25.813039      165.00582    
-807596.33      4.1575628      40.205557      25.805865      164.45122    
-807626.39      4.0493254      35.573112      25.674513      163.90625    
-807646.27      4.22696        34.713121      25.799411      163.35768    
-807642.39      4.6246355      39.496492      25.871177      162.80833    
-807659.44      3.7287885      36.194042      25.861602      162.26223    
-807650.96      4.7819809      36.770677      25.800257      161.7218     
-807635.68      3.4637773      34.01644       25.778667      161.18499    
-807595.35      4.6178108      39.057596      25.836393      160.64791    
-807596.25      4.1031437      41.21227       25.85689       160.11235    
-807600.95      4.9312712      38.986402      25.799941      159.58187    
-807624.86      3.3212494      34.796249      25.797143      159.05385    
-807631.4       4.2883624      38.107323      25.880651      158.5243     
-807657.4       3.1160525      35.930392      25.875417      157.99727    
-807656.96      4.4130617      37.488727      25.790475      157.47625    
-807647.68      3.1625091      35.035343      25.770199      156.95823    
-807622.6       3.621836       35.954086      25.842884      156.43906    
-807614.3       3.1225411      36.540955      25.853215      155.9215     
-807596.5       3.7887168      40.620987      25.789634      155.40867    
-807598.78      3.3954112      38.488323      25.77051       154.89856    
-807614.2       4.5056573      36.208154      25.8637        154.3864     
-807647.47      3.2853686      34.411267      25.851624      153.87662    
-807655.8       3.0726849      36.58376       25.814961      153.37018    
-807649.76      4.0076461      36.962068      25.795316      152.8663     
-807643.6       3.8245486      34.941763      25.834687      152.36255    
-807634.7       2.8141157      33.263314      25.806088      151.86164    
-807613.35      3.2920244      37.290666      25.86262       151.36015    
-807588.38      3.2913202      39.319704      25.810042      150.86236    
-807599.6       3.3709013      38.308824      25.861551      150.36416    
-807625.22      4.2085738      35.270854      25.853099      149.86787    
-807649.71      3.7840542      34.663358      25.77411       149.3761     
-807647.44      4.1540781      37.501936      25.78576       148.88535    
-807651.66      3.6130835      36.054369      25.799741      148.39551    
-807646.68      3.1962602      35.202959      25.793346      147.90732    
-807634.84      2.649553       34.047093      25.789132      147.42065    
-807600.7       3.8711697      37.280214      25.873734      146.93229    
-807593.47      3.4855058      39.585699      25.901682      146.44431    
-807606.73      3.9173114      37.15931       25.859902      145.95917    
-807631.94      3.165451       34.975704      25.822335      145.47665    
-807639.15      3.8342677      36.692683      25.879898      144.99341    
-807651         3.0780328      36.123663      25.895007      144.51092    
-807655.54      3.7249749      35.848386      25.837843      144.03163    
-807647.68      3.2196985      34.917941      25.738897      143.55688    
-807622.31      4.2207296      34.929984      25.859262      143.07922    
-807606.13      3.1979918      36.692764      25.877695      142.60211    
-807599.24      3.9408027      39.593412      25.81754       142.12813    
-807609.62      3.7136892      37.933448      25.814775      141.65534    
-807624.07      3.6169403      35.483889      25.84287       141.18271    
-807642.79      3.1254078      34.632038      25.849486      140.71095    
-807656.24      3.418012       35.554067      25.783109      140.24234    
-807652.26      3.5237989      36.158373      25.796803      139.77429    
-807641.3       3.4586626      34.437677      25.827632      139.30628    
-807623.24      3.1617179      35.627614      25.827585      138.83925    
-807611.7       3.7287106      37.459404      25.800722      138.37401    
-807596.67      3.4619743      39.25254       25.777636      137.91041    
-807603.9       3.549139       38.279513      25.831737      137.44609    
-807625.28      3.3756148      35.86241       25.868854      136.98159    
-807649.65      2.8028238      35.10415       25.819723      136.51945    
-807649.51      4.0121384      37.276822      25.812536      136.0584     
-807648.01      3.9720639      36.193215      25.84239       135.59736    
-807638.25      3.9000842      35.551376      25.845585      135.13708    
-807629.46      3.2827917      35.32957       25.787664      134.6793     
-807601.75      3.9490642      38.491689      25.867919      134.22006    
-807591.91      3.7148103      40.921787      25.850947      133.76213    
-807607.71      3.456727       38.257983      25.820976      133.30583    
-807634.86      3.3205393      35.507646      25.787864      132.85122    
-807642.3       4.4981775      37.195445      25.856208      132.39551    
-807646.77      3.7341332      38.356072      25.847834      131.94079    
-807648.5       3.4637992      37.272408      25.84719       131.48684    
-807642.07      3.4883196      36.215701      25.844004      131.03372    
-807619.43      3.2069876      36.268034      25.85077       130.58114    
-807598.58      3.0203126      38.370512      25.830301      130.12982    
-807598.11      3.6469975      39.595025      25.810964      129.67969    
-807615.82      3.8475965      36.409758      25.804558      129.23041    
-807628.95      3.4395001      35.268803      25.798625      128.78193    
-807641.46      3.6486076      35.466464      25.831723      128.33328    
-807651.39      3.5549774      35.739919      25.814351      127.88572    
-807649.88      3.3316832      36.142104      25.798821      127.43917    
-807633.68      3.0615123      36.045747      25.83224       126.99243    
-807616.16      3.3189304      36.556905      25.846798      126.54596    
-807606         3.4703559      38.46055       25.817735      126.10081    
-807602.45      3.3087762      39.332478      25.799272      125.6567     
-807610.99      3.0270622      37.609349      25.844867      125.21209    
-807627.28      3.7642206      36.216472      25.86291       124.76765    
-807646.01      3.3520966      36.254571      25.820431      124.32479    
-807650.8       3.0570917      36.654332      25.810135      123.88273    
-807643.14      3.4545546      36.437116      25.83052       123.44075    
-807631.07      3.6348885      35.685401      25.820417      122.99956    
-807621.58      3.3251762      36.389382      25.834123      122.5586     
-807605.68      2.9466188      38.422542      25.829952      122.11826    
-807600.05      3.4999588      38.985499      25.797073      121.67918    
-807613.67      3.7028047      36.263821      25.805549      121.24042    
-807636.57      3.8409047      34.835988      25.820394      120.80184    
-807644.87      3.4974463      35.982984      25.813877      120.3639     
-807647.29      3.6015318      36.252043      25.82268       119.92627    
-807641.16      3.2703114      36.352422      25.839065      119.48877    
-807637.79      3.377499       34.57684       25.807507      119.05242    
-807618.41      3.3141825      35.987672      25.834412      118.61598    
-807602.46      3.8443584      38.384931      25.827059      118.18016    
-807602.87      3.3349078      38.41183       25.83093       117.74472    
-807621.45      3.1041845      36.758891      25.816805      117.31002    
-807635.95      3.816679       34.879104      25.825664      116.87559    
-807643.31      2.7816766      35.387924      25.850362      116.44111    
-807647.17      3.2494578      35.953101      25.837376      116.00733    
-807647.07      3.0669891      34.64449       25.854811      115.57364    
-807633.08      3.4034404      34.440745      25.853784      115.1404     
-807615.47      3.248901       35.887745      25.885834      114.70697    
-807603.46      4.0892652      38.343869      25.859219      114.27447    
-807610.12      3.9178835      37.189966      25.847856      113.84261    
-807620.73      4.0222427      36.319916      25.868983      113.41076    
-807633.71      3.0753238      35.172992      25.841656      112.97983    
-807644.62      4.732695       35.395025      25.872751      112.54872    
-807650.44      3.0701449      35.185711      25.846895      112.11847    
-807643.15      3.7054607      35.101248      25.834271      111.68885    
-807627.11      2.9451287      35.512762      25.809799      111.26005    
-807616.63      3.4560818      35.686471      25.789098      110.83198    
-807608.59      3.1464234      37.290178      25.73352       110.40527    
-807606.85      3.0346021      37.572896      25.749514      109.97861    
-807620.04      2.9213848      34.478285      25.78842       109.55159    
-807637.07      2.9286604      34.296612      25.839031      109.12402    
-807646.07      2.7379528      35.276526      25.824346      108.69707    
-807646.99      3.9337386      35.641803      25.83442       108.27027    
-807637.91      3.9384163      36.200697      25.812446      107.84419    
-807629.45      4.5764697      35.349007      25.850008      107.41781    
-807615.32      3.9843228      36.829431      25.818446      106.99229    
-807604.9       3.2203614      38.748105      25.807282      106.56728    
-807604.67      3.7295774      37.624145      25.83525       106.14212    
-807622.85      3.4913789      36.123553      25.867637      105.71675    
-807636.06      3.6004819      36.659197      25.820681      105.29247    
-807644.73      3.2949762      36.340507      25.813238      104.86861    
-807640.69      4.1926333      37.37125       25.817115      104.445      
-807639.34      3.3012338      35.865131      25.819056      104.02165    
-807627.67      4.0008329      36.735018      25.804822      103.59882    
-807613.43      3.3071133      37.861521      25.818651      103.17606    
-807601.43      3.3125793      38.540764      25.79492       102.75396    
-807612.17      2.9736213      37.35843       25.832341      102.33156    
-807623.54      3.7769534      35.839217      25.823685      101.90958    
-807636.47      3.1712101      35.767206      25.830006      101.48778    
-807641.28      3.538165       36.71577       25.801106      101.06669    
-807646.07      2.9701894      35.72687       25.796695      100.64594    
-807636.68      3.3236529      36.023952      25.8209        100.22509    
-807626.32      3.5758232      35.203335      25.834238      99.80431     
-807609.33      3.4429823      37.643734      25.807892      99.384179    
-807606.42      3.3679525      37.684869      25.816105      98.964185    
-807611.11      3.3311336      37.788059      25.80404       98.544619    
-807623.26      2.8433778      35.937717      25.78881       98.125518    
-807635.35      4.3526073      36.090561      25.778215      97.706811    
-807645.89      2.8987647      35.114712      25.790761      97.288165    
-807644.61      3.4252584      36.888711      25.796342      96.869679    
-807635.1       3.2817186      36.029188      25.801199      96.451363    
-807624.34      3.0590583      36.304132      25.806557      96.033209    
-807611.66      3.6219677      37.058022      25.852019      95.614673    
-807607.84      3.5417107      38.16048       25.837683      95.19657     
-807609.87      4.2099269      37.97416       25.853597      94.77849     
-807626.15      4.0189772      35.839198      25.796951      94.361393    
-807638.24      3.5456316      35.93255       25.845402      93.943882    
-807645.92      3.3648769      35.788007      25.822241      93.526899    
-807642.13      4.4710813      35.870318      25.829876      93.110039    
-807635.71      3.2729721      35.392876      25.860106      92.693014    
-807624.73      3.6656224      35.009299      25.852108      92.276314    
-807614.34      3.6569512      36.711334      25.784343      91.860685    
-807605.39      3.1405457      36.728072      25.774693      91.445381    
-807615.72      3.5572802      35.99791       25.825781      91.029644    
-807627.54      2.95694        35.355494      25.890786      90.613318    
-807642.4       2.8090925      34.15295       25.956473      90.196417    
-807643.29      3.3266057      34.993887      26.064706      89.778457    
-807642.17      3.1120942      35.644566      26.072945      89.360647    
-807636.06      3.0357147      34.972424      26.056083      88.943279    
-807625.59      2.9130825      35.449554      26.105209      88.525584    
-807608.71      3.2289119      37.480996      26.085044      88.108365    
-807608.03      3.6492593      38.224834      25.995257      87.692411    
-807618.53      4.0186499      36.7926        25.961494      87.277061    
-807630.46      3.5357292      36.252332      25.915135      86.862447    
-807638.1       3.0330618      36.102934      25.939591      86.447761    
-807643.97      4.0293273      36.419084      25.938304      86.033293    
-807642.77      2.7018844      35.264067      25.974945      85.618623    
-807633.6       3.5046108      35.018714      25.924074      85.204715    
-807620.52      3.4579931      35.812515      25.982138      84.790373    
-807609.42      3.2748211      36.560334      25.938994      84.376698    
-807610.32      2.9135522      36.568388      25.907361      83.963554    
-807620.38      3.6821038      35.43665       25.882179      83.550864    
-807630.56      3.121392       35.102109      25.907956      83.138081    
-807637.59      3.9221011      36.288163      25.915736      82.7254      
-807643.64      3.2765025      35.968082      25.893624      82.31313     
-807638.21      3.6107527      36.466542      25.902716      81.900942    
-807630.4       3.7038086      35.845461      25.916894      81.488786    
-807614.1       3.6579424      37.597469      25.919751      81.076778    
-807611.86      3.8073657      38.974922      25.894392      80.665199    
-807608.51      5.1681008      38.746522      25.911749      80.253617    
-807618.28      3.6955463      38.123698      25.910005      79.842223    
-807628.38      3.2611301      37.069033      25.93168       79.430785    
-807641.52      3.5260323      36.692889      25.876777      79.02005     
-807641.89      4.2132764      36.895415      25.935019      78.608915    
-807637.5       3.4764452      35.998247      25.986349      78.197461    
-807626.73      4.8385605      36.158462      25.972769      77.786308    
-807620.25      3.9987324      36.041997      25.995507      77.375114    
-807605.29      4.6175071      38.529292      25.973626      76.964294    
-807609.35      4.1227191      38.934118      25.937744      76.553971    
-807621.12      3.3551352      37.089717      25.963142      76.143576    
-807634.26      3.5684304      36.246665      25.984529      75.733151    
-807640.3       4.8960491      36.402967      26.001564      75.322738    
-807640.6       3.6404092      37.158967      26.013648      74.912383    
-807639.27      3.3635189      35.961986      25.996422      74.502344    
-807627.64      3.4744546      35.648752      25.950823      74.092863    
-807615.66      3.8323572      37.548672      25.936932      73.683655    
-807606.27      3.9793572      38.555829      25.905969      73.274863    
-807614.19      3.2591664      36.810342      25.92176       72.866079    
-807623.74      5.283415       36.66873       25.897117      72.457648    
-807633.73      3.7791937      35.267886      25.892767      72.049392    
-807640.11      3.8650481      35.342946      25.895623      71.64125     
-807643.46      3.1474297      34.915944      25.934536      71.232925    
-807637.78      4.1442424      34.739463      25.980375      70.824367    
-807626.94      3.7038693      34.86992       25.90341       70.416576    
-807614.73      3.7913348      35.453178      25.958369      70.00848     
-807611.69      3.2111978      37.138651      25.938618      69.60068     
-807614.27      3.5710259      36.232342      25.983345      69.192665    
-807623.83      3.8577347      35.861436      25.955179      68.78501     
-807634.17      3.4754597      36.016775      25.96852       68.377389    
-807643.13      3.3620952      35.914342      25.942392      67.970104    
-807642.16      5.0687814      35.777812      25.91764       67.563138    
-807634.99      3.6660526      35.279319      25.921018      67.156275    
-807624.51      4.9220001      35.786589      25.918555      66.749556    
-807616.77      3.9330642      36.361713      25.983524      66.342483    
-807610.52      3.4890559      36.363018      25.931337      65.935925    
-807613.79      3.4755296      36.560285      25.953104      65.529333    
-807626.64      3.566089       35.524123      26.031979      65.122302    
-807637.63      2.9882615      35.421047      25.991741      64.715692    
-807641.18      2.7818236      35.972106      25.999694      64.309155    
-807640.9       3.9875187      36.502653      26.012116      63.902661    
-807634.62      3.7588041      35.956724      26.021108      63.496234    
-807623.04      3.4621974      36.2698        26.070372      63.089601    
-807612.94      3.2631338      36.722859      26.073776      62.683079    
-807611.23      3.279357       36.016981      26.043244      62.276896    
-807614.4       2.9056635      36.423195      25.92466       61.87163     
-807629.11      3.0262043      35.162237      25.917429      61.466524    
-807636.5       3.1403706      35.991796      25.931666      61.061437    
-807640.42      3.2434857      35.983975      25.92489       60.656505    
-807640.17      3.0912757      35.833476      25.935607      60.251614    
-807633.27      3.2096968      36.379095      25.925186      59.8469      
-807621.45      3.8721722      37.115652      25.912528      59.442375    
-807608.75      3.9562597      38.360951      25.91856       59.037917    
-807608.57      4.0328481      38.113954      25.830053      58.634115    
-807616.13      4.0368725      37.103079      25.916266      58.229877    
-807627.66      3.7056998      36.094976      25.934573      57.82563     
-807634.62      4.9562008      36.559562      25.910192      57.421635    
-807640.62      4.0904832      36.856454      25.867123      57.017999    
-807638.08      3.45243        36.608783      25.913587      56.614183    
-807629.79      3.1371443      36.792475      25.908111      56.210499    
-807619.22      3.0762155      37.015609      25.933765      55.806765    
-807609.19      3.1395612      38.431267      25.919545      55.403212    
-807608.38      3.3916345      38.176919      25.924271      54.999731    
-807617.28      3.7673158      38.359305      25.929496      54.596319    
-807624.74      3.6733446      37.820714      25.973122      54.192761    
-807634.57      3.7349967      37.383259      25.949412      53.789436    
-807638.24      3.1242891      37.141212      25.910099      53.386423    
-807637.15      4.0246532      37.250046      25.941452      52.983333    
-807627.97      3.5959532      36.775654      25.955089      52.580267    
-807621.5       3.1371752      36.664953      26.035719      52.176874    
-807612.61      4.1984624      37.498587      25.941259      51.774076    
-807610.57      3.8854523      37.917172      25.969433      51.371226    
-807616.36      3.9564719      36.893718      25.951665      50.968563    
-807628.61      3.1349406      35.942609      25.966631      50.565917    
-807633.99      3.4657404      37.008088      25.912696      50.163634    
-807638.86      3.992738       37.500982      25.889635      49.761554    
-807633.85      4.8573991      37.870361      25.94337       49.359293    
-807632.35      3.3868687      35.835843      25.950823      48.957087    
-807619.23      4.3946457      37.393033      25.914448      48.555143    
-807611.1       4.1395851      38.581191      25.937792      48.153174    
-807611.57      4.8643804      38.113197      25.927704      47.751338    
-807619.64      3.4835563      37.427377      25.924146      47.349604    
-807630.7       5.1131404      35.75835       25.92104       46.947968    
-807636.56      3.530531       36.763715      25.920186      46.546418    
-807640.15      5.0316018      36.212241      25.891573      46.145079    
-807637.68      3.8523789      36.262296      25.938685      45.74361     
-807628.44      3.2372169      36.438783      25.924052      45.342287    
-807618.06      4.5102091      36.468664      25.910828      44.941102    
-807612.04      3.2994515      37.858109      25.92425       44.539938    
-807613.66      3.2237588      37.77903       25.918088      44.138879    
-807622.38      3.0455257      36.653099      25.954275      43.737747    
-807630.21      3.7027049      36.631119      25.927934      43.336805    
-807639.65      3.7525041      35.88645       25.937003      42.935904    
-807639.97      3.8595486      37.11108       25.961766      42.53498     
-807637.05      3.4588512      36.393334      25.948648      42.134189    
-807626.96      3.4478514      36.380593      25.967552      41.733401    
-807619.58      3.162351       37.071323      26.016755      41.332502    
-807612.55      3.0423143      37.74607       25.993711      40.931774    
-807614.49      3.0457632      37.309984      26.007115      40.531076    
-807622.32      2.9857157      36.079868      25.940096      40.13071     
-807633.65      3.8249187      36.782862      25.924099      39.730478    
-807636.96      3.8553222      36.709638      25.92325       39.330322    
-807640.35      3.8314561      36.220886      25.892048      38.93035     
-807634.64      3.3614017      36.337057      25.959736      38.530205    
-807629.73      3.4104215      35.430135      25.932532      38.130229    
-807617.17      3.4314876      36.084647      25.879861      37.730508    
-807614.1       3.0654759      36.233758      25.976192      37.330522    
-807615.63      3.3656134      35.449196      25.918337      36.930805    
-807625.41      3.1262662      35.088631      25.92563       36.531132    
-807630.94      3.2958686      36.006141      25.910856      36.131576    
-807638.28      3.7710813      36.092483      25.932208      35.732017    
-807638.42      2.9823276      36.45987       25.915095      35.332581    
-807634.93      3.6715878      36.671807      25.946729      34.93311     
-807624.67      3.7333061      36.934754      25.950896      34.533694    
-807616.88      2.9058637      36.893429      25.959416      34.13432     
-807610.96      3.3449361      38.322606      25.950896      33.73504     
-807613.55      4.0455552      38.12792       25.941262      33.335856    
-807624.13      4.2468357      36.906335      25.978492      32.936628    
-807630.68      3.2650577      36.589414      25.925099      32.537623    
-807638.6       3.0025845      36.108332      25.957835      32.138588    
-807637.76      4.0841399      36.846236      25.886014      31.739822    
-807633.5       3.06075        35.571181      25.902062      31.341071    
-807620.82      4.4986641      37.028387      25.933176      30.942294    
-807614.62      3.5775788      36.751144      25.966525      30.543489    
-807611.04      3.0463573      37.128965      26.019081      30.144609    
-807616.55      2.9691499      36.783617      26.005807      29.745833    
-807623.01      3.8514188      36.672452      25.989455      29.347165    
-807634.74      3.7977277      36.044072      25.942526      28.948681    
-807638.9       3.994038       36.431244      25.923226      28.550307    
-807636.47      3.6884612      37.312883      25.883801      28.152088    
-807629.22      3.3146677      37.194102      25.820586      27.754079    
-807621.68      3.4219817      37.613646      25.891828      27.355949    
-807614.35      3.2797866      37.53275       25.917764      26.957813    
-807612.76      3.3735416      37.779584      25.958216      26.559641    
-807615.62      3.806734       37.507791      25.910898      26.161635    
-807625.45      3.7145373      36.867719      25.938292      25.763624    
-807633.7       3.3126642      36.274987      25.998134      25.365541    
-807636.89      5.0142229      36.963593      26.025802      24.967459    
-807635.15      3.003227       35.668879      25.942907      24.569615    
-807631.12      3.4832096      35.846257      25.938522      24.171836    
-807623.75      3.9991793      35.997862      25.943579      23.774103    
-807615.87      3.9304168      36.658506      26.031224      23.376251    
-807612.66      3.0783235      36.692842      25.95816       22.978604    
-807620.42      3.1442447      36.200421      25.958574      22.581012    
-807628.03      3.2539568      35.327401      25.918116      22.183551    
-807631.11      3.2487759      36.146102      25.868476      21.786234    
-807637.2       2.7578313      35.707477      25.913233      21.388885    
-807635.95      3.3233758      36.181792      25.872085      20.991659    
-807630.67      2.7776142      35.621011      25.91746       20.594403    
-807620.66      3.8660564      36.121767      25.94451       20.197152    
-807618.37      2.9131794      36.744308      25.933298      19.799971    
-807617.3       3.9397397      36.152331      25.969412      19.402784    
-807619.64      3.2079443      36.380896      25.956381      19.005671    
-807627.19      3.0960002      35.403757      25.932678      18.608647    
-807635.32      2.9374873      34.540242      25.912309      18.211704    
-807635.28      3.0926853      35.672686      25.897246      17.814832    
-807634.44      3.5479899      35.652994      25.966087      17.417908    
-807628.13      3.3888262      35.410547      26.017261      17.020964    
-807623.53      3.5267912      35.856428      26.014751      16.624079    
-807617.61      3.3228375      36.223632      25.994122      16.227275    
-807617.2       4.2086014      37.140269      26.000834      15.830515    
-807620.6       3.2038909      35.955063      25.933627      15.433893    
-807629.25      3.7983239      35.757041      25.914973      15.03734     
-807634.3       3.6931971      35.611892      25.922602      14.640825    
-807637.29      3.7104219      35.153995      25.919927      14.24436     
-807632.43      3.2176808      35.948949      25.921865      13.847938    
-807630.14      3.4139406      35.147228      25.939199      13.451543    
-807622.28      3.1991188      35.975381      25.918923      13.055216    
-807617.72      2.7625926      35.905007      25.891172      12.658962    
-807614.04      2.9498849      37.093053      25.885167      12.262756    
-807623.59      2.9808453      36.436625      25.907326      11.866572    
-807629.53      3.3044204      35.781211      25.864299      11.47047     
-807633.58      3.6725534      35.879625      25.915921      11.074363    
-807636.19      3.2881646      35.347719      25.930856      10.678287    
-807634.13      3.703272       36.645196      25.99617       10.282201    
-807627.15      3.4212244      36.516253      26.057873      9.8861156    
-807621.14      3.155021       36.061517      26.057214      9.4900824    
-807616.84      3.0383695      35.893725      25.938945      9.0941849    
-807619.37      4.3023814      36.22888       25.941685      8.698329     
-807623.31      3.2644666      35.80163       25.977158      8.3024934    
-807628.26      3.7566912      35.267456      25.973148      7.9067056    
-807635.28      3.0116905      35.013011      26.011103      7.5109404    
-807636.1       3.3696903      35.993692      25.989979      7.1152338    
-807632.74      3.8013556      35.693251      25.996085      6.7195693    
-807626.46      3.6455423      35.231424      26.011589      6.3239427    
-807621.28      3.5676857      36.201624      25.984182      5.9283747    
-807617.73      3.6171028      36.506574      25.927555      5.5328751    
-807617.62      2.9198666      36.823781      25.966167      5.1374004    
-807621.3       3.1820915      36.434363      25.968536      4.7419673    
-807629.7       3.2076616      36.085108      26.014184      4.3465614    
-807634.79      3.3290067      35.619504      25.995325      3.951206     
-807634.7       4.1222693      36.054377      25.966318      3.555902     
-807630.51      3.4744063      36.562898      25.963366      3.1606401    
-807626.32      3.5130924      35.77998       25.992673      2.765413     
-807620.28      3.0077202      36.366364      25.950646      2.3702361    
-807615.93      3.5250413      36.968473      25.922166      1.9751031    
-807617.81      3.0086516      35.810399      25.901598      1.5800104    
-807623.26      3.7206531      36.853259      25.924386      1.1849518    
-807631.39      3.2293982      35.620809      25.935675      0.78993008   
-807630.75      3.8859942      37.212985      25.942907      0.394946     
-807632.57      3.4216985      36.038795      25.911967      0            
Loop time of 197.464 on 32 procs for 5000 steps with 1080 atoms

Performance: 4.375 ns/day, 5.485 hours/ns, 25.321 timesteps/s, 27.347 katom-step/s
67.1% CPU use with 32 MPI tasks x 1 OpenMP threads

MPI task timing breakdown:
Section |  min time  |  avg time  |  max time  |%varavg| %total
---------------------------------------------------------------
Pair    | 101.98     | 144.97     | 193.1      | 309.7 | 73.42
Neigh   | 0          | 0          | 0          |   0.0 |  0.00
Comm    | 1.9998     | 50.133     | 93.121     | 526.7 | 25.39
Output  | 0.028086   | 0.03271    | 0.034535   |   0.5 |  0.02
Modify  | 1.9756     | 2          | 2.0207     |   1.0 |  1.01
Other   |            | 0.3239     |            |       |  0.16

Nlocal:          33.75 ave          48 max          21 min
Histogram: 8 8 0 0 0 0 0 8 0 8
Nghost:        1106.25 ave        1119 max        1092 min
Histogram: 8 0 8 0 0 0 0 0 8 8
Neighs:              0 ave           0 max           0 min
Histogram: 32 0 0 0 0 0 0 0 0 0
FullNghs:       5494.5 ave        7896 max        3378 min
Histogram: 8 8 0 0 0 0 0 8 0 8

Total # of neighbors = 175824
Ave neighs/atom = 162.8
Neighbor list builds = 0
Dangerous builds = 0

reset_timestep 0


variable interval equal 1000
thermo 10

variable nintervals equal $(v_PERIOD/v_interval)
variable nintervals equal 100
variable efield equal 1e-2*36.36*cos((step/${PERIOD})*2*3.14)
variable efield equal 1e-2*36.36*cos((step/100000)*2*3.14)
fix born all addbornforce 0.0 0.0 v_efield

variable Px equal f_born[1]+c_polarization[1]
variable Py equal f_born[2]+c_polarization[2]
variable Pz equal (f_born[3]+c_polarization[3])/vol
variable pe equal pe

fix aveP all ave/time 1 $(v_interval/2) ${interval} v_efield v_Pz v_pe f_born file Pz.${MODEL}.${STRUCTURE}.${TEMP}.$L.${ITER}
fix aveP all ave/time 1 500 ${interval} v_efield v_Pz v_pe f_born file Pz.${MODEL}.${STRUCTURE}.${TEMP}.$L.${ITER}
fix aveP all ave/time 1 500 1000 v_efield v_Pz v_pe f_born file Pz.${MODEL}.${STRUCTURE}.${TEMP}.$L.${ITER}
fix aveP all ave/time 1 500 1000 v_efield v_Pz v_pe f_born file Pz.BaTiO3-E0.${STRUCTURE}.${TEMP}.$L.${ITER}
fix aveP all ave/time 1 500 1000 v_efield v_Pz v_pe f_born file Pz.BaTiO3-E0.BaTiO3-sc333.${TEMP}.$L.${ITER}
fix aveP all ave/time 1 500 1000 v_efield v_Pz v_pe f_born file Pz.BaTiO3-E0.BaTiO3-sc333.340.$L.${ITER}
fix aveP all ave/time 1 500 1000 v_efield v_Pz v_pe f_born file Pz.BaTiO3-E0.BaTiO3-sc333.340.2.${ITER}
fix aveP all ave/time 1 500 1000 v_efield v_Pz v_pe f_born file Pz.BaTiO3-E0.BaTiO3-sc333.340.2.1

thermo_style custom step time temp press pe f_born v_efield v_Pz spcpu cpuremain

# dump 4a all custom 1000 dump.hyst.${MODEL}.${STRUCTURE}.${TEMP}.$L.${ITER}.bin id type xu yu zu fx fy fz
# dump_modify 4a sort id

fix nvt all nvt temp ${TEMP} ${TEMP} $(100*dt)
fix nvt all nvt temp 340 ${TEMP} $(100*dt)
fix nvt all nvt temp 340 340 $(100*dt)
fix nvt all nvt temp 340 340 0.2000000000000000111

run $(v_PERIOD)
run 100000
WARNING: non-constant efield is experimental, strongly distrust scalar/vector output (src/fix_addbornforce.cpp:193)
Per MPI rank memory allocation (min/avg/max) = 3.516 | 3.516 | 3.516 Mbytes
   Step          Time           Temp          Press          PotEng         f_born        v_efield         v_Pz          S/CPU         CPULeft    
         0   0              336.85698      128563.1      -807632.57     -294.77098      0.3636         0.055438103    0              0            
        10   0.02           342.40718      132062.92     -807630.37     -297.79165      0.36359993     0.056006218    29.589963      3379.2053    
        20   0.04           344.17997      135057.01     -807624.67     -303.83018      0.36359971     0.057141929    29.63099       3376.5187    
        30   0.06           343.32576      140753.48     -807617.98     -310.39529      0.36359935     0.0583767      29.61962       3375.8299    
        40   0.08           346.00735      141428.31     -807617.54     -311.25228      0.36359885     0.058537956    29.557619      3377.0864    
        50   0.1            367.81484      139926.97     -807622.14     -309.70028      0.36359821     0.05824617     29.609611      3376.5183    
        60   0.12           344.46657      136079.33     -807624.65     -304.06026      0.36359742     0.057185562    29.62939       3375.6501    
        70   0.14           356.35141      132559.72     -807630.3      -300.10597      0.36359649     0.05644201     29.564277      3375.9954    
        80   0.16           341.90132      128520.12     -807634        -294.58489      0.36359541     0.055403805    29.596085      3375.7154    
        90   0.18           328.11863      130928.53     -807631.79     -294.97543      0.36359419     0.055477441    29.618358      3375.1414    
       100   0.2            338.47769      131599.51     -807629.56     -298.89507      0.36359283     0.056214837    29.612875      3374.676     
       110   0.22           347.30088      137656.66     -807623.09     -306.72922      0.36359132     0.057688488    29.631665      3374.0398    
       120   0.24           336.87616      138540.07     -807619.46     -309.18454      0.36358968     0.058150538    29.661178      3373.1739    
       130   0.26           348.39076      141994.14     -807618.74     -311.61974      0.36358788     0.058608834    29.640302      3372.5717    
       140   0.28           339.8319       138560.07     -807621.93     -307.6512       0.36358595     0.057862746    29.57962       3372.5011    
       150   0.3            342.44994      137185.38     -807624.31     -305.83957      0.36358387     0.057522346    29.630837      3372.0058    
       160   0.32           333.42585      130152.83     -807631.33     -297.92718      0.36358165     0.056034524    29.623523      3371.5826    
       170   0.34           325.9404       130483.61     -807633.27     -295.1483       0.36357928     0.055512231    29.64596       3371.0183    
       180   0.36           328.56483      128446.71     -807633.87     -295.24946      0.36357677     0.05553164     29.673411      3370.3075    
       190   0.38           335.45084      132971.91     -807628.68     -301.65895      0.36357412     0.056737576    29.703174      3369.4583    
       200   0.4            340.53429      135177.31     -807626.15     -305.24657      0.36357132     0.057412794    29.698048      3368.689     
       210   0.42           339.82912      140836.13     -807621.59     -309.83985      0.36356838     0.058277201    29.636529      3368.2932    
       220   0.44           337.18318      139936.5      -807621.09     -310.30836      0.3635653      0.058365817    29.646887      3367.8493    
       230   0.46           328.58491      139570.46     -807620.58     -309.72837      0.36356207     0.058257243    29.621709      3367.539     
       240   0.48           324.19918      133728.52     -807626.86     -302.96535      0.3635587      0.056985706    29.641609      3367.1323    
       250   0.5            335.31621      130885.8      -807633.95     -297.41828      0.36355519     0.055942881    29.613218      3366.86      
       260   0.52           324.66213      128643.31     -807633.42     -296.55221      0.36355153     0.055780538    29.681334      3366.2855    
       270   0.54           318.66405      130345.5      -807630.89     -298.22343      0.36354773     0.056095476    29.649889      3365.8606    
       280   0.56           331.54993      133992.93     -807629.74     -301.1794       0.36354379     0.056652105    29.659827      3365.4016    
       290   0.58           330.71816      137455.06     -807625.45     -305.36965      0.3635397      0.057440939    29.657265      3364.9611    
       300   0.6            337.43983      139631.41     -807621.53     -310.13798      0.36353547     0.058338557    29.597327      3364.7545    
       310   0.62           333.77733      140272.02     -807620.44     -310.6901       0.3635311      0.058443115    29.612208      3364.4847    
       320   0.64           322.06335      138397.65     -807622.52     -306.88148      0.36352658     0.057727404    29.583189      3364.3139    
       330   0.66           348.31147      133186.61     -807631.15     -301.79917      0.36352192     0.056772099    29.592978      3364.0992    
       340   0.68           321.83128      131675.36     -807630.57     -298.56593      0.36351712     0.05616463     29.63004       3363.7534    
       350   0.7            329.93963      130215.64     -807633.34     -296.81817      0.36351217     0.055836611    29.621427      3363.4359    
       360   0.72           319.67381      131270.08     -807631.2      -297.41633      0.36350708     0.055949918    29.679273      3362.9352    
       370   0.74           321.38965      133961.79     -807627.31     -301.45498      0.36350185     0.056710484    29.64898       3362.5361    
       380   0.76           337.9851       138278.91     -807624.1      -306.85846      0.36349647     0.057727855    29.642456      3362.1597    
       390   0.78           328.77872      140124.18     -807619.8      -309.81812      0.36349095     0.058285527    29.589963      3361.9381    
       400   0.8            335.94725      139946.42     -807621.36     -309.02063      0.36348529     0.058136402    29.626643      3361.6066    
       410   0.82           331.82528      136927.24     -807623.88     -305.8335       0.36347948     0.057537724    29.649527      3361.2115    
       420   0.84           335.53999      134559.86     -807628.03     -302.10021      0.36347353     0.056836294    29.635388      3360.8573    
       430   0.86           324.85599      130844.46     -807630.47     -298.02905      0.36346744     0.056071297    29.664497      3360.4271    
       440   0.88           332.40431      129843.67     -807633.2      -296.21757      0.3634612      0.055731442    29.682817      3359.9542    
       450   0.9            323.33732      131651.56     -807630.39     -297.6531       0.36345482     0.056002511    29.655428      3359.5561    
       460   0.92           337.56353      135424.11     -807626.6      -303.30192      0.3634483      0.057066342    29.640977      3359.1963    
       470   0.94           342.45404      137965.9      -807623.25     -307.27734      0.36344163     0.05781538     29.617047      3358.8951    
       480   0.96           339.85775      140356.71     -807620.01     -309.95128      0.36343482     0.058319584    29.622439      3358.5796    
       490   0.98           331.96467      139254.86     -807620.9      -307.90775      0.36342786     0.057936188    29.625816      3358.2555    
       500   1              339.46061      137306.42     -807623.35     -306.40134      0.36342077     0.057653867    29.638645      3357.9018    
       510   1.02           333.95193      133570.72     -807627.38     -9644.9695      0.36341353     0.056714918    29.551555      3357.7425    
       520   1.04           333.77068      130290.85     -807632.4      -9478.7856      0.36340614     0.055738846    29.522685      3357.6398    
       530   1.06           331.31158      130014.51     -807632.45     -9462.8067      0.36339862     0.055646037    29.53403       3357.5037    
       540   1.08           346.68325      131567.89     -807631.38     -9561.9017      0.36339095     0.056229952    29.565841      3357.2931    
       550   1.1            345.86138      135153.34     -807626.94     -9697.135       0.36338313     0.057026434    29.585964      3357.0361    
       560   1.12           336.70496      138083.87     -807622.14     -9806.8846      0.36337518     0.057673107    29.591266      3356.7656    
       570   1.14           341.35762      140301.27     -807620.5      -9878.6424      0.36336707     0.058096401    29.576583      3356.522     
       580   1.16           328.81081      139876.55     -807617.66     -9907.9669      0.36335883     0.058270181    29.578111      3356.2721    
       590   1.18           333.94434      137744.02     -807621.47     -9805.5738      0.36335044     0.057669324    29.581869      3356.0119    
       600   1.2            339.10889      133301.68     -807628.87     -9587.872       0.36334191     0.056390282    29.574494      3355.7632    
       610   1.22           335.68605      131931.38     -807630.7      -9507.3998      0.36333324     0.055918326    29.602259      3355.4598    
       620   1.24           352.31812      129127.22     -807633.11     -9503.2696      0.36332442     0.055895391    29.584039      3355.1887    
       630   1.26           340.03506      133342.9      -807628.01     -9607.9794      0.36331546     0.056512656    29.590269      3354.9042    
       640   1.28           330.78795      135119.91     -807624.87     -9668.2544      0.36330636     0.05686861     29.575551      3354.6442    
       650   1.3            350.81006      138869.07     -807622.17     -9839.2475      0.36329711     0.057875863    29.601531      3354.3364    
       660   1.32           338.01826      138325.36     -807618.55     -9899.0834      0.36328772     0.058229331    29.590728      3354.0463    
       670   1.34           343.73766      140504.65     -807619.29     -9897.2411      0.36327819     0.058220022    29.563844      3353.8002    
       680   1.36           348.11141      135684.12     -807625.81     -9706.5145      0.36326851     0.057099603    29.493794      3353.6688    
       690   1.38           340.34084      134868.17     -807627.34     -9618.935       0.36325869     0.056585937    29.475821      3353.5612    
       700   1.4            332.48487      130748.5      -807629.07     -9530.4094      0.36324873     0.056066699    29.494571      3353.4163    
       710   1.42           344.40049      131645        -807630.35     -9538.1005      0.36323863     0.056113507    29.48826       3353.2761    
       720   1.44           329.04302      131464.25     -807628.4      -9533.2263      0.36322838     0.056086414    29.493897      3353.1215    
       730   1.46           346.85686      137039.35     -807624.18     -9745.6046      0.36321798     0.057337531    29.481678      3352.9809    
       740   1.48           344.93218      138468.68     -807620.82     -9848.1154      0.36320745     0.057942326    29.523173      3352.771     
       750   1.5            353.87167      141017.19     -807620.16     -9904.9092      0.36319677     0.058278191    29.538046      3352.5351    
       760   1.52           339.98479      137826.2      -807623.03     -9754.0414      0.36318595     0.05739223     29.525103      3352.3159    
       770   1.54           355.09766      135041.28     -807626.14     -9721.9905      0.36317498     0.057205371    29.523167      3352.0964    
       780   1.56           331.05094      131636.15     -807627.35     -9580.381       0.36316387     0.056373848    29.55873       3351.822     
       790   1.58           344.65812      131525.87     -807631.54     -9507.6342      0.36315262     0.055947518    29.536315      3351.5783    
       800   1.6            340.58782      130561.78     -807631.04     -9509.0519      0.36314122     0.055957616    29.604604      3351.2353    
       810   1.62           336.66879      134672.74     -807626.95     -9628.8406      0.36312968     0.056664334    29.588765      3350.9146    
       820   1.64           334.88233      137780.69     -807621.81     -9791.8976      0.363118       0.057625754    29.58113       3350.6041    
       830   1.66           343.37096      138951.39     -807621.56     -9844.5109      0.36310618     0.057937273    29.594104      3350.2751    
       840   1.68           337.55069      139443.97     -807620.13     -9870.1129      0.36309421     0.058089861    29.582596      3349.9615    
       850   1.7            332.51294      138484.33     -807621.38     -9815.8136      0.3630821      0.057772213    29.538655      3349.706     
       860   1.72           347.11132      134452.88     -807627.31     -9698.5502      0.36306984     0.057083971    29.556643      3349.4248    
       870   1.74           322.9692       132471.7      -807627.96     -9576.399       0.36305745     0.056366936    29.570151      3349.1246    
       880   1.76           333.50466      131267.31     -807631.98     -9500.9256      0.3630449      0.055924629    29.57064       3348.823     
       890   1.78           330.36023      131360.32     -807630.71     -9535.0087      0.36303222     0.056127211    29.564986      3348.5277    
       900   1.8            338.81978      134420.63     -807627.76     -9672.745       0.36301939     0.056939999    29.620864      3348.1613    
       910   1.82           338.95646      136032.52     -807625.71     -9745.9077      0.36300642     0.057372731    29.600815      3347.8203    
       920   1.84           335.614        140166.65     -807621.66     -9862.6792      0.36299331     0.058062245    29.556423      3347.5341    
       930   1.86           327.3293       138324.78     -807622.61     -9803.4602      0.36298005     0.057715727    29.506393      3347.3078    
       940   1.88           338.34291      137811.78     -807623.87     -9812.6107      0.36296665     0.057771731    29.49386       3347.0944    
       950   1.9            329.43893      133042.24     -807628.69     -9624.2493      0.36295311     0.056664868    29.488564      3346.8846    
       960   1.92           331.57211      132854.22     -807631.6      -9541.2949      0.36293942     0.056178575    29.512907      3346.6433    
       970   1.94           330.77918      128933.31     -807634.01     -9465.3649      0.36292559     0.055733627    29.533751      3346.3756    
       980   1.96           345.12873      133113.27     -807631.91     -9596.0675      0.36291162     0.056505401    29.527276      3346.1139    
       990   1.98           332.07889      133189.99     -807627.81     -9671.5857      0.3628975      0.056952297    29.496139      3345.8865    
      1000   2              326.46543      138894.01     -807623.04     -9796.7303      0.36288325     0.057691492    29.515365      3345.6349    
      1010   2.02           323.95301      137628.53     -807622.21     -306.73034      0.36286884     0.057803559    29.65062       3345.2302    
      1020   2.04           324.38174      140332.19     -807620.05     -308.80802      0.3628543      0.058197431    29.663311      3344.8127    
      1030   2.06           328.37978      136041.5      -807624.83     -304.61324      0.36283961     0.057409214    29.653304      3344.4077    
      1040   2.08           336.30942      133872.36     -807629.11     -301.21105      0.36282478     0.056770338    29.674531      3343.9812    
      1050   2.1            332.92746      130142.04     -807632.88     -296.81172      0.3628098      0.055943489    29.741619      3343.4846    
      1060   2.12           341.6333       130343.97     -807633.03     -297.69567      0.36279469     0.056112435    29.730046      3343.0033    
      1070   2.14           329.2097       132547.05     -807629.54     -299.27799      0.36277943     0.056413059    29.741638      3342.5126    
      1080   2.16           339.51435      135173.61     -807628.35     -301.76337      0.36276402     0.05688396     29.716336      3342.0509    
      1090   2.18           329.32646      137562.46     -807622.71     -305.732        0.36274848     0.057634538    29.651357      3341.6585    
      1100   2.2            328.34857      138407.41     -807620.72     -307.36922      0.36273279     0.057945683    29.648459      3341.2701    
      1110   2.22           339.08134      138249.39     -807622.04     -307.1924       0.36271695     0.057914876    29.619001      3340.9125    
      1120   2.24           353.53259      134602.2      -807628.38     -302.54818      0.36270098     0.057041816    29.591302      3340.5831    
      1130   2.26           337.91565      134564.48     -807628.08     -300.2133       0.36268486     0.056604116    29.658918      3340.1861    
      1140   2.28           339.08282      130336.33     -807631        -297.24368      0.3626686      0.056046718    29.648944      3339.8001    
      1150   2.3            348.76056      132164.39     -807631.15     -298.01897      0.36265219     0.056195446    29.670847      3339.3935    
      1160   2.32           347.42707      131341.75     -807631.25     -297.53893      0.36263564     0.056107488    29.653727      3339.0047    
      1170   2.34           338.45702      137242.7      -807623.64     -303.60755      0.36261895     0.057254495    29.611932      3338.6569    
      1180   2.36           341.32843      137305.01     -807621.89     -305.6867       0.36260212     0.057649259    29.578154      3338.3416    
      1190   2.38           337.39174      140737.13     -807618.8      -307.98963      0.36258514     0.058086286    29.55391       3338.049     
      1200   2.4            346.77723      138117.75     -807622.96     -305.03096      0.36256802     0.057531003    29.60117       3337.7112    
      1210   2.42           342.78867      136699.61     -807623.64     -303.59304      0.36255076     0.057262528    29.634045      3337.3427    
      1220   2.44           349.09093      132848.5      -807628.41     -299.64287      0.36253335     0.056520175    29.630463      3336.978     
      1230   2.46           341.45895      132799.04     -807630.1      -296.76788      0.3625158      0.055980589    29.670663      3336.5771    
      1240   2.48           352.63115      130855.93     -807631.89     -296.5106       0.36249811     0.055934788    29.654882      3336.1915    
      1250   2.5            345.09179      133827.76     -807627.95     -299.38825      0.36248028     0.056480416    29.629286      3335.8296    
      1260   2.52           345.37564      136744.25     -807623.56     -303.82604      0.3624623      0.05732046     29.643732      3335.4553    
      1270   2.54           339.04028      138096.31     -807620.82     -305.76431      0.36244418     0.057689023    29.628538      3335.095     
      1280   2.56           346.13837      139870.65     -807620.79     -306.75106      0.36242592     0.05787811     29.651068      3334.7153    
      1290   2.58           345.76064      137638.05     -807621.73     -305.76352      0.36240751     0.057694711    29.656835      3334.3312    
      1300   2.6            355.99466      136341.92     -807625.09     -303.8526       0.36238896     0.057337072    29.700075      3333.9106    
      1310   2.62           356.48485      132461.71     -807631.52     -297.60151      0.36237027     0.056160387    29.698689      3333.4924    
      1320   2.64           340.95556      132556.05     -807630.6      -296.37104      0.36235143     0.055931091    29.665855      3333.1033    
      1330   2.66           346.26993      130432.36     -807630.77     -297.10116      0.36233245     0.056071817    29.654882      3332.7243    
      1340   2.68           341.6337       135173.88     -807626.21     -301.05176      0.36231333     0.056820411    29.607714      3332.3854    
      1350   2.7            343.27519      136066.29     -807624.6      -303.07205      0.36229407     0.057204762    29.605761      3332.0482    
      1360   2.72           340.01698      139694.85     -807620.65     -306.51616      0.36227466     0.057857936    29.597744      3331.7176    
      1370   2.74           344.01056      137926.02     -807622.39     -305.52643      0.36225511     0.057674227    29.554392      3331.4226    
      1380   2.76           348.64253      138393.91     -807622.43     -306.14157      0.36223542     0.057793488    29.60393       3331.0865    
      1390   2.78           348.19966      134320.15     -807627.73     -300.94822      0.36221558     0.056816197    29.633799      3330.7262    
      1400   2.8            341.2345       133224.2      -807629.69     -298.01751      0.3621956      0.05626601     29.626527      3330.3721    
      1410   2.82           332.43253      130608.54     -807630.35     -296.31918      0.36217548     0.055948472    29.564809      3330.0675    
      1420   2.84           328.36914      133056.72     -807628.42     -297.76154      0.36215522     0.056223953    29.578532      3329.7515    
      1430   2.86           341.34166      133704.48     -807627.8      -300.29679      0.36213481     0.056705859    29.617476      3329.4045    
      1440   2.88           339.76079      136723.29     -807624.92     -303.07118      0.36211426     0.057233003    29.641578      3329.0389    
      1450   2.9            343.36216      138335.09     -807622.12     -306.48158      0.36209357     0.057880342    29.624327      3328.6871    
      1460   2.92           342.57291      139828.88     -807622.05     -306.50065      0.36207273     0.057887274    29.630292      3328.3308    
      1470   2.94           340.54445      136821.46     -807624.26     -304.13072      0.36205176     0.057443005    29.616612      3327.9853    
      1480   2.96           344.48849      134834.82     -807627.51     -301.46402      0.36203064     0.056942651    29.650264      3327.6143    
      1490   2.98           331.14881      131801.9      -807629.44     -297.74045      0.36200937     0.056242621    29.687728      3327.2157    
      1500   3              337.38824      131506.39     -807630.77     -297.25154      0.36198796     0.056153586    29.708382      3326.8025    
      1510   3.02           329.7825       131456.45     -807629.38     -9524.5855      0.36196642     0.05623094     29.605106      3326.467     
      1520   3.04           347.77528      134139.95     -807629.35     -9605.1427      0.36194472     0.05670993     29.564321      3326.1615    
      1530   3.06           342.60346      135594.19     -807625.35     -9710.6916      0.36192289     0.057336562    29.546494      3325.8688    
      1540   3.08           344.74859      139166.43     -807622.95     -9799.2992      0.36190091     0.057863257    29.505736      3325.6054    
      1550   3.1            332.85709      138566.53     -807622.09     -9775.7486      0.36187879     0.057727723    29.500138      3325.3451    
      1560   3.12           333.34094      138190.4      -807623.27     -9739.317       0.36185653     0.057516126    29.495634      3325.087     
      1570   3.14           334.98271      133054.87     -807628.48     -9581.4031      0.36183412     0.05658706     29.504344      3324.8216    
      1580   3.16           328.38937      133436.47     -807628.25     -9555.0701      0.36181157     0.056435056    29.503632      3324.5559    
      1590   3.18           339.05357      129385.37     -807632.58     -9466.4134      0.36178888     0.055914931    29.499675      3324.292     
      1600   3.2            338.32686      133891.74     -807629.27     -9564.3005      0.36176605     0.056496682    29.550018      3323.9916    
      1610   3.22           339.77981      133252.96     -807628.84     -9586.9261      0.36174307     0.056633929    29.567201      3323.6788    
      1620   3.24           342.25888      138074.34     -807623.31     -9768.9716      0.36171995     0.057713036    29.541129      3323.3838    
      1630   3.26           331.08468      137078.63     -807621.74     -9772.7747      0.36169669     0.057739217    29.493137      3323.1215    
      1640   3.28           349.70268      138782.62     -807624.44     -9764.0945      0.36167329     0.057691666    29.51983       3322.8398    
      1650   3.3            337.14872      134999.35     -807626.23     -9651.7133      0.36164974     0.057031369    29.563947      3322.5274    
      1660   3.32           336.26356      134628.17     -807626.58     -9631.5518      0.36162605     0.056915964    29.550408      3322.2238    
      1670   3.34           332.55563      131139.57     -807629.85     -9508.4597      0.36160222     0.056192276    29.561176      3321.9125    
      1680   3.36           339.04138      132714.95     -807631.47     -9482.614       0.36157824     0.056043251    29.541775      3321.6139    
      1690   3.38           326.78151      133643.75     -807628.11     -9534.0247      0.36155413     0.056350852    29.572869      3321.2942    
      1700   3.4            342.17175      134744.41     -807625.69     -9677.6901      0.36152987     0.057203825    29.535766      3320.9987    
      1710   3.42           335.65375      138800.48     -807622.85     -9735.4031      0.36150546     0.057548845    29.48917       3320.7336    
      1720   3.44           339.13222      138105.76     -807622.94     -9744.3887      0.36148092     0.057605873    29.543921      3320.4316    
      1730   3.46           349.41894      137099.61     -807624.27     -9740.5228      0.36145623     0.057586952    29.558967      3320.1195    
      1740   3.48           356.23878      134988.77     -807627.66     -9655.1073      0.3614314      0.057085888    29.596813      3319.7826    
      1750   3.5            341.65282      133968.77     -807627.38     -9588.6229      0.36140643     0.056696716    29.540593      3319.4818    
      1760   3.52           353.6379       130739.89     -807632.91     -9452.9066      0.36138131     0.055898122    26.309093      3321.5015    
      1770   3.54           336.29611      133391.69     -807628.43     -9499.7947      0.36135605     0.056179313    29.47363       3321.2292    
      1780   3.56           344.80047      132853.04     -807627.44     -9552.138       0.36133065     0.056492829    29.478527      3320.953     
      1790   3.58           351.15305      136777.53     -807624.27     -9658.934       0.36130511     0.057128475    29.459373      3320.6883    
      1800   3.6            352.25454      136320.76     -807623.3      -9676.3276      0.36127942     0.05723542     29.333591      3320.5021    
      1810   3.62           356.62554      139997.55     -807620.87     -9757.8411      0.3612536      0.057721698    29.39168       3320.2776    
      1820   3.64           361.33425      136658.36     -807622.1      -9729.8032      0.36122763     0.05755998     29.428699      3320.0288    
      1830   3.66           357.28972      136936.06     -807622.82     -9675.5027      0.36120151     0.057242885    29.490968      3319.7405    
      1840   3.68           355.09317      131770.69     -807628.46     -9481.2612      0.36117526     0.056097778    29.534938      3319.4247    
      1850   3.7            355.6926       133598.08     -807627.53     -9505.6322      0.36114886     0.056246084    28.778562      3319.5808    
      1860   3.72           353.09868      129866.35     -807628.69     -9459.1376      0.36112232     0.055975083    29.511391      3319.2762    
      1870   3.74           350.18612      136033.01     -807624.36     -9580.4066      0.36109564     0.05669689     29.469165      3318.9968    
      1880   3.76           354.60825      135631.37     -807624.56     -9597.2833      0.36106881     0.056800986    29.448074      3318.7293    
      1890   3.78           357.43833      139470.31     -807619.57     -9770.0555      0.36104184     0.057827848    29.481052      3318.4414    
      1900   3.8            356.40068      138462.1      -807620.47     -9740.9623      0.36101474     0.057659978    29.561128      3318.1055    
      1910   3.82           349.27977      139188.53     -807620.36     -9716.7577      0.36098748     0.057521045    29.558985      3317.7708    
      1920   3.84           361.24817      135198.69     -807626.06     -9594.5758      0.36096009     0.056802066    29.573247      3317.4278    
      1930   3.86           353.10921      134527.16     -807626.77     -9540.3347      0.36093255     0.056485256    29.638019      3317.0473    
      1940   3.88           351.10353      131019.71     -807629.15     -9466.0715      0.36090487     0.056049866    29.602577      3316.6876    
      1950   3.9            357.16451      132519.59     -807629.97     -9474.9758      0.36087705     0.056106914    29.560651      3316.3523    
      1960   3.92           340.40744      134124.88     -807626.49     -9523.7832      0.36084909     0.056400302    29.536912      3316.0305    
      1970   3.94           348.25923      137181.02     -807623.83     -9653.4187      0.36082098     0.057172463    29.559754      3315.6955    
      1980   3.96           347.81608      138000.57     -807622        -9721.9656      0.36079273     0.057582941    29.586318      3315.3454    
      1990   3.98           347.5357       139168.51     -807621.38     -9747.4889      0.36076434     0.057738658    29.545695      3315.0184    
      2000   4              358.20585      136196.57     -807625.26     -9680.837       0.36073581     0.057348385    29.531898      3314.699     
      2010   4.02           347.24459      135292.98     -807626.71     -299.78122      0.36070713     0.056832559    29.598495      3314.3422    
      2020   4.04           338.77031      133457.06     -807628.09     -297.45033      0.36067831     0.056395174    29.638792      3313.9634    
      2030   4.06           339.666        132029.76     -807630.6      -295.27489      0.36064935     0.055987216    29.64828       3313.5798    
      2040   4.08           340.18957      132534.47     -807629.66     -296.45777      0.36062025     0.05621604     29.635946      3313.2033    
      2050   4.1            339.09052      133681.84     -807627.51     -298.6611       0.36059101     0.05663844     29.622438      3312.8346    
      2060   4.12           340.99283      136848.74     -807624.88     -301.73879      0.36056162     0.05722676     29.607339      3312.4744    
      2070   4.14           340.19658      137550.55     -807622.5      -304.14074      0.36053209     0.057687031    29.634786      3312.0996    
      2080   4.16           347.76412      137651.4      -807623.7      -304.11027      0.36050242     0.057685999    29.624516      3311.7307    
      2090   4.18           342.89978      136271.34     -807625.42     -301.88305      0.36047261     0.057268259    29.595632      3311.3775    
      2100   4.2            332.10901      135358.15     -807626.47     -299.37704      0.36044265     0.05679758     29.688319      3310.9752    
      2110   4.22           331.83334      131840.71     -807629.33     -296.68838      0.36041256     0.056292189    29.665689      3310.5855    
      2120   4.24           326.21267      132194.45     -807629.49     -295.81446      0.36038232     0.056131085    29.645168      3310.2071    
      2130   4.26           335.85591      131750.86     -807630.79     -295.9334       0.36035193     0.056158389    29.637896      3309.8329    
      2140   4.28           333.05088      134560.17     -807626.75     -299.62776      0.36032141     0.056864274    29.644935      3309.4553    
      2150   4.3            342.23141      135331.7      -807626.7      -301.09222      0.36029075     0.057147068    29.637424      3309.082     
      2160   4.32           339.84676      138743.64     -807623.5      -303.96217      0.36025994     0.057696714    29.641486      3308.707     
      2170   4.34           340.73558      137187.22     -807624.64     -303.03401      0.36022899     0.057525478    29.630046      3308.3381    
      2180   4.36           340.06142      136714.56     -807624.67     -302.85893      0.36019789     0.057497204    29.571757      3307.9994    
      2190   4.38           326.91294      133509.49     -807626.57     -299.22314      0.36016666     0.056811883    29.594262      3307.6493    
      2200   4.4            339.85796      133234.52     -807630.38     -297.13922      0.36013528     0.056421135    29.645665      3307.2732    
      2210   4.42           330.9877       131476.86     -807631.65     -294.68056      0.36010377     0.055959181    29.666488      3306.8869    
      2220   4.44           332.69867      133356.82     -807629.75     -296.73803      0.36007211     0.056354844    29.691237      3306.4888    
      2230   4.46           334.07828      132572.15     -807629.41     -297.2873       0.3600403      0.056464146    29.655778      3306.1088    
      2240   4.48           345.42056      135609.16     -807627.18     -300.98421      0.36000836     0.057171375    29.646353      3305.7339    
      2250   4.5            334.79431      137015.06     -807624.8      -301.86288      0.35997627     0.057343389    29.677778      3305.3438    
      2260   4.52           335.17439      138581.39     -807623.08     -303.48105      0.35994404     0.057655947    29.655717      3304.965     
      2270   4.54           328.40065      137231.08     -807623.11     -302.4452       0.35991167     0.057464322    29.650828      3304.589     
      2280   4.56           338.74905      134462.35     -807627.75     -299.08523      0.35987916     0.056831063    29.64132       3304.218     
      2290   4.58           342.24258      133064.06     -807630.21     -296.91119      0.35984651     0.056423081    29.639559      3303.8481    
      2300   4.6            341.67986      131355.82     -807631.37     -295.52899      0.35981371     0.056165535    29.657086      3303.47      
      2310   4.62           335.18628      132274.65     -807628.93     -296.82935      0.35978077     0.056417833    29.670601      3303.0858    
      2320   4.64           330.86798      133237.22     -807628.45     -296.5498       0.35974769     0.056369884    29.678614      3302.6982    
      2330   4.66           342.8752       136494.68     -807625.5      -300.91504      0.35971447     0.057204936    29.662911      3302.3184    
      2340   4.68           347.13624      136668.47     -807624.32     -302.44904      0.35968111     0.057501888    29.589045      3301.9742    
      2350   4.7            326.42026      139395.77     -807620.39     -303.15948      0.3596476      0.057642326    29.553494      3301.6469    
      2360   4.72           336.09812      136436.68     -807623.94     -300.67426      0.35961396     0.05717514     29.517846      3301.3364    
      2370   4.74           344.96754      135631.67     -807626.49     -298.99569      0.35958017     0.056861291    29.54233       3301.0141    
      2380   4.76           347.57675      133233.45     -807628.58     -296.95013      0.35954624     0.056477607    29.62068       3300.655     
      2390   4.78           348.27003      132941.25     -807629.53     -295.74686      0.35951216     0.056254085    29.654814      3300.2802    
      2400   4.8            342.84836      131845.68     -807630.2      -294.01833      0.35947795     0.055930625    29.643922      3299.9107    
      2410   4.82           353.245        134375.06     -807628.2      -297.17257      0.35944359     0.056536053    29.617279      3299.5537    
      2420   4.84           341.08914      135543.39     -807622.85     -300.67786      0.35940909     0.057208414    29.619165      3299.1961    
      2430   4.86           360.26202      137489.25     -807623.62     -302.27393      0.35937446     0.057517634    29.622092      3298.8373    
      2440   4.88           344.13389      137732.17     -807622.37     -301.12237      0.35933967     0.057304057    29.633697      3298.4734    
      2450   4.9            347.44972      138635.54     -807622.31     -301.49377      0.35930475     0.057380312    29.607281      3298.1216    
      2460   4.92           347.58153      134638.66     -807624.41     -299.35302      0.35926969     0.056978444    29.624433      3297.7623    
      2470   4.94           349.53369      133909.07     -807627.1      -296.75574      0.35923448     0.056489617    29.612167      3297.4086    
      2480   4.96           340.58498      132035.48     -807629.64     -292.94351      0.35919913     0.055769419    29.616945      3297.0529    
      2490   4.98           351.45767      133479.24     -807629.17     -294.85478      0.35916364     0.056138825    29.613343      3296.699     
      2500   5              356.58462      133219.59     -807628.1      -296.70294      0.35912801     0.056496311    29.663989      3296.3228    
[...]
     98740   197.48         335.67407      133079.57     -807630.07     -9604.6668      0.36236891     0.056640739    28.188352      42.87005     
     98750   197.5          333.65833      134732.24     -807628.18     -9652.0175      0.36238762     0.056917038    28.147833      42.530001    
     98760   197.52         330.85266      135603.44     -807625.91     -9711.5711      0.36240618     0.057265287    28.126981      42.189953    
     98770   197.54         326.16906      136877.49     -807624.66     -9725.2052      0.36242459     0.057342768    28.154923      41.849898    
     98780   197.56         324.88175      136561.07     -807624.57     -9717.0517      0.36244287     0.057291804    28.20276       41.509832    
     98790   197.58         344.52375      134977.63     -807628.3      -9681.7308      0.362461       0.057080696    28.164991      41.169769    
     98800   197.6          325.199        135032.94     -807625.95     -9664.7788      0.36247899     0.056977925    28.17581       40.829701    
     98810   197.62         332.73233      132953.38     -807628.59     -9611.402       0.36249683     0.056660456    28.160205      40.489632    
     98820   197.64         333.52389      134146.24     -807628.69     -9605.4769      0.36251453     0.056622762    28.220047      40.149552    
     98830   197.66         340.56269      133592.9      -807628.76     -9632.3104      0.36253209     0.056778191    28.19297       39.809472    
     98840   197.68         331.73896      135327.17     -807625.64     -9687.2838      0.36254951     0.057099492    28.178877      39.469392    
     98850   197.7          345.50556      135065.08     -807627.38     -9690.2284      0.36256678     0.057114127    28.20716       39.129305    
     98860   197.72         332.67697      137149.36     -807624.01     -9734.3048      0.36258391     0.057371202    28.20556       38.789215    
     98870   197.74         340.00088      135595.33     -807625.02     -9732.877       0.3626009      0.0573601      28.193658      38.449123    
     98880   197.76         336.85591      136594.18     -807625.34     -9704.3594      0.36261774     0.057189376    28.202432      38.109028    
     98890   197.78         339.19371      133909.67     -807627.75     -9632.995       0.36263445     0.0567662      28.227881      37.768926    
     98900   197.8          339.4711       133899.7      -807627.45     -9640.3957      0.362651       0.056807217    28.215065      37.428823    
     98910   197.82         326.40847      133914.07     -807626.43     -9614.0419      0.36266742     0.05664936     28.223646      37.088715    
     98920   197.84         333.86578      134847.05     -807626.47     -9642.3922      0.36268369     0.056813861    28.261388      36.7486      
     98930   197.86         341.63262      135032.46     -807627.42     -9646.7904      0.36269982     0.056837248    28.253732      36.408483    
     98940   197.88         331.25095      137353.7      -807622.98     -9737.7055      0.36271581     0.057370376    28.245221      36.068365    
     98950   197.9          342.24348      136189.11     -807624.05     -9753.193       0.36273165     0.057459112    28.170666      35.728253    
     98960   197.92         352.48794      136182.66     -807625.79     -9738.7759      0.36274735     0.057371693    28.183009      35.388137    
     98970   197.94         340.05628      135428.49     -807626.84     -9650.0341      0.36276291     0.056846472    28.145072      35.048023    
     98980   197.96         349.72384      133979.07     -807628.48     -9638.6166      0.36277832     0.056776801    28.161047      34.707904    
     98990   197.98         337.66328      132750.83     -807627.62     -9614.4056      0.36279359     0.056631801    28.180618      34.367779    
     99000   198            340.18318      133619.87     -807627.86     -9616.7472      0.36280872     0.056643231    28.140558      34.027656    
     99010   198.02         338.13564      133430.56     -807628.1      -300.03873      0.3628237      0.056549554    28.196656      33.687523    
     99020   198.04         339.56115      136447.53     -807625.02     -303.27766      0.36283855     0.05715767     28.225866      33.347384    
     99030   198.06         340.7025       137573.72     -807623.39     -305.05046      0.36285324     0.057489456    28.244374      33.007239    
     99040   198.08         340.40178      137879.63     -807623.96     -304.43356      0.3628678      0.057370893    28.257428      32.667091    
     99050   198.1          343.75742      136702.66     -807625.36     -303.46143      0.36288221     0.057185424    28.256921      32.326939    
     99060   198.12         338.28877      135276.29     -807625.43     -302.67986      0.36289648     0.057035899    28.278993      31.986782    
     99070   198.14         348.4225       134289.72     -807627.93     -301.57661      0.36291061     0.056825794    28.252081      31.646625    
     99080   198.16         335.50263      133150.62     -807628.15     -299.60691      0.36292459     0.05645247     28.262872      31.306465    
     99090   198.18         337.49784      133878.12     -807628.33     -299.67607      0.36293843     0.056463349    28.295708      30.966298    
     99100   198.2          347.56709      133447.4      -807628.29     -301.1682       0.36295213     0.056742345    28.337261      30.626123    
     99110   198.22         345.77884      136735.62     -807624.66     -304.54412      0.36296568     0.057376252    28.299165      30.28595     
     99120   198.24         341.18348      136726.35     -807624.94     -303.70706      0.36297909     0.057216435    28.335337      29.945771    
     99130   198.26         336.13713      138112.25     -807623.29     -304.6256       0.36299236     0.057387386    28.351445      29.605587    
     99140   198.28         340.62463      136315.14     -807624.77     -303.87679      0.36300548     0.057244249    28.309253      29.265405    
     99150   198.3          336.91415      136080.59     -807624.7      -303.47993      0.36301846     0.057167445    28.325331      28.925219    
     99160   198.32         346.48306      133533.06     -807629.58     -299.99249      0.3630313      0.056508507    28.309365      28.585032    
     99170   198.34         334.73736      133806.36     -807628.83     -299.16026      0.36304399     0.056349773    28.23309       28.24485     
     99180   198.36         339.71483      133173.8      -807628.46     -300.42531      0.36305655     0.056586101    28.227313      27.904666    
     99190   198.38         337.48229      134957.48     -807626.32     -302.34627      0.36306895     0.056945973    28.274621      27.564475    
     99200   198.4          347.15629      135585.8      -807627.47     -302.70328      0.36308122     0.05701129     28.286535      27.224279    
     99210   198.42         336.73645      137545.62     -807623.35     -305.52219      0.36309334     0.057540282    28.290654      26.884081    
     99220   198.44         326.00979      137895.31     -807621.98     -305.65233      0.36310532     0.057562894    28.257518      26.543883    
     99230   198.46         340.49464      135899.29     -807625.66     -304.19658      0.36311715     0.057286867    28.2259        26.203685    
     99240   198.48         348.39202      133916.81     -807628.55     -302.72929      0.36312885     0.05700871     28.227113      25.863484    
     99250   198.5          333.02593      133159.78     -807628.15     -301.31773      0.3631404      0.056741086    28.270685      25.523276    
     99260   198.52         337.31806      133227.77     -807629.36     -301.04697      0.3631518      0.056688319    28.27299       25.183066    
     99270   198.54         328.99356      133078.77     -807629.27     -300.27957      0.36316306     0.056542061    28.269172      24.842853    
     99280   198.56         338.64195      135010.79     -807629.04     -302.0923       0.36317418     0.056881652    28.261723      24.502638    
     99290   198.58         331.37316      134460.58     -807627.12     -303.35028      0.36318516     0.057116794    28.301503      24.162417    
     99300   198.6          330.85185      136864.27     -807625        -305.6077       0.36319599     0.05754012     28.277775      23.822195    
     99310   198.62         330.54148      136141.07     -807626.21     -304.57757      0.36320668     0.057344478    28.280718      23.48197     
     99320   198.64         324.49215      136767.42     -807625.51     -304.59733      0.36321723     0.057346534    28.260852      23.141744    
     99330   198.66         332.92387      134746.49     -807628.68     -302.71627      0.36322763     0.056990754    28.251373      22.801517    
     99340   198.68         326.02223      134248.95     -807628.83     -301.74142      0.36323789     0.056805619    28.26805       22.461285    
     99350   198.7          324.71583      133093.96     -807629.71     -300.73975      0.36324801     0.05661547     28.219674      22.121054    
     99360   198.72         329.7881       133230.2      -807630.52     -300.68448      0.36325798     0.05660351     28.255314      21.780818    
     99370   198.74         331.14178      134713.11     -807629.16     -302.23983      0.36326781     0.056894763    28.268239      21.440578    
     99380   198.76         328.46675      134787.62     -807627.42     -303.57835      0.3632775      0.057145207    28.207065      21.100339    
     99390   198.78         326.34878      136216.5      -807625.86     -304.734        0.36328704     0.057361239    28.178232      20.760101    
     99400   198.8          330.5368       135182.84     -807626.5      -304.57351      0.36329644     0.057329545    28.233413      20.419855    
     99410   198.82         330.99489      135516.13     -807627.02     -303.98929      0.3633057      0.05721812     28.269735      20.079604    
     99420   198.84         322.35027      134502.04     -807626.98     -302.6807       0.36331481     0.056970384    28.260618      19.73935     
     99430   198.86         336.17306      133325.98     -807628.5      -302.82782      0.36332378     0.056996668    28.249143      19.399095    
     99440   198.88         323.67541      132496.5      -807628.4      -301.00687      0.36333261     0.056652562    28.277256      19.058835    
     99450   198.9          334.40997      134195.94     -807628.71     -301.85563      0.36334129     0.056810949    28.291794      18.718571    
     99460   198.92         342.08544      133785.68     -807629.05     -302.32745      0.36334983     0.056898411    28.245047      18.378308    
     99470   198.94         332.45621      136039.36     -807625.9      -303.81299      0.36335823     0.057176669    28.200715      18.038045    
     99480   198.96         333.60293      135698.3      -807625.42     -304.20328      0.36336648     0.05724882     28.266788      17.697774    
     99490   198.98         336.29171      136713.94     -807625.51     -304.13806      0.3633746      0.057235268    28.280311      17.357501    
     99500   199            345.85043      135511.1      -807627.24     -303.52488      0.36338256     0.057118624    28.316317      17.017222    
     99510   199.02         339.31595      135206.43     -807626.07     -9714.5941      0.36339039     0.057127967    28.237444      16.676945    
     99520   199.04         345.65288      133767.58     -807628.54     -9656.4422      0.36339807     0.056784796    28.227802      16.336667    
     99530   199.06         323.93361      134597.65     -807625.99     -9634.3417      0.3634056      0.056653659    28.182531      15.996388    
     99540   199.08         350.5653       132922.96     -807629.71     -9629.678       0.363413       0.056625083    28.195251      15.656105    
     99550   199.1          337.34105      135001.22     -807625        -9716.0901      0.36342025     0.057132069    28.212117      15.315819    
     99560   199.12         334.68768      136237.08     -807624.37     -9723.0873      0.36342736     0.057172095    28.160055      14.975533    
     99570   199.14         346.5404       135973.14     -807625.94     -9722.5336      0.36343432     0.057167744    28.120501      14.635246    
     99580   199.16         342.8594       136382.56     -807625.08     -9730.7685      0.36344114     0.057215091    28.155492      14.294953    
     99590   199.18         343.39328      135601.84     -807624.1      -9761.8309      0.36344782     0.057396677    28.168055      13.954658    
     99600   199.2          340.55571      135345.51     -807625.04     -9717.962       0.36345435     0.057137714    28.132192      13.614361    
     99610   199.22         339.68214      134759.31     -807627.81     -9622.4693      0.36346074     0.05657526     28.111032      13.274062    
     99620   199.24         342.12637      134968.2      -807627.13     -9656.7194      0.36346699     0.056775658    28.138046      12.933759    
     99630   199.26         340.88988      134027.96     -807626.46     -9671.2059      0.3634731      0.056859875    28.084478      12.593455    
     99640   199.28         345.48294      135751.16     -807626.94     -9675.0939      0.36347906     0.056881801    28.094485      12.253148    
     99650   199.3          345.31121      134244.15     -807627.95     -9643.089       0.36348487     0.05669273     28.126638      11.912836    
     99660   199.32         347.38729      136525.96     -807625.3      -9735.4583      0.36349055     0.057234885    28.15975       11.572519    
     99670   199.34         343.43466      134622.52     -807624.85     -9736.7047      0.36349608     0.057241342    28.164414      11.2322      
     99680   199.36         337.37803      137699.24     -807623.44     -9752.7009      0.36350147     0.057334533    28.135099      10.891878    
     99690   199.38         349.33238      134010.58     -807628.55     -9646.5141      0.36350671     0.05670946     28.129019      10.551554    
     99700   199.4          334.81736      136418.96     -807624.05     -9723.275       0.36351181     0.057159916    28.107848      10.211228    
     99710   199.42         340.96781      132388.78     -807626.71     -9670.536       0.36351677     0.056849106    28.163212      9.8708964    
     99720   199.44         342.3553       135255.21     -807626.31     -9688.5407      0.36352158     0.056954194    28.188434      9.5305611    
     99730   199.46         340.32608      132927.49     -807628.66     -9608.5108      0.36352625     0.056483012    28.199277      9.1902225    
     99740   199.48         342.06606      136782.18     -807624.38     -9754.5539      0.36353078     0.057340803    28.211723      8.8498806    
     99750   199.5          347.6307       134617.3      -807625.34     -9754.1796      0.36353516     0.057337911    28.245772      8.5095348    
     99760   199.52         349.12644      137429.14     -807625.25     -9763.3649      0.3635394      0.057391235    28.22028       8.169187     
     99770   199.54         341.60702      134428.98     -807627.93     -9649.2992      0.3635435      0.056720092    28.231731      7.8288361    
     99780   199.56         335.73767      135869.56     -807624.59     -9730.8093      0.36354745     0.057198599    28.179935      7.4884838    
     99790   199.58         333.19119      133079.16     -807625.63     -9693.8223      0.36355126     0.056980589    28.143721      7.1481296    
     99800   199.6          346.06641      134260.18     -807628.97     -9644.9957      0.36355493     0.056693013    28.169734      6.8077718    
     99810   199.62         337.66514      133508.16     -807628.45     -9630.1496      0.36355845     0.0566052      28.169024      6.467411     
     99820   199.64         340.71281      135251.94     -807626        -9728.7318      0.36356183     0.057184126    28.143312      6.1270479    
     99830   199.66         341.33023      135285.38     -807625.61     -9751.3397      0.36356507     0.057316502    28.113643      5.7866824    
     99840   199.68         344.90417      135121.75     -807627.21     -9723.0678      0.36356816     0.057149838    28.156555      5.446313     
     99850   199.7          334.215        135906.34     -807626.08     -9719.3984      0.36357111     0.057127807    28.14501       5.1059408    
     99860   199.72         331.72648      135210.65     -807625.8      -9729.0754      0.36357392     0.057184244    28.135315      4.7655658    
     99870   199.74         336.87168      135868.5      -807626.46     -9736.0463      0.36357658     0.057224798    28.111159      4.4251882    
     99880   199.76         336.63183      132700.77     -807630.98     -9601.2486      0.3635791      0.056432116    28.107329      4.0848076    
     99890   199.78         340.10061      135586.6      -807629.46     -9672.0716      0.36358148     0.056848013    28.160808      3.7444232    
     99900   199.8          327.96681      133251.37     -807628.21     -9670.7115      0.36358371     0.05683967     28.151578      3.4040359    
     99910   199.82         334.99532      136079.8      -807626.69     -9755.9104      0.3635858      0.057340097    28.141658      3.0636458    
     99920   199.84         325.36387      134129.82     -807627.87     -9685.5287      0.36358775     0.056926126    28.126433      2.7232528    
     99930   199.86         333.05867      137394.01     -807626.71     -9758.6461      0.36358955     0.057355585    28.158366      2.3828565    
     99940   199.88         325.64659      134857.22     -807625.97     -9758.9446      0.36359121     0.057357078    28.209916      2.0424569    
     99950   199.9          323.8176       136972.74     -807625.54     -9763.2488      0.36359273     0.057382136    28.172173      1.7020547    
     99960   199.92         333.92393      133085.88     -807631.43     -9625.8516      0.3635941      0.056574389    28.170488      1.3616496    
     99970   199.94         334.79898      134242.05     -807630.39     -9662.1463      0.36359533     0.056787513    28.230106      1.0212413    
     99980   199.96         323.81084      133285.57     -807628.16     -9687.7107      0.36359641     0.056937593    28.240613      0.68083029   
     99990   199.98         337.39059      134286.13     -807629.51     -9704.3506      0.36359736     0.057035244    28.250442      0.3404165    
    100000   200            317.64292      134956.3      -807628.13     -9659.0125      0.36359816     0.056768654    28.250999      0            
Loop time of 3404.18 on 32 procs for 100000 steps with 1080 atoms

Performance: 5.076 ns/day, 4.728 hours/ns, 29.376 timesteps/s, 31.726 katom-step/s
61.0% CPU use with 32 MPI tasks x 1 OpenMP threads

MPI task timing breakdown:
Section |  min time  |  avg time  |  max time  |%varavg| %total
---------------------------------------------------------------
Pair    | 2393.3     | 2803.9     | 3017.9     | 283.9 | 82.37
Neigh   | 0.0012377  | 0.0013393  | 0.0015644  |   0.2 |  0.00
Comm    | 311.25     | 525.28     | 936.35     | 656.4 | 15.43
Output  | 2.4602     | 2.5035     | 2.512      |   0.5 |  0.07
Modify  | 65.303     | 66.012     | 66.949     |   5.4 |  1.94
Other   |            | 6.455      |            |       |  0.19

Nlocal:          33.75 ave          42 max          24 min
Histogram: 2 0 2 6 4 3 5 8 0 2
Nghost:        1030.25 ave        1046 max        1012 min
Histogram: 2 2 4 2 0 5 9 6 0 2
Neighs:              0 ave           0 max           0 min
Histogram: 32 0 0 0 0 0 0 0 0 0
FullNghs:      5379.38 ave        6670 max        3839 min
Histogram: 2 0 2 5 5 3 5 8 0 2

Total # of neighbors = 172140
Ave neighs/atom = 159.38889
Neighbor list builds = 3
Dangerous builds = 0

Total wall time: 1:00:15
