
units		metal
atom_style	atomic

read_data ${STRUCTURE}.data
read_data BaTiO3-sc333.data
Reading data file ...
  orthogonal box = (0 0 0) to (11.898253 11.898253 12.912076)
  2 by 4 by 4 MPI processor grid
  reading atoms ...
  135 atoms
  read_data CPU = 0.278 seconds
replicate $L $L $L
replicate 2 $L $L
replicate 2 2 $L
replicate 2 2 2
Replication is creating a 2x2x2 = 8 times larger system...
  orthogonal box = (0 0 0) to (23.796507 23.796507 25.824152)
  2 by 4 by 4 MPI processor grid
  1080 atoms
  replicate CPU = 0.009 seconds

pair_style allegro
pair_coeff	* * ${MODEL}.pth Ba Ti O
pair_coeff	* * BaTiO3-E0.pth Ba Ti O
mass 1 137.3
mass 2 47.9
mass 3 15.9994

timestep 0.002
compute polarization all allegro polarization 3
compute allegro will evaluate the quantity polarization of length 3 (src/compute_allegro.cpp:53)
compute polarizability all allegro polarizability 9
compute allegro will evaluate the quantity polarizability of length 9 (src/compute_allegro.cpp:53)

thermo_style custom pe fmax fnorm spcpu cpuremain

variable efield equal 1e-2*36.36
fix born all addbornforce 0.0 0.0 ${efield}
fix born all addbornforce 0.0 0.0 0.3636

thermo 10
min_style fire
#minimize 0.0 1e-6 100 100
velocity all create ${TEMP} ${SEED} dist gaussian rot yes mom yes
velocity all create 330 ${SEED} dist gaussian rot yes mom yes
velocity all create 330 18687 dist gaussian rot yes mom yes
fix nvt all nvt temp ${TEMP} ${TEMP} $(100*dt)
fix nvt all nvt temp 330 ${TEMP} $(100*dt)
fix nvt all nvt temp 330 330 $(100*dt)
fix nvt all nvt temp 330 330 0.2000000000000000111
run 5000
Neighbor list info ...
  update: every = 1 steps, delay = 0 steps, check = yes
  max neighbors/atom: 2000, page size: 100000
  master list distance cutoff = 8
  ghost atom cutoff = 8
  binsize = 8, bins = 3 3 4
  1 neighbor lists, perpetual/occasional/extra = 1 0 0
  (1) pair allegro/kk, perpetual
      attributes: full, newton on, kokkos_device
      pair build: full/bin/kk/device
      stencil: full/bin/3d
      bin: kk/device
Per MPI rank memory allocation (min/avg/max) = 3.516 | 3.516 | 3.516 Mbytes
    PotEng          Fmax          Fnorm          S/CPU         CPULeft    
-807708.29      1.5961814      37.042522      0              0            
-807645.03      3.4135456      45.41166       2.1205741      2353.1373    
-807634.3       2.5355795      35.785432      25.913509      1270.2997    
-807605.36      3.0499543      37.983977      25.934199      909.04545    
-807601.97      3.9879793      50.302135      25.874903      728.33522    
-807567.31      3.7996063      40.268535      25.831867      619.81821    
-807601.62      2.743646       38.96537       25.933311      547.21981    
-807644.82      3.5565707      34.239662      25.927215      495.26002    
-807682.67      2.3811223      34.468745      25.902047      456.21684    
-807666.33      3.4448343      34.941333      25.864844      425.79436    
-807650.14      3.9798092      36.145909      25.938451      401.32532    
-807658.79      2.6514094      28.493711      25.924811      381.24411    
-807625.44      3.2740886      32.957681      25.874631      364.47591    
-807584.58      3.6621621      40.881945      25.855764      350.23852    
-807567.3       3.4620131      39.423672      25.908557      337.95247    
-807630.89      3.4801377      34.558412      25.913761      327.25057    
-807651.73      3.8035712      32.425117      25.892903      317.84757    
-807662.64      3.4755712      35.114791      25.922375      309.4929     
-807645.2       5.3832388      45.856141      25.93579       302.01832    
-807678.1       3.0651639      36.999258      25.903016      295.3023     
-807640.81      4.7810888      39.541135      25.866998      289.23218    
-807613.97      3.1663385      39.627566      25.936392      283.67976    
-807560.65      3.9950917      46.138809      25.926562      278.60022    
-807603.52      4.1707795      49.468823      25.898467      273.93753    
-807613.22      4.0971821      39.090928      25.858472      269.64306    
-807640.25      3.1519576      35.565683      25.919297      265.64396    
-807641.6       4.5944074      45.292453      25.925252      261.92119    
-807679.36      2.9327429      38.454375      25.856931      258.46347    
-807661.73      3.8694775      35.203472      25.847185      255.22756    
-807635.49      3.3428147      33.274743      25.930487      252.16795    
-807604.83      3.265948       35.107798      25.937336      249.28501    
-807601.48      3.8193999      42.719585      25.901732      246.57121    
-807594.32      3.1905403      38.181046      25.883467      244.00688    
-807606.93      2.73508        34.138216      25.90461       241.57008    
-807640.28      3.1396779      31.525478      25.941452      239.2464     
-807671.17      3.3211664      32.581654      25.911215      237.03945    
-807673.97      2.4291872      33.534169      25.853612      234.94476    
-807641.97      3.920794       39.339222      25.886508      232.93623    
-807647.03      2.6020857      31.80731       25.914155      231.00807    
-807618.63      3.7034121      35.327686      25.925154      229.15706    
-807598.14      3.8116081      44.459162      25.878625      227.38729    
-807566.78      3.5760692      42.548882      25.936307      225.67539    
-807621.27      2.9606079      36.59011       25.914681      224.03016    
-807646.89      3.6010203      36.093073      25.911346      222.44402    
-807669.77      2.8684474      36.244604      25.83656       220.92402    
-807640         4.4005639      46.83157       25.892987      219.44585    
-807664.95      2.7675505      35.796351      25.920371      218.01111    
-807642.46      3.7852916      37.749389      25.933423      216.61915    
-807621.58      3.1477008      38.804998      25.925712      215.2702     
-807562.73      3.7745126      44.048293      25.926881      213.9604     
-807596.58      4.373958       44.891261      25.90656       212.69029    
-807620.29      3.8521018      36.347071      25.807069      211.46795    
-807651.33      3.1467565      34.026184      25.848561      210.27237    
-807640.15      4.0108917      42.315544      25.934414      209.0965     
-807670.07      2.899564       35.721138      25.886167      207.95583    
-807662.71      3.1983575      34.35046       25.82935       206.84947    
-807641.79      3.2211949      31.942197      25.89687       205.7608     
-807598.97      3.5341077      36.100993      25.926651      204.69333    
-807595.04      3.5283935      38.553368      25.923182      203.64975    
-807602.69      3.7742724      38.757598      25.818261      202.6402     
-807617.08      5.2786039      33.125296      25.922999      201.63991    
-807634.96      3.477411       33.094296      25.921061      200.65998    
-807662.08      4.1055334      33.604142      25.92092       199.69923    
-807672.59      3.3662815      35.454669      25.784436      198.77089    
-807644.51      4.272277       38.650927      25.865885      197.85113    
-807634.26      3.1568123      34.048074      25.900191      196.94434    
-807611.48      3.804076       36.657942      25.925102      196.0509     
-807601.05      4.6598491      44.965572      25.879729      195.17698    
-807577.87      3.9749998      41.110704      25.860905      194.31918    
-807614.06      2.9523201      36.765852      25.86326       193.47482    
-807642.48      4.6863967      37.080366      25.882161      192.6418     
-807670.48      3.3912728      37.215078      25.894889      191.82022    
-807646.71      4.2253913      43.20121       25.908196      191.00956    
-807652.56      3.0428264      36.276934      25.91461       190.20997    
-807638.86      3.5936594      36.344897      25.898837      189.42291    
-807622.15      3.6459625      38.908377      25.8387        188.65164    
-807573.42      4.0888412      40.779398      25.834043      187.89087    
-807586.93      2.9373933      40.938481      25.880458      187.13599    
-807621.45      3.3142517      33.462333      25.812941      186.39603    
-807655.42      2.8571833      32.296297      25.854022      185.66171    
-807648.51      3.5853678      36.948834      25.895933      184.93279    
-807656.38      4.2099783      36.32345       25.817851      184.21838    
-807661.24      3.13934        33.406056      25.89369       183.50617    
-807642.19      3.6363398      32.780009      25.820048      182.80734    
-807604.41      3.3440916      35.024642      25.892603      182.11056    
-807583.29      3.5679364      39.571393      25.88393       181.42171    
-807600.47      3.9728646      40.724239      25.82471       180.74417    
-807623.33      3.7459914      33.487571      25.903391      180.06772    
-807637.53      2.9966598      34.495613      25.923333      179.39647    
-807649.79      4.9380831      36.717502      25.914774      178.73223    
-807667.64      2.4960298      35.768487      25.826899      178.08016    
-807651.23      3.3667215      36.072334      25.837647      177.43318    
-807630.76      3.1683928      34.260705      25.892828      176.7882     
-807604.39      4.5478168      36.533959      25.920601      176.14697    
-807603.46      4.0156311      42.957767      25.848958      175.5158     
-807592.95      3.6182829      38.332528      25.836672      174.89055    
-807614.1       5.06183        36.367211      25.881548      174.26744    
-807636.77      3.8784545      35.681178      25.832929      173.65223    
-807666.04      4.8946906      35.9804        25.814258      173.04283    
-807655.87      3.5915842      37.613757      25.829029      172.43701    
-807646.63      4.1427468      35.332407      25.85314       171.83413    
-807630.33      4.16801        35.404994      25.872111      171.2344     
-807622.78      4.4716115      36.603439      25.905238      170.63692    
-807591.71      3.4506643      38.555984      25.870452      170.04555    
-807590.22      5.5236704      39.361601      25.897268      169.4566     
-807619.08      2.6991557      33.911669      25.923417      168.87004    
-807653.65      2.8743919      32.598435      25.915258      168.28773    
-807654.07      3.0651958      34.287242      25.8405        167.71318    
-807652.22      3.4793899      35.167119      25.876385      167.14016    
-807650.96      2.6776365      33.293737      25.861531      166.57136    
-807642.59      2.9242671      31.211435      25.82908       166.0076     
-807611.36      2.8431577      34.715952      25.79427       165.44884    
-807584.91      2.8643136      38.319653      25.844222      164.89055    
-807601.08      3.3270413      38.355276      25.896111      164.33263    
-807629.72      2.6380976      33.848917      25.796854      163.78276    
-807644.6       3.1522731      33.769973      25.855782      163.23275    
-807645.71      4.0757179      37.815855      25.860961      162.6853     
-807660.05      2.9516917      35.509379      25.888975      162.13923    
-807650.51      3.6782022      34.875346      25.84404       161.59804    
-807632.52      3.4447898      33.9174        25.86354       161.05851    
-807597.37      3.4268331      37.472956      25.875393      160.52097    
-807600.71      4.1796489      40.525493      25.896289      159.98494    
-807604.64      4.0528972      36.895394      25.817302      159.45504    
-807625.94      3.5409048      34.936122      25.842739      158.92628    
-807634         3.7814393      36.70377       25.861984      158.39894    
-807660.9       3.2115281      34.458143      25.850148      157.87438    
-807655.35      3.2398259      36.296524      25.766897      157.35572    
-807645.9       2.8741232      34.154587      25.833237      156.83618    
-807621.21      4.3715848      35.398048      25.922295      156.31485    
-807616.45      3.3595085      36.034284      25.919334      155.79575    
-807598.6       3.6060179      38.925205      25.847297      155.28176    
-807600.68      2.8964696      37.673203      25.852286      154.76949    
-807620.29      3.3736252      34.650598      25.870054      154.25839    
-807648.05      3.9923513      34.560616      25.861709      153.74951    
-807656.48      3.4691445      35.219224      25.834873      153.24355    
-807649.05      2.9986368      35.777373      25.862779      152.73822    
-807640.15      2.8994528      35.00815       25.853145      152.23502    
-807632.89      3.6600328      33.872867      25.883298      151.73232    
-807611.4       3.6710789      37.313395      25.844572      151.23283    
-807588.88      3.4405144      39.485296      25.788881      150.73713    
-807601.56      3.5421614      37.560369      25.854704      150.24044    
-807629         3.4102641      34.812895      25.844628      149.74568    
-807651.19      3.4030597      34.054312      25.852608      149.25215    
-807645.42      4.3711734      37.926279      25.885352      148.75888    
-807651.11      3.2543846      36.074107      25.862844      148.26793    
-807645.34      3.8179215      35.227991      25.802618      147.78063    
-807631.47      4.1766715      35.150755      25.85539       147.29278    
-807595.47      5.1690546      38.131572      25.902815      146.8046     
-807591.99      3.5409731      41.04698       25.916876      146.31731    
-807608.15      3.5553578      38.578125      25.821217      145.83474    
-807632.94      4.1902266      36.07463       25.826592      145.35326    
-807635.39      4.1721019      38.330217      25.82017       144.87325    
-807651.72      3.3355935      36.85356       25.91947       144.39106    
-807651.03      3.2737468      37.577747      25.794075      143.91438    
-807644.6       4.0853563      34.904845      25.848435      143.43703    
-807615.93      3.3214957      36.449258      25.859093      142.96049    
-807603.94      3.4466068      37.667476      25.856431      142.48519    
-807601.16      3.9229369      39.512937      25.832696      142.01179    
-807610.57      3.2056011      37.012592      25.819555      141.53992    
-807622.35      2.9328029      34.688571      25.898444      141.06658    
-807644.95      3.1053492      34.125802      25.823026      140.59672    
-807655.62      3.1660535      35.106027      25.864495      140.12658    
-807649.56      3.087412       35.424511      25.861855      139.65756    
-807634.86      4.0678587      35.375153      25.83956       139.19023    
-807622.36      2.8837257      35.234838      25.863317      138.72316    
-807611.21      3.2809131      38.280589      25.825503      138.25821    
-807598         3.336212       38.523315      25.811704      137.79461    
-807605.51      3.0250646      36.852046      25.812747      137.3319     
-807630.29      2.9317873      34.194701      25.757614      136.87172    
-807652.69      3.3891778      33.987629      25.846412      136.40978    
-807650.03      3.3241486      35.997308      25.83314       135.94911    
-807644.95      4.2373954      35.883111      25.886295      135.48777    
-807640.61      3.6151973      34.049268      25.842894      135.02854    
-807629.71      3.5287782      34.642609      25.906092      134.56836    
-807603.11      3.9322379      36.933352      25.852171      134.11054    
-807595.02      3.4960239      38.578384      25.843319      133.65378    
-807614.35      3.4755171      35.42357       25.831807      133.19813    
-807639.86      3.0810712      33.613127      25.896782      132.74148    
-807642.32      2.9695557      35.333351      25.872159      132.28629    
-807648.86      3.5879439      35.461074      25.847965      131.83251    
-807649.93      3.8525598      34.62592       25.833457      131.37987    
-807642.17      2.7123253      33.846835      25.818201      130.92835    
-807619.14      4.7945079      35.11579       25.873028      130.4761     
-807601.09      3.3049154      37.195328      25.894678      130.02401    
-807603.6       3.4300103      37.788601      25.837358      129.57411    
-807620.99      3.1595644      35.667358      25.845604      129.12468    
-807631.73      4.3303747      34.929731      25.868447      128.67535    
-807641.77      3.2731644      36.009275      25.861681      128.22685    
-807654.01      3.3485917      35.08709       25.850774      127.77929    
-807648.03      2.8266815      35.031708      25.781043      127.33408    
-807634.1       2.9180796      33.790793      25.843841      126.88795    
-807614.18      3.2971387      35.461454      25.838589      126.44256    
-807608.79      3.1466081      36.890761      25.829295      125.998      
-807605.87      3.1892855      36.667107      25.823076      125.55418    
-807616.07      3.2662387      34.86318       25.846486      125.1104     
-807631.89      3.5070466      34.356627      25.87357       124.66656    
-807649.74      2.8386985      34.708135      25.880211      124.22316    
-807650.49      3.6338679      35.938395      25.82058       123.78171    
-807642.53      4.0804398      35.920991      25.837731      123.34041    
-807629.74      2.711895       35.118776      25.842922      122.89954    
-807620.47      3.0025012      35.768912      25.860589      122.45881    
-807606.88      3.2711764      37.530992      25.865517      122.01851    
-807601.7       3.0137563      37.693088      25.886481      121.57828    
-807615.86      3.3042468      35.911631      25.88591       121.1386     
-807638.62      3.1908425      34.433168      25.896543      120.69921    
-807647.99      2.851238       34.652668      25.878452      120.26072    
-807643.03      2.9621431      36.095118      25.836911      119.82363    
-807640.8       3.1064725      35.031957      25.810457      119.38758    
-807635.33      2.9919026      34.400685      25.861467      118.95093    
-807617.62      3.3759938      35.405372      25.812402      118.51578    
-807598.06      3.3017121      37.792765      25.850345      118.0803     
-807603.01      3.2277873      37.550711      25.912463      117.64401    
-807624.13      2.9897271      35.672619      25.883725      117.20877    
-807637.01      3.0693255      35.471751      25.808819      116.77551    
-807639.12      3.5179711      37.086516      25.824082      116.34237    
-807647.93      3.6343742      35.838707      25.84232       115.90929    
-807645.67      2.9344536      35.361518      25.862247      115.47625    
-807630.43      3.3217069      34.974354      25.883051      115.04323    
-807609.13      3.1754496      36.009806      25.908318      114.61015    
-807601.3       3.6502539      38.277911      25.876049      114.17812    
-807609.58      3.3259401      37.559106      25.869536      113.74662    
-807621.48      3.5349217      35.817922      25.814929      113.31657    
-807633.84      3.1933591      35.042661      25.804754      112.88709    
-807645.17      3.2290488      35.681042      25.737778      112.45924    
-807649.92      2.7216529      35.808728      25.722011      112.03204    
-807641.47      2.8702696      34.842085      25.734271      111.60495    
-807624.65      2.8898918      34.521748      25.807684      111.17686    
-807613.89      2.9145318      35.130287      25.830684      110.74871    
-807606.85      3.2836001      37.573895      25.834613      110.32086    
-807608.66      3.5031336      36.572198      25.856498      109.89297    
-807621.79      3.499314       34.483908      25.897067      109.46473    
-807640.34      3.0682856      34.642732      25.848044      109.0377     
-807650.42      2.9888261      34.765272      25.840576      108.61115    
-807646.87      3.9529043      35.664294      25.860719      108.1846     
-807636.19      3.3566951      35.382225      25.860257      107.75839    
-807628.7       3.317114       33.851207      25.89518       107.33193    
-807615.85      3.2432304      35.268204      25.857791      106.90644    
-807604.28      3.1395021      36.760331      25.887988      106.48077    
-807606.1       2.9501602      36.41404       25.894383      106.05533    
-807628.23      2.8097359      34.265574      25.868812      105.63064    
-807643.2       3.0462345      33.997291      25.84177       105.2067     
-807647.17      3.3544497      35.325462      25.818136      104.78345    
-807642.61      4.1845105      35.797204      25.863943      104.35976    
-807641.59      3.8661307      34.734271      25.858085      103.93648    
-807629.95      2.5101522      34.399521      25.835242      103.51385    
-807610.58      2.9157764      36.289714      25.836929      103.09148    
-807599.48      3.0126338      38.584624      25.838664      102.66938    
-807613.44      3.3276175      36.640787      25.79936       102.24816    
-807630.91      3.3427953      35.754464      25.864173      101.82622    
-807637.22      3.4895879      35.248649      25.827331      101.40513    
-807644.56      3.8010413      35.730956      25.843829      100.98406    
-807648.46      3.6828513      35.253195      25.817528      100.56366    
-807641.53      2.8404419      33.876268      25.838755      100.1432     
-807622.71      4.7792549      34.625773      25.87217       99.722518    
-807607.92      3.0409923      35.852251      25.861217      99.302265    
-807606.67      4.2616197      36.609595      25.869543      98.882156    
-807616.54      3.2062882      35.619889      25.836951      98.462772    
-807625.89      3.1016719      34.123413      25.87325       98.043129    
-807639.07      3.181813       33.730419      25.898475      97.623388    
-807647.24      2.9356052      35.29429       25.880518      97.204157    
-807646.38      4.9396903      35.5063        25.848448      96.78562     
-807634.61      4.054533       34.649545      25.878544      96.366914    
-807620.05      3.4957991      35.58299       25.892588      95.948265    
-807611.74      3.6592792      37.558974      25.894611      95.529835    
-807607.44      3.3122689      38.331987      25.85185       95.11222     
-807612.38      3.3582239      36.198869      25.832364      94.695096    
-807624.96      3.5956849      35.77633       25.832569      94.278195    
-807644.38      3.5024718      34.641188      25.850945      93.861277    
-807646.75      3.1111591      35.2996        25.816262      93.445034    
-807641.09      4.1350129      35.220883      25.836731      93.028742    
-807631.94      3.8309873      34.560343      25.859363      92.612378    
-807624.53      3.1408759      35.112316      25.881832      92.195949    
-807609.65      3.3688075      37.469663      25.847188      91.780175    
-807603.53      3.0277659      38.042287      25.860764      91.364445    
-807612.76      3.8233721      36.732208      25.863179      90.948895    
-807632.84      2.9689036      35.157947      25.820704      90.534078    
-807641.21      2.8926482      35.565008      25.810603      90.119582    
-807642.06      3.2610256      35.837339      25.836815      89.704965    
-807642.03      3.2727094      34.700738      25.833813      89.290583    
-807633.03      2.6327798      34.31131       25.85094       88.876193    
-807622.02      3.4560381      34.924245      25.836083      88.462175    
-807606.25      2.7225492      35.851941      25.879793      88.047839    
-807605.53      3.6275608      36.704839      25.868767      87.633828    
-807619.97      2.973052       35.098896      25.862628      87.220082    
-807633.08      3.0577906      35.163219      25.837366      86.806814    
-807638.08      3.4485562      35.434286      25.845331      86.39364     
-807644.58      3.0471526      35.172717      25.867006      85.980408    
-807644.12      2.9380644      34.583321      25.842672      85.567631    
-807632.59      3.2738045      34.218941      25.81798       85.155305    
-807615.42      3.8623978      34.705192      25.855515      84.742743    
-807609.72      2.908125       35.89483       25.893773      84.329944    
-807610.66      3.5324228      35.699205      25.821877      83.918101    
-807622.13      3.4265586      33.914169      25.784435      83.506826    
-807628.9       3.8172909      34.405315      25.800943      83.095536    
-807642.85      3.2701546      34.447724      25.819083      82.684216    
-807645.96      4.5891856      35.335879      25.783297      82.273433    
-807641.79      3.5688422      34.506708      25.764837      81.862997    
-807628.49      2.9492669      34.01196       25.844006      81.451898    
-807618.25      3.5250826      35.719017      25.838965      81.041012    
-807611.97      3.2145479      36.287435      25.854553      80.630129    
-807612.1       3.1065346      35.824099      25.909802      80.218857    
-807619.38      3.3555321      34.528857      25.907425      79.807777    
-807635.83      2.718867       33.956138      25.889671      79.397036    
-807645.29      2.8577168      35.07615       25.861119      78.986735    
-807644.87      3.6797995      34.977242      25.83509       78.576839    
-807638.4       4.0570075      34.866588      25.827019      78.167171    
-807629.38      3.6865985      34.839345      25.861488      77.757323    
-807619.86      4.6239929      36.346162      25.829139      77.34793     
-807609.39      3.457494       36.688283      25.843129      76.93855     
-807609.26      4.065009       36.97867       25.850768      76.529246    
-807624.05      3.3941456      35.044567      25.838764      76.120196    
-807639.29      3.2419379      34.742083      25.851846      75.711169    
-807642.36      3.368261       35.160136      25.852891      75.302275    
-807642.53      4.1974323      35.573809      25.864244      74.89342     
-807639.02      2.8429402      34.377651      25.822701      74.485076    
-807629.87      3.0165256      34.638992      25.814289      74.07694     
-807614.32      3.8427951      36.07832       25.863828      73.668503    
-807607.74      3.1860108      36.063502      25.892461      73.259956    
-807614.29      3.5230282      35.779316      25.89197       72.851554    
-807627.69      3.1930601      34.773251      25.889517      72.443313    
-807635.18      4.2070231      34.912158      25.857859      72.035474    
-807641.18      3.0458446      35.76089       25.828035      71.628016    
-807644.25      3.1109457      34.869708      25.809715      71.220836    
-807636.68      3.4049555      35.315205      25.765235      70.814145    
-807625.36      2.8094875      34.574697      25.819358      70.407126    
-807611.98      2.9824455      35.71757       25.826716      70.000169    
-807609.54      3.4034211      36.449227      25.808817      69.593477    
-807615.38      3.5396721      36.473627      25.877365      69.186359    
-807626.02      2.8609321      34.725938      25.830845      68.779733    
-807635.87      3.362041       35.454014      25.85291       68.373053    
-807642.22      4.3013591      35.975832      25.82749       67.96669     
-807642.73      4.665825       35.372192      25.786362      67.560757    
-807634.7       4.0069988      34.296776      25.827383      67.154623    
-807620.88      3.3006154      34.984982      25.873278      66.748258    
-807613.56      3.2556202      35.414901      25.915838      66.341696    
-807611.47      2.692005       36.153494      25.842761      65.935796    
-807612.85      3.6283645      36.132821      25.862048      65.529867    
-807627.55      4.8522782      34.666925      25.850739      65.124134    
-807638.82      3.175242       35.167115      25.803514      64.718853    
-807642.61      3.7404776      35.370252      25.748652      64.314068    
-807641.14      2.9559917      34.754513      25.777685      63.909174    
-807630         4.803421       36.366869      25.789743      63.504295    
-807624.94      3.7081571      34.531048      25.821509      63.099296    
-807613.78      4.3166331      35.910462      25.864431      62.694106    
-807609.35      3.4351694      36.307163      25.857514      62.289071    
-807616.04      4.4162761      35.465689      25.85394       61.884166    
-807631.48      3.2735933      34.761556      25.85508       61.479357    
-807640.04      3.0767288      35.309738      25.861463      61.074611    
-807640.5       4.4290871      35.973966      25.861076      60.669972    
-807637.58      4.0767593      36.043218      25.849371      60.26551     
-807634.87      3.3974123      34.567869      25.839225      59.861215    
-807621.92      3.0421673      35.865843      25.839966      59.457013    
-807611.27      3.1740378      36.698558      25.832638      59.052956    
-807609.04      3.017511       36.816414      25.808988      58.649142    
-807620.72      3.1284541      35.504195      25.763505      58.245702    
-807631.93      3.4087772      34.705922      25.765596      57.842336    
-807638.66      3.4746088      35.437275      25.844686      57.438575    
-807644.46      3.3258867      34.016835      25.815754      57.035082    
-807639.98      3.5194891      35.080022      25.823441      56.631634    
-807633.2       2.9663576      33.47879       25.8491        56.228125    
-807619.03      3.0909754      35.482679      25.857111      55.824661    
-807611.17      3.8930025      35.738937      25.853189      55.421313    
-807613.7       3.4479777      35.847522      25.797205      55.018376    
-807621.93      3.2585041      35.522424      25.82155       54.615386    
-807629.69      3.5175051      34.714041      25.841785      54.212369    
-807639.94      3.0319416      34.222644      25.846721      53.809412    
-807645.33      3.1305626      34.141024      25.829716      53.406637    
-807638.61      3.4435334      34.648759      25.829902      53.003945    
-807629.86      3.3648586      34.613828      25.881621      52.601061    
-807618.96      3.0989878      35.512647      25.860539      52.198377    
-807616.52      3.0171609      35.298475      25.82386       51.795974    
-807613.01      3.3496614      35.786919      25.819734      51.393673    
-807621.5       4.0369594      34.937579      25.8538        50.991278    
-807632.73      3.4414086      35.248308      25.830429      50.589085    
-807642.77      4.1516975      34.838739      25.792046      50.187167    
-807641.01      3.4207292      35.312408      25.780943      49.78538     
-807635.88      5.7726211      35.178688      25.793389      49.383606    
-807630.42      3.3403384      34.934512      25.800435      48.981871    
-807621.34      4.2372287      36.108628      25.804778      48.580191    
-807614.28      3.5283511      35.920642      25.806913      48.178575    
-807611.94      3.4579875      36.627699      25.833327      47.776908    
-807626.59      3.9435428      34.975993      25.844593      47.375265    
-807635.22      3.2005225      34.804157      25.852419      46.973663    
-807640.31      3.6351039      35.18458       25.799227      46.572381    
-807639.34      3.1532947      35.641306      25.852605      46.170929    
-807638.03      2.67271        34.730065      25.824787      45.769678    
-807629.59      3.0319414      34.749851      25.825765      45.368495    
-807617.22      2.9776298      35.757533      25.872146      44.967182    
-807610.81      2.8326839      36.37684       25.866673      44.565968    
-807618         3.0924871      35.962437      25.87223       44.164806    
-807627.8       3.1926113      34.727218      25.857283      43.763782    
-807635.35      3.1338667      33.664709      25.820423      43.362985    
-807639.57      3.2120886      33.616758      25.787912      42.962391    
-807640.27      3.0271302      34.476031      25.773091      42.561924    
-807637.41      3.4154819      33.767035      25.819357      42.161332    
-807624.1       3.1673169      35.187753      25.827573      41.760775    
-807617.62      3.3550044      35.420568      25.828556      41.360282    
-807612.7       3.4469974      35.948034      25.822742      40.959879    
-807618.68      3.076648       35.454135      25.827251      40.559524    
-807625.35      3.6842966      35.500994      25.831887      40.159218    
-807634.87      3.099567       35.4226        25.884699      39.75878     
-807637.67      4.4407084      36.63128       25.931091      39.358242    
-807638.28      3.1791825      35.351741      25.913022      38.957843    
-807632.42      4.0444657      35.162992      25.909553      38.557529    
-807622.29      3.4077041      35.887626      25.928343      38.15722     
-807617.16      3.2026159      36.144131      25.926437      37.756989    
-807613.4       3.1037941      36.965855      25.931321      37.356813    
-807617.77      3.4937134      35.170026      25.923349      36.956736    
-807626.41      3.2166248      35.174209      25.921706      36.556734    
-807636.51      3.2824343      35.05277       25.921706      36.156802    
-807639.66      2.6609053      35.096109      25.923827      35.756932    
-807636.13      3.1496185      34.546319      25.922138      35.357137    
-807631.18      3.0233627      34.877981      25.926419      34.957395    
-807622.93      3.5244628      35.86046       25.95138       34.557644    
-807615.5       3.0584085      35.914415      25.970562      34.157903    
-807612.81      3.3080304      36.011377      25.960522      33.758264    
-807619.08      3.6162694      35.930226      25.959209      33.358697    
-807628.32      3.441199       35.72871       25.930212      32.959286    
-807637.38      3.6122181      34.308604      25.990234      32.559765    
-807637.19      2.9231972      35.662116      25.945102      32.160444    
-807635.17      3.2939707      35.519502      25.962354      31.761141    
-807631.63      3.3608681      35.559668      25.909731      31.362051    
-807621.73      2.9433809      35.62456       25.888823      30.963082    
-807615.7       3.1617797      35.815653      25.901397      30.564138    
-807615.57      3.5217035      35.90886       25.879043      30.165315    
-807625.05      3.0884947      34.915615      25.875844      29.766559    
-807629.17      3.1181578      34.704396      25.909407      29.367773    
-807636.14      3.2536592      34.67167       25.909487      28.969047    
-807637.79      3.0159236      34.557868      25.932499      28.570324    
-807637.72      3.3713653      34.621582      25.930621      28.171666    
-807630.28      3.0517294      33.89262       25.99651       27.772909    
-807623.62      3.1177119      34.039462      25.982801      27.37425     
-807616.29      3.4027655      35.31181       25.956861      26.975716    
-807621.34      2.8398549      34.118447      26.01209       26.577117    
-807624.54      3.0754431      34.011411      25.95457       26.178712    
-807630.94      2.6250622      34.339561      25.932955      25.780415    
-807636.3       2.8047134      34.258434      25.961186      25.382116    
-807638.78      3.0052664      34.833725      25.929104      24.983945    
-807634.16      3.3009757      35.108401      25.952326      24.585782    
-807628.29      2.9629917      34.794877      25.995231      24.187589    
-807621.8       3.3911149      35.577531      25.981787      23.789485    
-807618.6       2.9914237      35.645656      25.973007      23.391458    
-807621.29      3.111789       34.613682      25.931856      22.99357     
-807624.38      2.9401668      35.104257      25.955633      22.595693    
-807632.81      2.8431237      33.673075      25.911334      22.197955    
-807636.68      3.3553704      34.207055      25.936887      21.800223    
-807638.86      3.5387672      33.513171      25.913435      21.402588    
-807631.95      3.9517322      35.120449      25.939189      21.00496     
-807628.11      3.9478557      34.144474      25.91035       20.607436    
-807621.86      5.0329155      35.303405      25.910678      20.209962    
-807616.89      4.011609       35.74557       25.919562      19.812526    
-807620.82      5.2070826      34.928355      25.92486       19.415132    
-807624.43      3.3488045      35.455598      25.923766      19.017792    
-807632.48      4.4209019      35.605139      25.917117      18.620513    
-807636.54      3.5058587      35.153322      25.880404      18.223341    
-807634.94      3.2001508      35.559311      25.84081       17.826274    
-807632.21      3.4592158      35.852148      25.927818      17.429125    
-807626.69      3.0196026      35.43088       25.926207      17.03203     
-807620.35      2.8957148      36.089194      25.924128      16.634987    
-807616.1       3.409439       36.358957      25.922194      16.237995    
-807618.77      2.8198326      35.706049      25.93451       15.841037    
-807626.03      3.1509905      34.867928      25.984842      15.444065    
-807633.23      2.9307399      34.264004      25.987979      15.047141    
-807632.35      3.8811768      35.639201      25.938813      14.650328    
-807635.67      3.487773       34.628092      25.930536      14.253574    
-807632.79      3.2375867      35.189742      26.018282      13.856769    
-807626.45      3.2794725      34.606227      26.019729      13.460016    
-807619.19      2.833352       35.223728      26.00208       13.063335    
-807616.92      2.7904929      35.5593        25.93972       12.666769    
-807622.67      3.2348389      34.873337      25.932838      12.270256    
-807627.51      3.2204255      35.370549      25.957981      11.873766    
-807630.23      3.6448642      35.345428      25.993253      11.477292    
-807632.69      3.2084903      35.889544      25.927311      11.080926    
-807634.49      3.9234104      36.19748       25.924086      10.684607    
-807631.02      4.3208839      35.586994      25.921532      10.288335    
-807623.28      4.2115363      35.969333      25.934054      9.8920981    
-807620.05      4.7635329      36.219178      25.948271      9.4958947    
-807620.31      3.6852398      36.431349      25.918121      9.0997584    
-807622.63      3.80373        35.626711      25.900587      8.7036772    
-807626.65      3.4584726      35.500198      25.928151      8.3076197    
-807632.56      4.3405447      35.733403      25.927574      7.9116058    
-807635.22      3.4123796      35.428537      25.920847      7.5156387    
-807632.32      4.0251713      35.407437      25.933157      7.1197071    
-807629.36      3.5626725      35.283977      25.946423      6.7238113    
-807624.33      3.3840924      35.671282      25.966874      6.3279488    
-807621.95      3.3345834      35.949939      25.935271      5.9321451    
-807620.22      4.4985912      35.910163      25.95952       5.5363732    
-807623.11      3.6339141      35.506199      26.020443      5.1406206    
-807630.57      3.6046638      34.701859      26.027585      4.7449122    
-807634.73      2.6773027      35.249259      26.029686      4.3492502    
-807634.15      3.1882529      35.557445      25.984083      3.9536488    
-807635.12      3.3040498      34.089503      25.993546      3.5580886    
-807628.94      3.0480731      34.972874      25.960626      3.1625805    
-807626.32      3.0539261      34.973829      25.962259      2.7671138    
-807621.54      3.7713311      35.018145      25.966205      2.3716881    
-807619.85      3.5772848      34.910845      26.028082      1.9762949    
-807625.05      3.8185465      35.384829      26.012289      1.5809486    
-807630.77      3.1484035      35.148164      25.995891      1.1856477    
-807634.8       3.4413344      35.139646      25.994768      0.79038953   
-807633.12      3.3024292      35.006611      25.970792      0.39517443   
-807632.43      3.1756132      35.788919      25.952942      0            
Loop time of 197.577 on 32 procs for 5000 steps with 1080 atoms

Performance: 4.373 ns/day, 5.488 hours/ns, 25.307 timesteps/s, 27.331 katom-step/s
67.3% CPU use with 32 MPI tasks x 1 OpenMP threads

MPI task timing breakdown:
Section |  min time  |  avg time  |  max time  |%varavg| %total
---------------------------------------------------------------
Pair    | 101.46     | 144.69     | 193.24     | 312.0 | 73.23
Neigh   | 0          | 0          | 0          |   0.0 |  0.00
Comm    | 2.0612     | 50.612     | 93.841     | 527.5 | 25.62
Output  | 0.025093   | 0.030223   | 0.031686   |   0.6 |  0.02
Modify  | 1.9224     | 1.9327     | 1.941      |   0.3 |  0.98
Other   |            | 0.3159     |            |       |  0.16

Nlocal:          33.75 ave          48 max          21 min
Histogram: 8 8 0 0 0 0 0 8 0 8
Nghost:        1106.25 ave        1119 max        1092 min
Histogram: 8 0 8 0 0 0 0 0 8 8
Neighs:              0 ave           0 max           0 min
Histogram: 32 0 0 0 0 0 0 0 0 0
FullNghs:       5494.5 ave        7896 max        3378 min
Histogram: 8 8 0 0 0 0 0 8 0 8

Total # of neighbors = 175824
Ave neighs/atom = 162.8
Neighbor list builds = 0
Dangerous builds = 0

reset_timestep 0


variable interval equal 1000
thermo 10

variable nintervals equal $(v_PERIOD/v_interval)
variable nintervals equal 100
variable efield equal 1e-2*36.36*cos((step/${PERIOD})*2*3.14)
variable efield equal 1e-2*36.36*cos((step/100000)*2*3.14)
fix born all addbornforce 0.0 0.0 v_efield

variable Px equal f_born[1]+c_polarization[1]
variable Py equal f_born[2]+c_polarization[2]
variable Pz equal (f_born[3]+c_polarization[3])/vol
variable pe equal pe

fix aveP all ave/time 1 $(v_interval/2) ${interval} v_efield v_Pz v_pe f_born file Pz.${MODEL}.${STRUCTURE}.${TEMP}.$L.${ITER}
fix aveP all ave/time 1 500 ${interval} v_efield v_Pz v_pe f_born file Pz.${MODEL}.${STRUCTURE}.${TEMP}.$L.${ITER}
fix aveP all ave/time 1 500 1000 v_efield v_Pz v_pe f_born file Pz.${MODEL}.${STRUCTURE}.${TEMP}.$L.${ITER}
fix aveP all ave/time 1 500 1000 v_efield v_Pz v_pe f_born file Pz.BaTiO3-E0.${STRUCTURE}.${TEMP}.$L.${ITER}
fix aveP all ave/time 1 500 1000 v_efield v_Pz v_pe f_born file Pz.BaTiO3-E0.BaTiO3-sc333.${TEMP}.$L.${ITER}
fix aveP all ave/time 1 500 1000 v_efield v_Pz v_pe f_born file Pz.BaTiO3-E0.BaTiO3-sc333.330.$L.${ITER}
fix aveP all ave/time 1 500 1000 v_efield v_Pz v_pe f_born file Pz.BaTiO3-E0.BaTiO3-sc333.330.2.${ITER}
fix aveP all ave/time 1 500 1000 v_efield v_Pz v_pe f_born file Pz.BaTiO3-E0.BaTiO3-sc333.330.2.6

thermo_style custom step time temp press pe f_born v_efield v_Pz spcpu cpuremain

# dump 4a all custom 1000 dump.hyst.${MODEL}.${STRUCTURE}.${TEMP}.$L.${ITER}.bin id type xu yu zu fx fy fz
# dump_modify 4a sort id

fix nvt all nvt temp ${TEMP} ${TEMP} $(100*dt)
fix nvt all nvt temp 330 ${TEMP} $(100*dt)
fix nvt all nvt temp 330 330 $(100*dt)
fix nvt all nvt temp 330 330 0.2000000000000000111

run $(v_PERIOD)
run 100000
WARNING: non-constant efield is experimental, strongly distrust scalar/vector output (src/fix_addbornforce.cpp:193)
Per MPI rank memory allocation (min/avg/max) = 3.516 | 3.516 | 3.516 Mbytes
   Step          Time           Temp          Press          PotEng         f_born        v_efield         v_Pz          S/CPU         CPULeft    
         0   0              319.00262      130060.5      -807632.43     -298.86708      0.3636         0.056208466    0              0            
        10   0.02           324.45201      136096.54     -807628.89     -303.05469      0.36359993     0.056996048    28.542908      3503.1657    
        20   0.04           323.21916      136979.32     -807624.53     -307.35351      0.36359971     0.057804568    28.618282      3498.1932    
        30   0.06           321.42085      142346.6      -807617.9      -313.67822      0.36359935     0.058994127    28.623717      3496.0816    
        40   0.08           321.74827      138291.46     -807621.67     -309.94351      0.36359885     0.058291812    28.678526      3493.1826    
        50   0.1            326.91427      136501.05     -807627.63     -304.51735      0.36359821     0.057271404    28.646487      3492.0833    
        60   0.12           323.10612      131085.05     -807632.74     -298.8648       0.36359742     0.056208435    28.633122      3491.5055    
        70   0.14           321.30493      131684.04     -807631.43     -299.7202       0.36359649     0.056369457    28.675183      3490.2617    
        80   0.16           320.54058      127713.49     -807634.64     -296.36883      0.36359541     0.055739318    28.692163      3488.9838    
        90   0.18           321.96274      132842.55     -807632.99     -297.92397      0.36359419     0.056031987    28.64753       3488.5153    
       100   0.2            327.7586       135154.88     -807628.03     -303.61155      0.36359283     0.057101892    28.605675      3488.5809    
       110   0.22           325.00715      140603.78     -807619.22     -311.80036      0.36359132     0.058642248    28.603469      3488.5957    
       120   0.24           328.46963      141455.17     -807620.09     -311.1192       0.36358968     0.058514405    28.641362      3488.1645    
       130   0.26           331.8302       138889.94     -807624.49     -306.87085      0.36358788     0.057715672    28.627647      3487.8746    
       140   0.28           332.98125      135318.79     -807626.91     -304.34922      0.36358595     0.057241712    28.588482      3487.9178    
       150   0.3            329.54591      131692.2      -807628.76     -301.78717      0.36358387     0.05676017     28.666014      3487.2781    
       160   0.32           333.76096      129671.69     -807634.1      -296.61703      0.36358165     0.05578811     28.670519      3486.6411    
       170   0.34           337.67944      128292.77     -807637.43     -293.50646      0.36357928     0.055203429    28.619156      3486.4055    
       180   0.36           331.31569      133473.12     -807629.51     -300.31774      0.36357677     0.056484902    28.628512      3486.0941    
       190   0.38           340.90189      136082.92     -807624.27     -306.78699      0.36357412     0.057702085    28.627023      3485.7879    
       200   0.4            339.30996      140531.8      -807620.73     -309.81673      0.36357132     0.058272381    28.616324      3485.5427    
       210   0.42           333.78822      139378.56     -807621.69     -307.93951      0.36356838     0.05791977     28.566984      3485.5741    
       220   0.44           337.22585      140744.52     -807619.94     -310.02858      0.3635653      0.058313193    28.563451      3485.591     
       230   0.46           333.87498      135217.11     -807623.56     -305.93046      0.36356207     0.057542891    28.582706      3485.4736    
       240   0.48           335.41744      133494.68     -807629.52     -299.96427      0.3635587      0.056421224    28.624631      3485.1237    
       250   0.5            336.43653      128142.63     -807635.68     -293.94792      0.36355519     0.055290123    28.64103       3484.694     
       260   0.52           336.33618      131446.47     -807631.55     -298.00001      0.36355153     0.056052865    28.594928      3484.4863    
       270   0.54           338.28285      132772.18     -807628.8      -301.20921      0.36354773     0.056657098    28.588191      3484.2987    
       280   0.56           327.69057      139484        -807622.57     -305.82619      0.36354379     0.057526171    28.607159      3484.0168    
       290   0.58           358.69436      136357.61     -807626.36     -306.5125       0.3635397      0.057655913    28.591308      3483.7969    
       300   0.6            325.02269      142882.86     -807616.63     -311.50823      0.36353547     0.058596307    28.607154      3483.504     
       310   0.62           340.52086      137777.48     -807622.27     -308.23446      0.3635311      0.057981192    28.660069      3483.0001    
       320   0.64           336.34627      136736.46     -807625.28     -304.52531      0.36352658     0.057284184    28.671742      3482.4613    
       330   0.66           335.0057       130295.83     -807632.66     -297.11462      0.36352192     0.055890879    28.596395      3482.2117    
       340   0.68           332.06177      131481.85     -807631.42     -297.93768      0.36351712     0.056046446    28.588739      3481.9837    
       350   0.7            335.7674       129795.38     -807631.86     -298.19921      0.36351217     0.056096407    28.594808      3481.7277    
       360   0.72           337.44034      134201.39     -807628.89     -301.4586       0.36350708     0.05671035     28.557503      3481.5927    
       370   0.74           335.52108      136762.42     -807625.9      -304.35985      0.36350185     0.057256955    28.589515      3481.3405    
       380   0.76           341.49052      140324.86     -807621.43     -309.76395      0.36349647     0.05827445     28.643305      3480.9112    
       390   0.78           329.98099      140310.32     -807618.45     -311.28706      0.36349095     0.058561876    28.642818      3480.4873    
       400   0.8            349.1147       136805.12     -807626.03     -306.39663      0.36348529     0.057642746    28.63572       3480.0888    
       410   0.82           327.80149      135273.14     -807627.77     -301.75398      0.36347948     0.056770226    28.597755      3479.8053    
       420   0.84           324.76811      131123.5      -807630.42     -298.88317      0.36347353     0.056231049    28.604376      3479.4994    
       430   0.86           333.62423      131826.36     -807631        -299.57121      0.36346744     0.05636144     28.634953      3479.1051    
       440   0.88           333.14279      129636.51     -807634.06     -296.61477      0.3634612      0.055806173    28.623864      3478.7433    
       450   0.9            324.86773      135541.66     -807627.84     -301.66826      0.36345482     0.056757951    28.61903       3478.3954    
       460   0.92           340.80107      135663.81     -807625.84     -306.21161      0.3634483      0.057613802    28.631964      3478.0131    
       470   0.94           325.07836      141942.35     -807618.73     -311.1336       0.36344163     0.058540949    28.615581      3477.6746    
       480   0.96           340.36514      137299.38     -807624.76     -307.35054      0.36343482     0.057830235    28.656111      3477.2331    
       490   0.98           328.78299      137996.02     -807624.96     -305.59493      0.36342786     0.057501006    28.616021      3476.8947    
       500   1              337.53765      132224.34     -807630.08     -301.85442      0.36342077     0.056798298    28.575268      3476.655     
       510   1.02           337.33515      132945.21     -807631.12     -9624.9743      0.36341353     0.056597341    28.453481      3476.7033    
       520   1.04           325.29955      129145.42     -807635.48     -9438.6592      0.36340614     0.055502888    28.452536      3476.7383    
       530   1.06           319.53545      133021.1      -807630.62     -9568.199       0.36339862     0.056265796    28.448144      3476.769     
       540   1.08           322.62726      133115.6      -807628.02     -9671.7677      0.36339095     0.056876033    28.473284      3476.7284    
       550   1.1            336.44301      137953.09     -807624.15     -9857.9181      0.36338313     0.05797196     28.513787      3476.5862    
       560   1.12           323.01151      138235.15     -807622.24     -9861.4437      0.36337518     0.057993963    28.522262      3476.4181    
       570   1.14           338.03145      138896.19     -807624.27     -9863.4232      0.36336707     0.058006897    28.510823      3476.2681    
       580   1.16           328.95013      136609.97     -807625.23     -9795.1031      0.36335883     0.057606413    28.511153      3476.1105    
       590   1.18           336.13117      134117.65     -807629.86     -9679.052       0.36335044     0.056925213    28.489272      3475.9918    
       600   1.2            332.34824      130075.37     -807634.01     -9531.7893      0.36334191     0.056060437    28.492549      3475.8586    
       610   1.22           319.11768      129879.62     -807633.68     -9481.7642      0.36333324     0.055767549    28.464183      3475.7754    
       620   1.24           314.57643      132974.2      -807629.73     -9591.0427      0.36332442     0.056411646    28.499825      3475.6129    
       630   1.26           321.56695      134345.19     -807627.14     -9709.767       0.36331546     0.057111355    28.53831       3475.3699    
       640   1.28           330.6756       138324.19     -807625.17     -9810.935       0.36330636     0.057707856    28.5431        3475.1144    
       650   1.3            327.67319      138534.62     -807622.93     -9872.687       0.36329711     0.058072558    28.574099      3474.7979    
       660   1.32           329.60241      140007.9      -807622.75     -9886.7483      0.36328772     0.058156772    28.561747      3474.5031    
       670   1.34           323.68348      135830.89     -807625.82     -9763.6822      0.36327819     0.057434368    28.547995      3474.2317    
       680   1.36           328.79405      134677.91     -807630.08     -9647.7302      0.36326851     0.056753798    28.528598      3473.9928    
       690   1.38           314.71998      129651.16     -807633.07     -9489.6849      0.36325869     0.055825589    28.493473      3473.8128    
       700   1.4            318.94832      131920.53     -807631.73     -9546.5796      0.36324873     0.056161827    28.525557      3473.572     
       710   1.42           328.3887       130069.12     -807633.13     -9549.9251      0.36323863     0.056183072    28.511283      3473.3526    
       720   1.44           322.12696      136838.48     -807625.82     -9749.7467      0.36322838     0.057360259    28.510239      3473.1313    
       730   1.46           333.114        135836.7      -807626.49     -9779.0445      0.36321798     0.057534271    28.493337      3472.9348    
       740   1.48           320.27429      142471.96     -807618.92     -9956.1231      0.36320745     0.058577799    28.484132      3472.7493    
       750   1.5            327.01886      137491.68     -807624.24     -9815.7907      0.36319677     0.057753839    28.481106      3472.5643    
       760   1.52           338.11192      137753.84     -807626.25     -9791.6471      0.36318595     0.0576135      28.53492       3472.2886    
       770   1.54           328.22209      131640.95     -807630.34     -9614.6047      0.36317498     0.056573501    28.566431      3471.9609    
       780   1.56           329.75018      132379.33     -807632.38     -9546.2285      0.36316387     0.056172885    28.510977      3471.7194    
       790   1.58           327.37252      128824.82     -807634.7      -9459.1957      0.36315262     0.055662483    28.505096      3471.4842    
       800   1.6            333.58302      132884        -807630.56     -9610.3779      0.36314122     0.056553886    28.552116      3471.1745    
       810   1.62           331.88892      134237.19     -807627.53     -9698.7493      0.36312968     0.057075736    28.511459      3470.9249    
       820   1.64           321.69792      139562.87     -807621.7      -9831.31        0.363118       0.057857698    28.490446      3470.7041    
       830   1.66           326.64097      139203.09     -807621.22     -9863.9226      0.36310618     0.058051515    28.455454      3470.5318    
       840   1.68           336.77565      138612.39     -807622.89     -9846.6537      0.36309421     0.057951794    28.460986      3470.3471    
       850   1.7            338.28182      136110.56     -807625.79     -9754.7135      0.3630821      0.057412601    28.496779      3470.1071    
       860   1.72           339.20014      133102.69     -807630.64     -9596.684       0.36306984     0.056484405    28.490043      3469.8741    
       870   1.74           330.6818       131369.01     -807631.96     -9510.3012      0.36305745     0.055977882    28.521921      3469.5936    
       880   1.76           329.72895      130814.71     -807631.72     -9510.953       0.3630449      0.055983653    28.521557      3469.312     
       890   1.78           337.62803      133639.67     -807629.24     -9619.92        0.36303222     0.056627036    28.574612      3468.9564    
       900   1.8            336.96805      135823.27     -807626.34     -9707.4611      0.36301939     0.05714436     28.566631      3468.6117    
       910   1.82           335.49542      139947.11     -807621.46     -9849.9416      0.36300642     0.057985164    28.583054      3468.2449    
       920   1.84           339.04863      139157.04     -807621.43     -9867.0012      0.36299331     0.058087689    28.578239      3467.8849    
       930   1.86           346.73597      139610.49     -807622.89     -9848.4921      0.36298005     0.057980843    28.559167      3467.55      
       940   1.88           332.17412      134753.44     -807626.06     -9681.9146      0.36296665     0.057002258    28.553739      3467.2217    
       950   1.9            335.2977       133437.84     -807628.95     -9600.0991      0.36295311     0.056522678    28.563303      3466.8808    
       960   1.92           328.94692      130390.02     -807631.61     -9487.2121      0.36293942     0.055860138    28.554024      3466.5515    
       970   1.94           331.81446      133629.27     -807630.73     -9525.9636      0.36292559     0.056090442    28.515644      3466.2698    
       980   1.96           338.28196      133052.65     -807629.56     -9594.4849      0.36291162     0.056496082    28.545997      3465.949     
       990   1.98           347.31909      136879.42     -807625.93     -9748.6827      0.3628975      0.057406292    28.560032      3465.6105    
      1000   2              345.8493       138260.12     -807623.8      -9814.1662      0.36288325     0.05779417     28.453933      3465.4009    
      1010   2.02           338.02017      140734.42     -807621.01     -308.45323      0.36286884     0.058128239    28.612773      3464.9973    
      1020   2.04           327.29032      137954.51     -807622.14     -305.9374       0.3628543      0.05765644     28.60852       3464.5999    
      1030   2.06           344.48578      135094.06     -807627.85     -302.75812      0.36283961     0.057059587    28.623876      3464.1853    
      1040   2.08           326.11722      132787.73     -807628.73     -299.43898      0.36282478     0.05643635     28.645528      3463.7469    
      1050   2.1            315.63347      131233.07     -807629.63     -297.29405      0.3628098      0.056034399    28.61414       3463.3462    
      1060   2.12           336.88077      130728.91     -807632.77     -297.35381      0.36279469     0.056047999    28.632611      3462.9255    
      1070   2.14           336.70422      133906.93     -807629.24     -301.07255      0.36277943     0.056751329    28.57427       3462.572     
      1080   2.16           323.86281      137117.88     -807623.85     -304.91481      0.36276402     0.057478024    28.549116      3462.2469    
      1090   2.18           344.74467      137740.1      -807625.08     -306.90671      0.36274848     0.057855987    28.585348      3461.881     
      1100   2.2            320.98693      139367.42     -807621.34     -307.55223      0.36273279     0.057980183    28.567794      3461.5347    
      1110   2.22           340.90744      136623.14     -807626.17     -305.82234      0.36271695     0.057656579    28.602896      3461.1501    
      1120   2.24           319.77554      136046.12     -807625.45     -303.82741      0.36270098     0.057282998    28.589361      3460.7807    
      1130   2.26           318.9957       133166.14     -807630.26     -299.11895      0.36268486     0.056397781    28.578797      3460.423     
      1140   2.28           322.82913      131563.16     -807633.15     -296.92047      0.3626686      0.055985777    28.636943      3460.0038    
      1150   2.3            320.20766      131038.51     -807631.5      -298.36264      0.36265219     0.056260249    28.57725       3459.6485    
      1160   2.32           330.11555      133919.05     -807629.41     -301.93533      0.36263564     0.056936525    28.512189      3459.3613    
      1170   2.34           325.49981      135888.15     -807627.35     -303.57478      0.36261895     0.057248316    28.494775      3459.0912    
      1180   2.36           330.19442      139549.9      -807625        -306.62867      0.36260212     0.057826903    28.529488      3458.7839    
      1190   2.38           324.04629      138633.27     -807623.59     -307.3331       0.36258514     0.057962465    28.61145       3458.3926    
      1200   2.4            325.08753      137472.74     -807624.97     -306.05436      0.36256802     0.057724023    28.61213       3458.0013    
      1210   2.42           319.50356      133155.95     -807629.4      -300.8911       0.36255076     0.056752897    28.576919      3457.6457    
      1220   2.44           321.61303      131892.88     -807631.75     -298.80206      0.36253335     0.056361577    28.57729       3457.29      
      1230   2.46           325.21881      130312.96     -807633.37     -297.73346      0.3625158      0.05616273     28.642036      3456.8708    
      1240   2.48           315.7913       132876.16     -807629.91     -299.81032      0.36249811     0.056557258    28.613994      3456.4799    
      1250   2.5            334.83884      133241.64     -807631.83     -300.51743      0.36248028     0.056693439    28.623696      3456.0805    
      1260   2.52           323.50438      137256.1      -807626.04     -304.64399      0.3624623      0.057474777    28.635042      3455.6709    
      1270   2.54           331.81573      138177.6      -807624.55     -307.29436      0.36244418     0.0579777      28.661375      3455.2373    
      1280   2.56           318.48379      138683.64     -807622.83     -307.05649      0.36242592     0.05793574     28.707076      3454.7622    
      1290   2.58           317.24906      136548.56     -807626.33     -303.25273      0.36240751     0.057220949    28.711157      3454.2853    
      1300   2.6            335.42666      133289.75     -807630.98     -301.02138      0.36238896     0.05680282     28.663618      3453.8542    
      1310   2.62           312.21479      133849.41     -807628.47     -300.15905      0.36237027     0.056643021    28.641274      3453.4449    
      1320   2.64           327.57916      130420.33     -807632.24     -298.39184      0.36235143     0.056312457    28.610455      3453.0647    
      1330   2.66           322.65378      131848.89     -807631.71     -298.00078      0.36233245     0.056241602    28.569524      3452.722     
      1340   2.68           323.6534       134302.06     -807627.91     -301.84327      0.36231333     0.056969801    28.559887      3452.3879    
      1350   2.7            330.29715      137192.38     -807624.14     -306.41787      0.36229407     0.057836284    28.595787      3452.0215    
      1360   2.72           326.44875      136889.35     -807623.42     -306.50948      0.36227466     0.057856674    28.5779        3451.6712    
      1370   2.74           331.92347      138125.51     -807625.36     -305.14683      0.36225511     0.05760257     28.629602      3451.2753    
      1380   2.76           332.22786      134805.28     -807627.34     -303.18615      0.36223542     0.057235563    28.615355      3450.8926    
      1390   2.78           318.61334      134092.5      -807626.61     -301.84387      0.36221558     0.056985287    28.542034      3450.5741    
      1400   2.8            335.66668      131303.16     -807633.31     -297.4313       0.3621956      0.056155334    28.518084      3450.2759    
      1410   2.82           322.96462      131513.22     -807631.99     -296.8183       0.36217548     0.056042712    28.499221      3449.993     
      1420   2.84           341.50812      132021.71     -807632.43     -298.87178      0.36215522     0.05643359     28.418605      3449.7784    
      1430   2.86           322.21076      136902.98     -807625.35     -303.25909      0.36213481     0.057265238    28.465589      3449.5218    
      1440   2.88           335.02474      136662.56     -807625.98     -304.33202      0.36211426     0.057471103    28.538006      3449.2029    
      1450   2.9            325.29808      139157.71     -807623.79     -305.04322      0.36209357     0.0576087      28.571137      3448.8559    
      1460   2.92           327.44414      137834.7      -807624.54     -304.6291       0.36207273     0.057533802    28.558099      3448.5197    
      1470   2.94           330.39599      136464.64     -807625.57     -303.82332      0.36205176     0.057384945    28.560628      3448.1812    
      1480   2.96           336.78233      131496.35     -807632.02     -298.27893      0.36203064     0.056341029    28.551692      3447.8498    
      1490   2.98           328.56138      132561.49     -807631.56     -297.45282      0.36200937     0.056188287    28.554209      3447.5161    
      1500   3              328.48426      130437.83     -807631.95     -297.10879      0.36198796     0.056126619    28.600448      3447.1451    
      1510   3.02           338.63739      132976.15     -807629.56     -9625.8014      0.36196642     0.056828495    28.575265      3446.7944    
      1520   3.04           329.07813      134678.19     -807627.07     -9664.2247      0.36194472     0.057058757    28.583366      3446.4373    
      1530   3.06           323.95325      139116.96     -807623.31     -9759.2159      0.36192289     0.057623073    28.507188      3446.1405    
      1540   3.08           327.00004      138094.83     -807622.99     -9783.3595      0.36190091     0.057769136    28.557301      3445.8036    
      1550   3.1            330.07893      137742.38     -807623.5      -9778.4109      0.36187879     0.057743445    28.599306      3445.4339    
      1560   3.12           338.06292      134151.27     -807628.51     -9652.356       0.36185653     0.057002573    28.565272      3445.0907    
      1570   3.14           326.02935      133265.4      -807629.29     -9571.7344      0.36183412     0.056529957    28.52114       3444.7814    
      1580   3.16           327.16394      131371.7      -807631.41     -9510.2346      0.36181157     0.056170245    28.564599      3444.4383    
      1590   3.18           336.71492      131301.64     -807631.92     -9532.6455      0.36178888     0.056306141    28.553298      3444.1037    
      1600   3.2            331.32646      132731.8      -807630.01     -9569.9349      0.36176605     0.056529965    28.537062      3443.7812    
      1610   3.22           339.90722      134563.5      -807629.18     -9635.587       0.36174307     0.056921389    28.480118      3443.5012    
      1620   3.24           327.67545      137183.41     -807623.58     -9760.3349      0.36171995     0.057662012    28.528635      3443.184     
      1630   3.26           337.772        137269.3      -807624.44     -9779.5015      0.36169669     0.05777896     28.568042      3442.8372    
      1640   3.28           321.3454       138256.91     -807623.26     -9743.4615      0.36167329     0.057569755    28.490437      3442.5476    
      1650   3.3            321.62787      134475.23     -807627.13     -9621.383       0.36164974     0.056852149    28.390532      3442.3308    
      1660   3.32           329.72331      133905.27     -807628.4      -9612.2992      0.36162605     0.056802194    28.414488      3442.0949    
      1670   3.34           326.3922       130160.74     -807631.21     -9509.0108      0.36160222     0.056195533    28.432527      3441.8444    
      1680   3.36           330.78901      133699.65     -807631.28     -9522.3167      0.36157824     0.056277898    28.450758      3441.5795    
      1690   3.38           332.58914      131776.58     -807631.74     -9519.7201      0.36155413     0.056266305    28.434006      3441.3256    
      1700   3.4            329.28157      136940.67     -807625.31     -9707.3102      0.36152987     0.057378906    28.483313      3441.0354    
      1710   3.42           334.75447      136116.09     -807625.5      -9729.1959      0.36150546     0.057512152    28.509816      3440.7256    
      1720   3.44           327.3763       139931.26     -807623.26     -9764.3905      0.36148092     0.057724117    28.497486      3440.4241    
      1730   3.46           327.17523      136116.15     -807625.98     -9682.202       0.36145623     0.057242154    28.456933      3440.1504    
      1740   3.48           327.76809      135982.73     -807625.81     -9685.8113      0.3614314      0.057267426    28.489116      3439.8534    
      1750   3.5            332.02463      130811.31     -807630.84     -9545.3713      0.36140643     0.056440973    28.496765      3439.5505    
      1760   3.52           321.22817      133065.02     -807630.53     -9504.6263      0.36138131     0.056203958    28.544116      3439.2146    
      1770   3.54           337.81929      130206.32     -807633.88     -9476.1456      0.36135605     0.056039459    28.571029      3438.8602    
      1780   3.56           323.32395      134094.72     -807627.25     -9624.2945      0.36133065     0.056919573    28.562354      3438.5117    
      1790   3.58           317.5402       134892.48     -807625.91     -9645.549       0.36130511     0.057049309    28.603197      3438.1358    
      1800   3.6            338.95153      136810.45     -807626.58     -9717.8246      0.36127942     0.057480875    28.589889      3437.769     
      1810   3.62           322.6609       137319.48     -807623.7      -9740.9966      0.3612536      0.057622056    28.562212      3437.4208    
      1820   3.64           338.44737      136367.42     -807626.39     -9727.9563      0.36122763     0.057549055    28.554852      3437.0775    
      1830   3.66           318.63707      135124.4      -807626.69     -9632.9437      0.36120151     0.056991095    28.553304      3436.735     
      1840   3.68           327.62757      132655.5      -807631.58     -9519.9278      0.36117526     0.056326557    28.557062      3436.3901    
      1850   3.7            329.10289      131802.37     -807631.8      -9521.8974      0.36114886     0.056342328    28.549574      3436.05      
      1860   3.72           325.85758      130652.69     -807632.2      -9502.1389      0.36112232     0.056229547    28.554932      3435.7062    
      1870   3.74           317.26972      134885.61     -807628.18     -9592.3321      0.36109564     0.056767465    28.543934      3435.3695    
      1880   3.76           321.6469       134272.33     -807628.4      -9609.1236      0.36106881     0.056871063    28.560166      3435.0223    
      1890   3.78           323.53958      137781.87     -807623.93     -9760.6441      0.36104184     0.057772143    28.55418       3434.6788    
      1900   3.8            326.55799      136197.18     -807625.16     -9739.0456      0.36101474     0.057648633    28.483341      3434.3803    
      1910   3.82           331.73157      136827.34     -807627.02     -9701.8354      0.36098748     0.057432709    28.500118      3434.0706    
      1920   3.84           321.43523      133449.74     -807629.69     -9572.31        0.36096009     0.056670248    28.513063      3433.7523    
      1930   3.86           323.09425      133506.81     -807630.36     -9559.5128      0.36093255     0.056598803    28.540452      3433.4165    
      1940   3.88           320.33476      131175.61     -807631.91     -9499.3723      0.36090487     0.056247044    28.539547      3433.0812    
      1950   3.9            325.27163      132187.44     -807631.85     -9521.6001      0.36087705     0.056383004    28.507602      3432.7655    
      1960   3.92           311.36314      133297.55     -807628.89     -9556.2755      0.36084909     0.056592723    28.520683      3432.4413    
      1970   3.94           318.65659      136923.81     -807625.77     -9687.4323      0.36082098     0.057373909    28.529608      3432.1115    
      1980   3.96           325.28405      136009.39     -807625.65     -9720.3938      0.36079273     0.057573631    28.508471      3431.7943    
      1990   3.98           326.87671      137207.81     -807625.9      -9715.0628      0.36076434     0.057546584    28.513921      3431.4735    
      2000   4              318.08136      135017.25     -807627.1      -9636.0269      0.36073581     0.057082934    28.5208        3431.1481    
      2010   4.02           331.57139      133633.6      -807629.5      -300.4439       0.36070713     0.056958189    28.651029      3430.7449    
      2020   4.04           318.41598      131588.37     -807630.68     -297.37251      0.36067831     0.056380419    28.647796      3430.3441    
      2030   4.06           327.70984      131725.04     -807632.69     -296.42848      0.36064935     0.05620595     28.629769      3429.9545    
      2040   4.08           317.49946      131696.01     -807630.92     -296.64314      0.36062025     0.056251189    28.636738      3429.5611    
      2050   4.1            325.87438      135005.07     -807628.79     -299.7105       0.36059101     0.05683745     28.582026      3429.2001    
      2060   4.12           326.32803      135676.58     -807626.18     -302.20969      0.36056162     0.05731607     28.578118      3428.8415    
      2070   4.14           336.75384      137373.45     -807626.05     -303.50338      0.36053209     0.057566142    28.632844      3428.4513    
      2080   4.16           333.4161       137187.87     -807626.22     -302.58226      0.36050242     0.057396155    28.589576      3428.0865    
      2090   4.18           328.87476      135977.09     -807625.41     -302.47218      0.36047261     0.057380018    28.607969      3427.7112    
      2100   4.2            327.42456      134421.38     -807627.53     -299.93828      0.36044265     0.056904059    28.649441      3427.3126    
      2110   4.22           331.39516      132493.29     -807630.82     -296.88672      0.36041256     0.056329822    28.676673      3426.899     
      2120   4.24           335.70624      131557.05     -807632.81     -295.24917      0.36038232     0.056023822    28.679953      3426.4843    
      2130   4.26           322.6708       132733.43     -807629.32     -296.6452       0.36035193     0.056293466    28.60298       3426.1133    
      2140   4.28           330.08582      134799.36     -807627.28     -299.49466      0.36032141     0.056839013    28.566452      3425.7629    
      2150   4.3            337.74769      135613.82     -807627.04     -300.56505      0.36029075     0.05704701     28.579738      3425.4051    
      2160   4.32           338.78518      137859.58     -807624.94     -302.53278      0.36025994     0.057425394    28.587196      3425.0433    
      2170   4.34           338.78585      137068.8      -807624.64     -302.7034       0.36022899     0.057462717    28.616523      3424.6654    
      2180   4.36           336.62628      137251.34     -807624.8      -302.04389      0.36019789     0.05734247     28.627686      3424.2816    
      2190   4.38           335.07709      133001.35     -807629.08     -297.47911      0.36016666     0.056480754    28.664462      3423.8782    
      2200   4.4            340.28983      133087.52     -807630.5      -296.57494      0.36013528     0.05631399     28.617427      3423.5007    
      2210   4.42           323.63751      131259.09     -807630.18     -294.59204      0.36010377     0.055942371    28.594532      3423.1359    
      2220   4.44           332.98132      134016.27     -807627.9      -298.03444      0.36007211     0.056601051    28.573618      3422.7825    
      2230   4.46           341.99742      132883.81     -807628.94     -298.31106      0.3600403      0.056658589    28.598564      3422.4157    
      2240   4.48           343.36116      137704.33     -807625.12     -302.21309      0.36000836     0.0574048      28.579059      3422.0595    
      2250   4.5            336.33507      136257.33     -807623.79     -302.6264       0.35997627     0.05748843     28.579915      3421.7029    
      2260   4.52           336.42642      138793.03     -807622.72     -303.6101       0.35994404     0.057680463    28.582123      3421.3452    
      2270   4.54           336.27754      134208.85     -807627.43     -299.0441       0.35991167     0.056818114    28.605895      3420.975     
      2280   4.56           339.8588       134480.87     -807628.64     -298.26325      0.35987916     0.056674873    28.595229      3420.6106    
      2290   4.58           321.98197      131277.12     -807628.44     -296.15267      0.35984651     0.056278935    28.593812      3420.2471    
      2300   4.6            348.11001      132574.23     -807631.58     -296.63279      0.35981371     0.056375313    28.597981      3419.8815    
      2310   4.62           338.52576      132410.21     -807630.13     -296.9543       0.35978077     0.056441583    28.625007      3419.5021    
      2320   4.64           332.96978      135330.41     -807626.63     -299.77825      0.35974769     0.056983566    28.558692      3419.1571    
      2330   4.66           332.17519      135679.3      -807625.2      -301.30922      0.35971447     0.057279871    28.522777      3418.8306    
      2340   4.68           336.18309      137118.94     -807625.23     -301.94733      0.35968111     0.057406502    28.555776      3418.4869    
      2350   4.7            330.47099      136251.08     -807625.38     -301.18519      0.3596476      0.057266937    28.612937      3418.1141    
      2360   4.72           338.53554      134683.47     -807628.3      -299.54868      0.35961396     0.056961103    28.582254      3417.7571    
      2370   4.74           327.32414      132703.79     -807629.49     -296.98766      0.35958017     0.056479416    28.648209      3417.3669    
      2380   4.76           332.0261       132321.82     -807631.19     -296.1526       0.35954624     0.056325924    28.612423      3416.995     
      2390   4.78           325.25981      131990.12     -807630.86     -295.80522      0.35951216     0.056265186    28.590609      3416.6341    
      2400   4.8            332.83796      132785.45     -807630.78     -297.17167      0.35947795     0.056530478    28.594743      3416.2713    
      2410   4.82           320.75593      135296.73     -807627.01     -299.52656      0.35944359     0.056983892    28.585301      3415.9133    
      2420   4.84           305.17946      136953.56     -807622.73     -301.89211      0.35940909     0.057439443    28.610439      3415.5429    
      2430   4.86           326.92455      136475.62     -807625.41     -302.44188      0.35937446     0.057549592    28.677523      3415.1399    
      2440   4.88           328.06118      134949.63     -807627.55     -300.61389      0.35933967     0.057207292    28.666316      3414.7428    
      2450   4.9            333.00625      134163.83     -807630.39     -298.58268      0.35930475     0.056826272    28.599027      3414.3787    
      2460   4.92           325.46505      131541.46     -807631.8      -296.29627      0.35926969     0.056396627    28.612566      3414.0082    
      2470   4.94           316.32269      131981.54     -807631.02     -295.88125      0.35923448     0.056323152    28.614201      3413.6371    
      2480   4.96           325.47485      130705.03     -807633.6      -294.7227       0.35919913     0.056108135    28.593264      3413.2763    
      2490   4.98           315.58442      133262.52     -807629.68     -297.28355      0.35916364     0.05660125     28.575774      3412.9239    
      2500   5              314.89026      133584.78     -807626.66     -300.23051      0.35912801     0.057168009    28.586237      3412.5665    
[...]
     98740   197.48         328.13709      137505.18     -807623.7      -9777.0519      0.36236891     0.05765733     29.697464      44.037323    
     98750   197.5          338.57809      136951.87     -807625.72     -9751.9043      0.36238762     0.057506061    29.643328      43.687667    
     98760   197.52         333.03364      135954.04     -807627.62     -9655.8811      0.36240618     0.056936905    29.658077      43.338011    
     98770   197.54         334.89663      134315.96     -807628.77     -9617.6756      0.36242459     0.056708741    29.70389       42.988351    
     98780   197.56         337.0064       132758.02     -807628.16     -9639.9062      0.36244287     0.056836954    29.694779      42.638695    
     98790   197.58         342.48459      132919.25     -807629.64     -9606.8015      0.362461       0.056638935    29.698296      42.289041    
     98800   197.6          343.91882      132292.97     -807631.07     -9560.3971      0.36247899     0.05636255     29.660559      41.939394    
     98810   197.62         324.47696      135816.59     -807625.77     -9635.9939      0.36249683     0.056805428    29.629403      41.589755    
     98820   197.64         337.9118       136142.2      -807623.83     -9756.903       0.36251453     0.057515395    29.639278      41.240117    
     98830   197.66         337.57976      137567.74     -807623.29     -9764.2717      0.36253209     0.057556044    29.656695      40.890479    
     98840   197.68         343.66551      135309.79     -807626.9      -9670.2142      0.36254951     0.056998879    29.666606      40.540842    
     98850   197.7          336.57455      136369.28     -807625.35     -9684.4465      0.36256678     0.057080048    29.645028      40.19121     
     98860   197.72         350.37916      133931.23     -807628.29     -9651.3046      0.36258391     0.056882023    29.709431      39.841573    
     98870   197.74         349.65195      133590.44     -807628.65     -9632.3592      0.3626009      0.056767704    29.735598      39.491934    
     98880   197.76         340.49204      132621.54     -807630.21     -9543.3005      0.36261774     0.05624023     29.695549      39.142304    
     98890   197.78         334.3473       135404.58     -807626.4      -9638.7178      0.36263445     0.056799923    29.65632       38.792681    
     98900   197.8          329.79294      135002.81     -807623.26     -9723.1536      0.362651       0.057294878    29.631967      38.443064    
     98910   197.82         340.73759      137560.63     -807624.14     -9744.7953      0.36266742     0.057419806    29.619983      38.093451    
     98920   197.84         340.33861      136637.69     -807625.29     -9711.5397      0.36268369     0.057221285    29.636064      37.743838    
     98930   197.86         344.02663      136148.5      -807625.33     -9731.0478      0.36269982     0.057333678    29.674913      37.394223    
     98940   197.88         348.13817      135173.54     -807626.83     -9708.3036      0.36271581     0.057197153    29.740471      37.044602    
     98950   197.9          336.92535      133946.4      -807627.97     -9627.5461      0.36273165     0.056718886    29.718384      36.694987    
     98960   197.92         338.98669      132791.79     -807631.12     -9543.9938      0.36274735     0.05622422     29.696941      36.345377    
     98970   197.94         327.23544      133395.82     -807628.22     -9594.0131      0.36276291     0.056516463    29.724067      35.995767    
     98980   197.96         340.34602      134388.75     -807627.54     -9684.0998      0.36277832     0.057044723    29.720673      35.646159    
     98990   197.98         328.47379      136422.15     -807625.1      -9718.9344      0.36279359     0.057247508    29.676899      35.296559    
     99000   198            329.09812      137391.85     -807625.4      -9718.9944      0.36280872     0.057245474    29.643089      34.946966    
     99010   198.02         332.69624      137244.82     -807624.85     -305.04469      0.3628237      0.057493048    29.73156       34.597365    
     99020   198.04         334.94845      137035.66     -807625.29     -305.20009      0.36283855     0.057519984    29.760171      34.247764    
     99030   198.06         332.10985      134602.09     -807628.41     -301.90434      0.36285324     0.056896541    29.768196      33.898164    
     99040   198.08         338.12005      132349.61     -807631.7      -299.63368      0.3628678      0.056466351    29.686547      33.548576    
     99050   198.1          334.0536       132404.74     -807632.1      -298.86028      0.36288221     0.056318364    29.618733      33.198998    
     99060   198.12         335.97328      133509.87     -807630.31     -301.10655      0.36289648     0.05673943     29.644065      32.84942     
     99070   198.14         330.2295       133458.95     -807629.13     -301.70281      0.36291061     0.056849573    29.702491      32.499838    
     99080   198.16         324.33743      135739.25     -807627.79     -302.26024      0.36292459     0.056952415    29.746056      32.150254    
     99090   198.18         327.87949      136662.2      -807625.86     -304.88642      0.36293843     0.057445055    29.738785      31.800674    
     99100   198.2          323.95441      137045.49     -807624.03     -306.23649      0.36295213     0.057697249    29.791367      31.451091    
     99110   198.22         332.44155      135488.63     -807627.09     -304.40392      0.36296568     0.057349837    29.812383      31.101508    
     99120   198.24         321.31957      134188.1      -807629.14     -300.86122      0.36297909     0.056680297    29.840304      30.751926    
     99130   198.26         333.88077      132341.78     -807631.07     -300.73311      0.36299236     0.056654093    29.797883      30.40235     
     99140   198.28         322.63439      133436.52     -807628.87     -301.37769      0.36300548     0.05677347     29.78144       30.052779    
     99150   198.3          324.37535      132602.08     -807630.43     -300.15406      0.36301846     0.056540941    29.731257      29.703216    
     99160   198.32         332.292        133626.25     -807630.49     -301.18063      0.3630313      0.056732312    29.701142      29.353658    
     99170   198.34         317.12642      136196.29     -807625.48     -304.12254      0.36304399     0.057284466    29.677244      29.004106    
     99180   198.36         337.63009      137527.73     -807625.65     -306.76221      0.36305655     0.057779677    29.708999      28.654552    
     99190   198.38         321.82389      136658.19     -807624.63     -305.52247      0.36306895     0.0575442      29.703563      28.305002    
     99200   198.4          337.5116       134967.48     -807629.48     -302.803        0.36308122     0.05703007     29.740804      27.955451    
     99210   198.42         330.58205      133376.02     -807628.87     -302.42559      0.36309334     0.056957087    29.716072      27.605905    
     99220   198.44         324.27694      133296.94     -807628.02     -302.38286      0.36310532     0.05694716     29.743714      27.256359    
     99230   198.46         329.38663      132921.32     -807631.37     -299.65949      0.36311715     0.056432434    29.728924      26.906817    
     99240   198.48         323.90426      132581.14     -807630.37     -299.76193      0.36312885     0.056449908    29.7528        26.557276    
     99250   198.5          324.36437      135064.37     -807626.97     -303.25335      0.3631404      0.057105581    29.787971      26.207734    
     99260   198.52         333.30078      136166.06     -807625.34     -306.07069      0.3631518      0.057634304    29.780759      25.858196    
     99270   198.54         336.25629      136618.63     -807626.5      -305.21017      0.36316306     0.057470482    29.760679      25.508662    
     99280   198.56         323.26405      135802.57     -807625.84     -303.9497       0.36317418     0.057231386    29.772479      25.15913     
     99290   198.58         343.75674      134953.58     -807628.45     -304.15046      0.36318516     0.057267458    29.767794      24.809601    
     99300   198.6          322.44698      134454.96     -807626.69     -302.87756      0.36319599     0.057026086    29.732986      24.460078    
     99310   198.62         334.93273      133206.22     -807630.53     -300.61561      0.36320668     0.056598539    29.784389      24.110553    
     99320   198.64         320.98074      133119.49     -807629.84     -299.30218      0.36321723     0.056349616    29.787698      23.761031    
     99330   198.66         333.79562      133953.73     -807629        -301.89196      0.36322763     0.056835566    29.808063      23.41151     
     99340   198.68         332.13384      135006.86     -807626.88     -303.64287      0.36323789     0.057163585    29.804129      23.061992    
     99350   198.7          334.72925      135332.67     -807626.51     -304.19724      0.36324801     0.057266355    29.800872      22.712477    
     99360   198.72         332.12612      136750.92     -807625.86     -304.37924      0.36325798     0.057299044    29.789303      22.362966    
     99370   198.74         336.84287      136301.01     -807626.08     -304.71417      0.36326781     0.057360543    29.800407      22.013457    
     99380   198.76         333.23892      135622.09     -807625.45     -304.63302      0.3632775      0.057343737    29.762714      21.663953    
     99390   198.78         334.55656      133492.53     -807629.48     -300.57242      0.36328704     0.05657789     29.722524      21.314455    
     99400   198.8          323.73107      134756.69     -807627.59     -300.68169      0.36329644     0.056596994    29.753029      20.964957    
     99410   198.82         335.01709      133408.79     -807628.7      -300.89065      0.3633057      0.056634882    29.717472      20.615465    
     99420   198.84         338.59418      134943.25     -807627.53     -302.24422      0.36331481     0.056888229    29.714561      20.265975    
     99430   198.86         341.57987      134045.62     -807626.87     -302.97348      0.36332378     0.057024083    29.751415      19.916485    
     99440   198.88         337.17842      137224.69     -807624.39     -304.50011      0.36333261     0.057310024    29.769904      19.566997    
     99450   198.9          352.5414       136388.95     -807625.42     -305.25495      0.36334129     0.057450721    29.742151      19.217514    
     99460   198.92         352.44698      135917.93     -807624.98     -305.27241      0.36334983     0.057452655    29.723419      18.868034    
     99470   198.94         335.2461       135037.05     -807624.75     -302.86489      0.36335823     0.05699824     29.648982      18.518561    
     99480   198.96         347.23023      134380.06     -807627.22     -301.7599       0.36336648     0.056788993    29.669981      18.16909     
     99490   198.98         341.85516      132801.37     -807627.17     -300.92839      0.3633746      0.056631246    29.68355       17.81962     
     99500   199            340.17866      135305.64     -807625.44     -302.21058      0.36338256     0.056871293    29.761334      17.470148    
     99510   199.02         341.38077      134526.97     -807625.95     -9659.1032      0.36339039     0.056801644    29.662642      17.120685    
     99520   199.04         345.7          136443.48     -807625        -9701.9074      0.36339807     0.057052155    29.710627      16.771221    
     99530   199.06         348.69573      135382.15     -807624.48     -9735.7597      0.3634056      0.057250036    29.693984      16.421761    
     99540   199.08         353.43142      137278.99     -807624.12     -9766.0135      0.363413       0.057426772    29.716503      16.072303    
     99550   199.1          349.28676      135305.36     -807626.51     -9675.0114      0.36342025     0.05689052     29.714536      15.722847    
     99560   199.12         341.21635      135749.8      -807625.44     -9676.1107      0.36342736     0.056895871    29.625345      15.373398    
     99570   199.14         353.24497      133623.52     -807627.33     -9677.825       0.36343432     0.056904861    29.696085      15.023948    
     99580   199.16         331.31204      135276.28     -807625.14     -9654.7745      0.36344114     0.05676826     29.735573      14.674498    
     99590   199.18         336.16265      133858.2      -807627.26     -9614.7193      0.36344782     0.056531705    29.726226      14.325052    
     99600   199.2          344.68673      135271.14     -807626.81     -9674.1424      0.36345435     0.056880072    29.746415      13.975607    
     99610   199.22         341.94479      136043.58     -807624.77     -9738.5574      0.36346074     0.0572578      29.712452      13.626167    
     99620   199.24         344.69754      137199.04     -807624.78     -9758.4357      0.36346699     0.057373688    29.7278        13.276728    
     99630   199.26         344.6338       135319.52     -807627.98     -9665.1037      0.3634731      0.056823998    29.692186      12.927294    
     99640   199.28         348.12674      135811.68     -807626.84     -9726.8792      0.36347906     0.057186257    29.637358      12.577864    
     99650   199.3          331.53813      134015.14     -807625.4      -9709.2         0.36348487     0.057081404    29.57926       12.22844     
     99660   199.32         337.28115      135070.71     -807627.3      -9678.343       0.36349055     0.056899104    29.618218      11.879016    
     99670   199.34         330.32321      133150.15     -807629.1      -9595.9596      0.36349608     0.056413912    29.627601      11.529593    
     99680   199.36         339.55688      135347        -807627.79     -9682.3884      0.36350147     0.056921177    29.616837      11.180174    
     99690   199.38         336.13393      134536.27     -807626.49     -9718.6059      0.36350671     0.05713327     29.639996      10.830756    
     99700   199.4          347.23205      136829.53     -807626.85     -9755.7618      0.36351181     0.057350895    29.62358       10.481342    
     99710   199.42         333.64551      135768.14     -807627.05     -9696.4064      0.36351677     0.057001187    29.65363       10.131928    
     99720   199.44         326.29836      137155.79     -807624.51     -9747.4134      0.36352158     0.057300277    29.584303      9.7825195    
     99730   199.46         324.68884      134539.44     -807624.36     -9750.9094      0.36352625     0.057320093    29.685101      9.4331099    
     99740   199.48         338.15153      134409.13     -807627.9      -9697.9956      0.36353078     0.057008332    29.687969      9.0837028    
     99750   199.5          326.96817      133144.59     -807629.27     -9607.7137      0.36353516     0.056476942    29.710356      8.7342976    
     99760   199.52         333.23445      133729.04     -807628.3      -9669.3051      0.3635394      0.056838331    29.702485      8.3848951    
     99770   199.54         339.65736      135143.09     -807627.89     -9717.1631      0.3635435      0.057119007    29.688468      8.0354956    
     99780   199.56         328.43756      135449.95     -807626.25     -9720.9955      0.36354745     0.057140913    29.669053      7.686099     
     99790   199.58         339.41569      135011.53     -807629.09     -9682.5739      0.36355126     0.056914471    29.684443      7.3367046    
     99800   199.6          337.60326      135426.71     -807627.54     -9726.9264      0.36355493     0.057174599    29.697982      6.9873124    
     99810   199.62         325.172        136112.73     -807623.83     -9793.7367      0.36355845     0.05756675     29.696879      6.6379227    
     99820   199.64         334.11832      134217.33     -807627.7      -9714.8991      0.36356183     0.057102819    29.639904      6.2885368    
     99830   199.66         343.3962       133651.59     -807631.1      -9649.4454      0.36356507     0.056717586    29.645998      5.9391531    
     99840   199.68         331.61485      134590.76     -807628.93     -9671.0372      0.36356816     0.056844015    29.685526      5.5897711    
     99850   199.7          329.01765      134163.45     -807627.2      -9720.4536      0.36357111     0.057134009    29.721241      5.240391     
     99860   199.72         329.35404      134065.59     -807628.75     -9675.3631      0.36357392     0.056868541    29.712427      4.8910137    
     99870   199.74         326.60692      135276.02     -807629.14     -9653.6254      0.36357658     0.056740359    29.62681       4.5416402    
     99880   199.76         322.65321      135146.44     -807626.1      -9738.0768      0.3635791      0.057236335    29.663263      4.1922685    
     99890   199.78         324.8821       136065.89     -807624.96     -9788.615       0.36358148     0.057533002    29.658562      3.8428994    
     99900   199.8          335.25227      134863.84     -807628.88     -9708.6752      0.36358371     0.057062802    29.716917      3.4935321    
     99910   199.82         331.462        134804.79     -807629.18     -9685.384       0.3635858      0.05692558     29.707366      3.1441674    
     99920   199.84         327.64827      135096.68     -807627.45     -9730.4738      0.36358775     0.057190288    29.692211      2.7948054    
     99930   199.86         319.83809      134169.15     -807626.62     -9724.9971      0.36358955     0.057157816    29.60897       2.4454466    
     99940   199.88         332.01587      133608.49     -807630.36     -9659.6744      0.36359121     0.056773628    29.542776      2.0960905    
     99950   199.9          319.40423      133996.02     -807629.07     -9648.4325      0.36359273     0.056707319    29.482772      1.746737     
     99960   199.92         329.87704      134784.35     -807627.57     -9746.159       0.3635941      0.057281477    29.5748        1.3973851    
     99970   199.94         325.62729      134737.23     -807626.88     -9751.5918      0.36359533     0.057313214    29.635021      1.0480353    
     99980   199.96         333.55972      135647.48     -807629.54     -9701.3447      0.36359641     0.057017725    29.604543      0.69868788   
     99990   199.98         316.57531      135064.69     -807627.7      -9686.1149      0.36359736     0.056928067    29.635757      0.34934275   
    100000   200            329.72836      134859.14     -807627.88     -9739.5204      0.36359816     0.05724182     29.664941      0            
Loop time of 3493.42 on 32 procs for 100000 steps with 1080 atoms

Performance: 4.946 ns/day, 4.852 hours/ns, 28.625 timesteps/s, 30.915 katom-step/s
62.2% CPU use with 32 MPI tasks x 1 OpenMP threads

MPI task timing breakdown:
Section |  min time  |  avg time  |  max time  |%varavg| %total
---------------------------------------------------------------
Pair    | 2525       | 2808.8     | 3087.9     | 268.4 | 80.40
Neigh   | 0.0016536  | 0.00177    | 0.0019201  |   0.2 |  0.00
Comm    | 331.25     | 610.64     | 894.4      | 575.7 | 17.48
Output  | 2.3268     | 2.3981     | 2.4063     |   0.9 |  0.07
Modify  | 64.928     | 65.264     | 65.831     |   3.0 |  1.87
Other   |            | 6.294      |            |       |  0.18

Nlocal:          33.75 ave          41 max          26 min
Histogram: 1 0 4 3 8 3 7 1 3 2
Nghost:        1029.94 ave        1044 max        1006 min
Histogram: 1 1 0 3 6 2 5 3 7 4
Neighs:              0 ave           0 max           0 min
Histogram: 32 0 0 0 0 0 0 0 0 0
FullNghs:      5362.12 ave        6585 max        4209 min
Histogram: 1 1 6 3 6 7 2 4 0 2

Total # of neighbors = 171588
Ave neighs/atom = 158.87778
Neighbor list builds = 4
Dangerous builds = 0

Total wall time: 1:01:55
