
units		metal
atom_style	atomic

read_data ${STRUCTURE}.data
read_data BaTiO3-sc333.data
Reading data file ...
  orthogonal box = (0 0 0) to (11.898253 11.898253 12.912076)
  2 by 4 by 4 MPI processor grid
  reading atoms ...
  135 atoms
  read_data CPU = 0.018 seconds
replicate $L $L $L
replicate 2 $L $L
replicate 2 2 $L
replicate 2 2 2
Replication is creating a 2x2x2 = 8 times larger system...
  orthogonal box = (0 0 0) to (23.796507 23.796507 25.824152)
  2 by 4 by 4 MPI processor grid
  1080 atoms
  replicate CPU = 0.003 seconds

pair_style allegro
pair_coeff	* * ${MODEL}.pth Ba Ti O
pair_coeff	* * BaTiO3-E0.pth Ba Ti O
mass 1 137.3
mass 2 47.9
mass 3 15.9994

timestep 0.002
compute polarization all allegro polarization 3
compute allegro will evaluate the quantity polarization of length 3 (src/compute_allegro.cpp:53)
compute polarizability all allegro polarizability 9
compute allegro will evaluate the quantity polarizability of length 9 (src/compute_allegro.cpp:53)

thermo_style custom pe fmax fnorm spcpu cpuremain

variable efield equal 1e-2*36.36
fix born all addbornforce 0.0 0.0 ${efield}
fix born all addbornforce 0.0 0.0 0.3636

thermo 10
min_style fire
#minimize 0.0 1e-6 100 100
velocity all create ${TEMP} ${SEED} dist gaussian rot yes mom yes
velocity all create 300 ${SEED} dist gaussian rot yes mom yes
velocity all create 300 9659 dist gaussian rot yes mom yes
fix nvt all nvt temp ${TEMP} ${TEMP} $(100*dt)
fix nvt all nvt temp 300 ${TEMP} $(100*dt)
fix nvt all nvt temp 300 300 $(100*dt)
fix nvt all nvt temp 300 300 0.2000000000000000111
run 5000
Neighbor list info ...
  update: every = 1 steps, delay = 0 steps, check = yes
  max neighbors/atom: 2000, page size: 100000
  master list distance cutoff = 8
  ghost atom cutoff = 8
  binsize = 8, bins = 3 3 4
  1 neighbor lists, perpetual/occasional/extra = 1 0 0
  (1) pair allegro/kk, perpetual
      attributes: full, newton on, kokkos_device
      pair build: full/bin/kk/device
      stencil: full/bin/3d
      bin: kk/device
Per MPI rank memory allocation (min/avg/max) = 3.516 | 3.516 | 3.516 Mbytes
    PotEng          Fmax          Fnorm          S/CPU         CPULeft    
-807708.29      1.5960252      37.043483      0              0            
-807647.68      3.5193785      44.905519      2.3515169      2122.0354    
-807636.4       2.4446772      35.132324      25.923822      1154.942     
-807603.76      3.738673       38.698818      25.928732      832.30829    
-807604.45      3.8568958      50.348427      25.868592      670.90986    
-807570.03      3.4130887      40.041565      25.841639      573.95603    
-807602.8       2.6007659      38.828832      25.913415      509.10292    
-807646.16      3.3858902      34.434488      25.926498      462.65533    
-807685.08      2.551187       34.183671      25.875343      427.77004    
-807668.59      3.2736581      34.043857      25.856129      400.56685    
-807652.91      3.3553502      34.556086      25.91502       378.68388    
-807659.33      2.3638865      26.608669      25.921372      360.70527    
-807628.56      3.2494852      31.182119      25.872958      345.68816    
-807587.65      3.2918465      39.580451      25.847214      332.93632    
-807570.03      3.295898       37.565946      25.923869      321.9112     
-807634.05      3.2188534      32.175039      25.91683       312.30805    
-807655.66      3.0068701      30.412917      25.929878      303.85119    
-807668.13      2.8261814      33.326048      25.889369      296.36102    
-807646.09      4.58796        44.857452      25.960357      289.6319     
-807681.13      2.8520417      35.355404      25.890465      283.59688    
-807641.82      3.7161868      39.100962      25.89038       278.12677    
-807618.14      2.9619305      39.134768      25.934185      273.12596    
-807560.42      4.705442       46.175635      25.923648      268.54812    
-807606.64      4.3054008      48.818056      25.889257      264.34543    
-807615.82      4.27427        39.313348      25.888077      260.46113    
-807645.29      3.0956741      35.294762      25.930972      256.84454    
-807643         5.2468612      46.351354      25.918819      253.47976    
-807683.63      2.6003864      37.04348       25.868443      250.34882    
-807662.74      3.2265233      35.412775      25.820673      247.42597    
-807639.99      3.3086923      31.304345      25.910222      244.65623    
-807606.07      3.3278681      33.471682      25.931874      242.04035    
-807604.53      3.7203655      41.760143      25.91093       239.5731     
-807597.97      3.1133693      35.486479      25.816469      237.25658    
-807614.35      2.6790045      32.078459      25.906411      235.03795    
-807644.13      3.0678879      30.040258      25.907681      232.92685    
-807675.1       2.5076478      31.264738      25.907634      230.91434    
-807677.94      2.3189133      32.037747      25.819015      229.00927    
-807647.7       3.7713947      36.673012      25.905281      227.17011    
-807647.37      2.6625689      29.73282       25.923747      225.40408    
-807621.62      3.4036805      32.750259      25.92762       223.70815    
-807601.68      3.7260077      42.488047      25.822615      222.09577    
-807574.1       3.9898142      39.741498      25.921095      220.52668    
-807627.04      2.8108642      33.670659      25.928775      219.0127     
-807652.2       3.327005       34.088426      25.914405      217.55347    
-807675.81      2.8539415      34.239261      25.92907       216.14076    
-807644.76      4.5792419      45.06425       25.92807       214.77385    
-807667.92      2.5986046      34.426084      25.931925      213.44903    
-807645.24      3.4213405      35.259882      25.909223      212.16744    
-807624.69      3.2052201      37.760688      25.900983      210.92432    
-807566.41      3.6601622      42.584698      25.897437      209.71667    
-807601.9       3.5431201      42.574995      25.906766      208.54063    
-807626.4       3.6213614      34.219506      25.84078       207.40425    
-807656.66      3.1237609      32.21997       25.870442      206.29287    
-807645.6       4.5401886      41.259887      25.909439      205.20393    
-807673.86      3.4288833      34.402595      25.915549      204.14028    
-807666.36      3.4873944      32.38425       25.859383      203.10806    
-807645.78      3.668928       30.003163      25.935119      202.08994    
-807601.12      4.3409781      33.893964      25.928488      201.09478    
-807597.47      3.5450826      37.744685      25.915709      200.12208    
-807605.86      3.9742198      37.225991      25.833451      199.17846    
-807626.07      3.4363812      30.097807      25.912379      198.24475    
-807640.21      3.3276514      31.972868      25.908477      197.32941    
-807667.64      3.2043732      31.825412      25.904976      196.43152    
-807676.98      3.0023082      33.810132      25.787051      195.56212    
-807650.53      5.4284804      35.974796      25.828269      194.70356    
-807634.77      3.0590514      32.266966      25.900838      193.85224    
-807612.91      4.4829562      34.363278      25.919476      193.0132     
-807603.11      4.5496853      44.053636      25.800605      192.19917    
-807583.3       4.784292       39.970611      25.862513      191.39179    
-807619.89      3.3312379      34.983014      25.91531       190.59168    
-807647.35      4.7193637      37.263082      25.916689      189.80328    
-807675.4       3.4374901      36.019639      25.821893      189.03479    
-807651.04      4.6875724      42.247562      25.829569      188.27619    
-807654.83      3.0573208      34.929172      25.884492      187.52297    
-807640.04      3.9668175      35.160252      25.902075      186.77816    
-807624.18      3.5225424      37.964495      25.872602      186.0454     
-807574.86      3.7540109      39.621017      25.843262      185.3242     
-807594.59      3.2691295      39.272014      25.869456      184.60953    
-807629.15      3.9554127      32.740423      25.876235      183.90273    
-807662.8       2.8408687      31.812596      25.883724      183.20344    
-807651.69      4.7898049      37.32923       25.895667      182.51104    
-807662.13      3.0798586      35.233856      25.760851      181.83666    
-807665.71      3.2410501      31.084364      25.862237      181.1615     
-807643.86      3.1052656      31.854332      25.878176      180.49209    
-807602.92      2.7585912      34.788013      25.89939       179.82786    
-807587.17      3.6478053      38.441049      25.930033      179.16794    
-807607.63      3.4419486      37.734191      25.847638      178.52031    
-807631.65      3.5441207      32.189915      25.866241      177.87736    
-807644         3.4770587      32.540594      25.924544      177.23617    
-807655.45      4.0182596      35.90633       25.914883      176.60138    
-807674.08      3.1931074      34.462575      25.812764      175.97907    
-807653.85      4.4788922      35.227784      25.874112      175.3578     
-807632.58      3.1603566      32.350562      25.901981      174.7398     
-807604.25      4.8792102      35.849346      25.887033      174.12775    
-807604.93      4.1455563      42.426351      25.890764      173.52026    
-807597.71      4.2762846      37.797935      25.853458      172.91981    
-807621.55      2.976166       34.654374      25.903125      172.32069    
-807643.08      4.3222565      36.384987      25.911656      171.72544    
-807672.72      2.5619622      35.226556      25.887712      171.13592    
-807658.31      3.9783625      36.7729        25.847778      170.55292    
-807649.44      3.0225509      33.802254      25.900693      169.97069    
-807632.59      3.2743538      33.212316      25.902712      169.39222    
-807623.25      3.4258914      36.361106      25.876104      168.81907    
-807589.75      3.1730933      37.574084      25.86626       168.25012    
-807595.64      2.8186513      37.107046      25.895755      167.68299    
-807630.3       2.6598211      30.909787      25.849836      167.12189    
-807661.07      2.1077779      31.806342      25.841023      166.56457    
-807661.9       2.933558       33.384979      25.841751      166.0104     
-807653.66      2.981775       35.355774      25.851231      165.4588     
-807656.75      2.545471       31.701548      25.899414      164.90765    
-807642.4       3.2147742      30.753049      25.944955      164.35709    
-807608.06      2.7474421      34.697066      25.907484      163.81146    
-807582.51      4.4873917      38.386101      25.833419      163.27252    
-807610.26      3.9899681      35.662846      25.858332      162.73499    
-807637.48      4.1479351      32.553979      25.85971       162.20004    
-807653.6       2.8611862      31.822365      25.900501      161.66562    
-807648.4       4.2565794      38.210084      25.909504      161.13331    
-807668.18      2.9566818      33.773624      25.856642      160.6061     
-807652.99      3.4434615      34.308519      25.864395      160.08088    
-807633.23      2.7568424      32.190078      25.825055      159.55988    
-807596.61      4.0068255      36.310597      25.959627      159.03476    
-807601.57      3.9335927      40.198691      25.925098      158.51355    
-807609.98      3.2856302      35.062061      25.841806      157.99842    
-807632.7       2.4253396      31.783719      25.893465      157.48301    
-807642.22      3.5243217      35.130622      25.929352      156.96805    
-807666.65      3.24082        33.970672      25.859668      156.45829    
-807661.85      3.2072838      34.009971      25.719561      155.95673    
-807647.97      2.5476157      31.658068      25.85308       155.45105    
-807625.35      3.5888388      32.186227      25.929864      154.9439     
-807615.45      3.0570366      35.441646      25.913734      154.43932    
-807598.55      3.1298413      37.401556      25.831401      153.94007    
-807603.91      2.6363525      35.168134      25.875828      153.44065    
-807627.62      3.3348723      31.991473      25.858286      152.94368    
-807658.36      2.8550799      32.214602      25.787427      152.4513     
-807663.74      3.0281077      33.803077      25.871728      151.95703    
-807652.94      3.3780487      35.10755       25.905018      151.46302    
-807647.12      3.6640055      32.766087      25.882667      150.97148    
-807635.14      4.0500274      32.586596      25.898777      150.48084    
-807610.36      3.4499323      36.635561      25.901611      149.99161    
-807586.43      3.5237755      38.584008      25.962291      149.50152    
-807607.88      3.1551927      35.724561      25.917547      149.01463    
-807640.35      3.4202393      32.406761      25.874458      148.53082    
-807656.99      2.561907       32.594412      25.832887      148.04994    
-807651.29      3.3678579      36.628088      25.882536      147.56852    
-807659.09      2.9910995      33.999789      25.900201      147.08778    
-807651.9       3.2942582      32.371096      25.830208      146.61089    
-807631.14      3.0796222      32.93205       25.839078      146.13492    
-807593.76      3.291268       36.987839      25.847792      145.65984    
-807597.54      3.2166086      38.38245       25.852566      145.18578    
-807615.56      3.5096477      35.075732      25.856259      144.71277    
-807641.75      3.4240265      31.899314      25.854643      144.24096    
-807643.73      4.0747549      35.292456      25.887436      143.76914    
-807661.24      3.7930089      34.061604      25.844577      143.29992    
-807659.92      3.2502389      34.833193      25.841709      142.83187    
-807647.35      2.8823801      32.802335      25.830007      142.36527    
-807616.62      3.7090032      34.406783      25.847153      141.89912    
-807604.99      2.5767573      36.170371      25.89075       141.43255    
-807602.14      3.655329       38.183137      25.783429      140.97051    
-807615.35      2.9761572      34.870914      25.828651      140.50795    
-807629.48      4.0844548      33.266302      25.899545      140.04406    
-807655.65      2.633519       32.380482      25.899789      139.58113    
-807661.9       3.3796256      34.877906      25.859612      139.12043    
-807654.17      3.0669691      33.978369      25.837087      138.66134    
-807637.22      3.6921111      33.887284      25.881652      138.20175    
-807625.86      2.9320249      33.254137      25.905145      137.74234    
-807609.65      4.5423891      37.236839      25.879439      137.2846     
-807595.13      3.6627408      37.475222      25.902717      136.82702    
-807611.58      4.4868986      34.744016      25.893943      136.37056    
-807641.22      3.4519424      31.830546      25.874795      135.91549    
-807658.57      3.5747902      32.827762      25.88132       135.46105    
-807653.34      3.135571       34.73748       25.883406      135.00735    
-807652.64      3.2322264      33.295057      25.872041      134.55477    
-807644.83      3.1909102      32.36999       25.919082      134.10161    
-807628.49      3.4747841      32.69168       25.807092      133.6524     
-807598.72      3.3193629      35.62651       25.86149       133.20237    
-807599.12      2.9970216      36.918845      25.896079      132.7521     
-807622.01      2.8207426      33.24824       25.842665      132.30403    
-807647.34      2.9019794      31.182535      25.932071      131.85422    
-807649.43      3.7153375      34.071385      25.863867      131.40697    
-807656.55      3.5119958      33.509912      25.839507      130.96105    
-807656.04      3.5664821      33.235903      25.873874      130.51487    
-807645.13      2.8216229      31.339519      25.861616      130.06967    
-807615.87      2.9544838      33.810243      25.889884      129.62438    
-807601.21      2.9941211      36.104634      25.871387      129.18021    
-807606.62      3.4140841      36.552093      25.868073      128.73676    
-807627.29      2.6594588      32.414428      25.893545      128.29327    
-807636.14      3.4508544      32.988553      25.885769      127.85059    
-807652.93      2.708896       32.553988      25.904418      127.40805    
-807661.55      4.0780775      33.144874      25.84964       126.96747    
-807655.19      2.7196662      31.850975      25.776099      126.52927    
-807634.39      4.5949819      32.169463      25.857632      126.08961    
-807617.86      2.9115598      32.784052      25.900051      125.64948    
-807609.22      3.2006675      35.285294      25.893334      125.21007    
-807606.64      2.8571247      35.656548      25.829485      124.77273    
-807620.69      2.8048913      32.531254      25.869311      124.33496    
-807642.21      2.885454       31.610979      25.890511      123.89723    
-807659.07      2.5078017      31.980318      25.875342      123.46037    
-807656.44      3.3971603      33.691231      25.894421      123.02359    
-807646.89      3.2920243      33.204344      25.915849      122.58683    
-807636.92      2.9775358      31.859521      25.940335      122.15003    
-807621.46      2.7886488      34.426644      25.906196      121.71451    
-807603.52      3.1278851      36.436254      25.914505      121.2793     
-807602.41      3.186005       35.770396      25.895144      120.845      
-807624.35      4.0214021      32.677475      25.888799      120.41131    
-807645.54      3.0965971      33.023361      25.827647      119.97941    
-807652.3       4.1665779      34.330316      25.851742      119.54743    
-807649.96      3.4219544      34.936049      25.831659      119.11632    
-807646.84      2.8365302      34.282217      25.818905      118.68591    
-807638.3       3.2427339      33.326734      25.855789      118.25513    
-807616.8       2.9919702      34.080573      25.883993      117.82419    
-807598.59      2.9343584      36.819301      25.898596      117.39337    
-807609.68      3.4239243      35.887745      25.86628       116.96364    
-807630.7       3.6769679      33.704626      25.854575      116.53455    
-807642.01      3.92455        34.005214      25.841192      116.10612    
-807649.07      3.4562148      35.025743      25.856354      115.67779    
-807654.63      3.4577676      34.456765      25.800709      115.25094    
-807649.9       3.1329991      33.330934      25.796795      114.82453    
-807630.4       3.3453372      33.304941      25.895453      114.39656    
-807610.45      2.6506886      34.289141      25.881869      113.96923    
-807605.63      2.751243       36.294208      25.838572      113.54311    
-807613.9       3.1667321      35.549047      25.808996      113.11791    
-807627.32      2.7993452      33.160845      25.881681      112.69167    
-807642.32      3.1026621      33.592207      25.890269      112.26564    
-807654.9       2.8243533      33.734336      25.802132      111.84159    
-807656.8       2.5632961      33.510406      25.765155      111.41856    
-807642.88      3.4530261      33.654005      25.761497      110.99591    
-807626.02      3.0846245      33.874983      25.830535      110.57231    
-807616.4       3.377798       35.010502      25.869981      110.14831    
-807606.62      3.6288488      36.932635      25.778059      109.72629    
-807611.95      3.0917027      34.888079      25.847747      109.30333    
-807627.51      3.3189906      32.973821      25.887044      108.87999    
-807650.44      3.2211279      31.92756       25.892671      108.45688    
-807654.67      2.8697259      33.601103      25.887849      108.03417    
-807652.03      3.9780995      32.688964      25.853016      107.61237    
-807639.97      3.0271293      33.126771      25.914012      107.18983    
-807633.7       2.8217768      32.172086      25.866579      106.7684     
-807615.25      3.535817       34.53873       25.847056      106.34759    
-807603.66      3.4396106      36.241308      25.876078      105.92659    
-807613.57      3.5030156      34.750856      25.931504      105.50497    
-807636.96      3.1996631      32.652532      25.927151      105.08372    
-807648.7       3.3695862      33.295335      25.900966      104.66319    
-807651.03      3.5940806      33.618462      25.91118       104.24278    
-807649.62      3.2846033      33.290035      25.883076      103.8231     
-807645.64      2.9182177      32.333265      25.887629      103.40363    
-807628.67      2.9253039      32.270757      25.888383      102.98441    
-807610.19      2.5840333      33.358838      25.889469      102.56545    
-807606.56      2.7761431      34.660478      25.883459      102.14684    
-807621.34      3.494598       33.610541      25.873464      101.72865    
-807636.81      2.8850825      32.477493      25.848227      101.3111     
-807643.01      3.5707857      33.822682      25.848708      100.89379    
-807652.29      3.1154033      34.054451      25.876653      100.47631    
-807650.75      3.1057935      33.956081      25.861814      100.05929    
-807643.08      2.9938169      32.63927       25.848335      99.642708    
-807620.55      3.4720905      34.035265      25.897354      99.225649    
-807613.27      3.3380413      35.648327      25.894235      98.808878    
-807609.15      2.8502374      36.292986      25.851163      98.392966    
-807618.63      3.4284011      34.873752      25.835909      97.977498    
-807630.62      3.112697       33.891131      25.883923      97.561572    
-807647.77      3.3795953      33.615002      25.852003      97.146323    
-807653.41      3.1807965      34.450963      25.793505      96.73211     
-807647.99      3.1580646      33.654419      25.793904      96.318096    
-807634.89      3.0794946      33.466989      25.828625      95.903806    
-807625.53      2.8442446      33.444026      25.833649      95.489654    
-807609.51      3.248001       36.348244      25.789895      95.076301    
-807607.22      3.0326039      36.544309      25.798836      94.66302     
-807614.57      2.9107889      35.383671      25.827511      94.249553    
-807636.66      3.5776715      33.561531      25.863556      93.835808    
-807648.43      2.9033654      34.413922      25.837798      93.422602    
-807651.07      3.3108702      34.602242      25.861692      93.009282    
-807644.3       3.1136086      34.508186      25.852666      92.596276    
-807637.91      2.6215963      33.823361      25.905521      92.182792    
-807623.68      3.3198703      34.335865      25.828532      91.770483    
-807608.68      3.364949       36.08958       25.860627      91.357956    
-807605.06      3.2859443      36.789788      25.819203      90.946135    
-807621.6       2.9529331      34.590925      25.836562      90.534277    
-807638.86      3.4177881      33.86267       25.855724      90.122366    
-807648.05      3.4173463      33.838687      25.915269      89.709915    
-807647.64      2.851651       34.688936      25.888256      89.29798     
-807647.58      4.3404839      33.566422      25.889647      88.886214    
-807638.15      2.9612072      32.879677      25.858983      88.474993    
-807619.35      3.5416524      34.888639      25.877069      88.063734    
-807608.58      3.5039723      36.002005      25.859721      87.652855    
-807610.69      4.1908369      36.614544      25.862117      87.242119    
-807627.59      3.9512382      33.55269       25.88549       86.831285    
-807636.27      3.539988       34.336974      25.873333      86.420763    
-807647.71      3.1363748      33.329876      25.85177       86.010652    
-807649.18      3.1054037      34.317086      25.849744      85.600727    
-807647.62      2.7856036      33.067177      25.862776      85.190817    
-807632.03      3.4612749      33.72487       25.827591      84.781457    
-807620.36      3.4173182      33.849342      25.793709      84.372622    
-807610.03      2.6328528      35.515611      25.819873      83.963648    
-807617.47      3.1921661      34.861317      25.799324      83.555045    
-807624.49      3.4505717      33.338473      25.850873      83.146035    
-807639.84      2.695727       33.305898      25.871131      82.736962    
-807649.1       4.1581967      33.253129      25.870425      82.32805     
-807649.65      2.9234481      34.06249       25.888242      81.919105    
-807641.78      3.4535995      33.417177      25.89158       81.510279    
-807632.63      2.9925015      33.507364      25.874694      81.101777    
-807619.2       3.285974       34.582963      25.902494      80.693141    
-807613.41      3.6043314      36.435488      25.894413      80.284738    
-807612.06      3.2442245      36.1291        25.847163      79.876954    
-807627.87      2.8360795      33.990938      25.885392      79.46893     
-807642.63      3.1442814      33.279515      25.88404       79.061064    
-807649.9       3.0862928      33.657426      25.849203      78.653678    
-807646.75      3.4854444      33.126433      25.841594      78.246501    
-807643.69      2.9752381      32.507743      25.875821      77.839129    
-807633.23      2.9948095      32.750082      25.89987       77.431666    
-807617.22      3.0113382      34.701729      25.875606      77.024569    
-807609.16      4.1409516      34.88278       25.887479      76.617497    
-807617.1       3.4264609      33.810522      25.912319      76.21033     
-807631.98      3.312284       32.4925        25.87057       75.803681    
-807643.42      3.3760539      32.870041      25.894001      75.39695     
-807648.78      3.1691258      33.126517      25.86886       74.990576    
-807647.95      2.8609955      33.882201      25.870019      74.584319    
-807644.23      3.8223635      32.587023      25.902569      74.177899    
-807628.26      3.5654843      33.777358      25.889927      73.77172     
-807613.75      3.7581062      35.70114       25.905348      73.365532    
-807608.45      3.8595368      36.186056      25.925001      72.959303    
-807619.88      3.5109737      35.026502      25.851723      72.553829    
-807630.29      3.4366049      33.784955      25.785961      72.149031    
-807642.23      3.815005       33.97159       25.84233       71.743864    
-807648.59      3.4386649      33.968999      25.872005      71.338562    
-807649.49      2.7699769      33.756309      25.875891      70.933345    
-807638.51      4.0069851      33.595114      25.888004      70.528146    
-807625.32      3.54806        33.916085      25.894535      70.12301     
-807614.31      3.8837867      34.16202       25.850887      69.718341    
-807612.45      3.5717437      35.714291      25.847649      69.313808    
-807615.93      2.7878858      34.979827      25.835364      68.909481    
-807631.47      3.6309541      33.309087      25.868743      68.504997    
-807643.84      2.9236225      32.8848        25.822365      68.100982    
-807646.87      2.9155565      34.585577      25.815102      67.697126    
-807644.14      3.2591508      33.895759      25.870687      67.292943    
-807636.65      3.7595319      33.667934      25.85895       66.888956    
-807626.5       3.2048297      33.548934      25.875475      66.484949    
-807614.53      3.7181031      35.757965      25.855308      66.081197    
-807610.76      2.7526758      35.034545      25.834749      65.677697    
-807618.82      3.3271373      34.609538      25.816693      65.274428    
-807635.43      3.6667987      32.822312      25.799184      64.87138     
-807643.34      3.5729827      34.084473      25.798301      64.46843     
-807648.58      2.9530595      33.533292      25.898774      64.064856    
-807643.42      3.508811       34.082715      25.863407      63.661633    
-807638.13      2.9122927      33.598808      25.812844      63.258861    
-807625.57      2.8353675      32.632446      25.811067      62.856191    
-807613.42      2.8133915      34.784761      25.883679      62.453112    
-807610.36      3.2599571      35.514286      25.853235      62.050337    
-807623.73      3.3253694      34.651484      25.839556      61.647746    
-807636.33      3.6722167      33.854889      25.874839      61.245011    
-807645.02      3.4895767      34.04473       25.87381       60.842376    
-807646.87      3.3386643      34.860719      25.884676      60.439763    
-807646.19      2.6054128      33.899659      25.861463      60.037394    
-807636.43      3.4311867      33.021573      25.807154      59.635463    
-807620.26      3.9403549      35.243308      25.837938      59.233418    
-807613.16      3.0217845      34.40338       25.838833      58.831453    
-807615.33      3.1642379      34.995163      25.787261      58.429895    
-807624.38      3.013308       33.390805      25.829785      58.028151    
-807637.53      3.1032736      33.248412      25.914861      57.62597     
-807646.67      2.6410339      32.675461      25.91147       57.223902    
-807648.43      2.7248812      33.855382      25.890213      56.822051    
-807644.93      3.0504567      33.466002      25.850197      56.420524    
-807633.72      3.3839631      33.430936      25.856261      56.019043    
-807622.34      3.3041332      33.703413      25.857587      55.617637    
-807612.54      3.3659546      35.66221       25.823594      55.216507    
-807617.74      3.2040124      34.926572      25.932617      54.814834    
-807626.19      3.1830372      33.65718       25.918304      54.41333     
-807638.55      3.3522584      33.026814      25.94854       54.011744    
-807645.18      3.9207392      34.147539      25.938339      53.610302    
-807647.07      3.1094695      34.375         25.911972      53.209092    
-807643.25      4.2688476      33.300283      25.904813      52.808003    
-807631.89      2.5346325      33.102993      25.878098      52.407139    
-807621.44      3.212622       33.873427      25.869565      52.006398    
-807615.64      3.2490905      35.010677      25.859179      51.605789    
-807617.3       3.1737438      34.815027      25.819459      51.205462    
-807628.52      3.4129811      33.448404      25.874633      50.80492     
-807639.73      3.5483602      33.680798      25.909304      50.404278    
-807645.67      2.9289981      34.441773      25.888565      50.003818    
-807645.62      3.6719504      33.786972      25.879057      49.603481    
-807640.2       3.6202976      33.176118      25.85486       49.203338    
-807632.66      3.8096373      32.249039      25.855196      48.803264    
-807620.91      2.8058709      33.82199       25.915537      48.40297     
-807613.48      2.9545477      34.562657      25.870299      48.002967    
-807618         2.4651182      33.566136      25.881252      47.602983    
-807630.22      3.1693595      33.173346      25.882901      47.203064    
-807641.56      3.0532408      32.624254      25.883458      46.803212    
-807643.77      2.7178767      33.879546      25.851063      46.403579    
-807646.17      3.4013036      32.922307      25.862597      46.003961    
-807640.64      2.8794531      33.122944      25.910756      45.604195    
-807630.05      2.8197945      32.843042      25.882059      45.204627    
-807615.85      2.7244444      34.84887       25.833535      44.80534     
-807613.25      2.8725169      34.782353      25.856674      44.406015    
-807618.89      3.4333008      34.927148      25.886729      44.006627    
-807630.76      2.7928529      33.546008      25.911319      43.607202    
-807639.81      3.1104369      33.495657      25.915296      43.20783     
-807646.12      2.8208133      33.911881      25.882583      42.808661    
-807646.93      3.3607982      33.152404      25.923408      42.409392    
-807639.48      3.6283545      33.520847      25.896018      42.010301    
-807625.4       3.3647666      33.491672      25.883018      41.611327    
-807616.07      3.7851286      34.45168       25.899606      41.212352    
-807613.76      4.0986849      35.946645      25.938713      40.813291    
-807620.27      3.5046725      34.401428      25.875627      40.414539    
-807630.94      2.8657837      33.165198      25.886116      40.015808    
-807640.74      3.4129878      33.5307        25.855554      39.617254    
-807647.47      2.6003077      33.479892      25.897868      39.218603    
-807644.04      3.5230129      33.771231      25.894201      38.820027    
-807635.92      3.4590722      34.024571      25.888437      38.421534    
-807626.18      2.8592382      33.961355      25.920419      38.022987    
-807618.74      2.7220941      34.343387      25.877199      37.624655    
-807615.73      2.750847       35.024324      25.856292      37.226454    
-807619.96      2.7522696      34.828718      25.857048      36.828306    
-807634.7       3.1348251      33.264134      25.890792      36.430101    
-807640.22      3.3768419      33.846848      25.832472      36.032148    
-807645.56      2.995612       33.140856      25.866288      35.634137    
-807642.94      3.2843833      33.352788      25.869662      35.236171    
-807637.28      3.0277895      33.325506      25.868372      34.838264    
-807627.73      2.8962978      33.779828      25.84949       34.440471    
-807619.49      3.4352822      34.47041       25.859         34.042702    
-807617.11      3.0148953      34.455781      25.897732      33.644868    
-807625.15      3.3131829      33.424389      25.82328       33.247314    
-807633.54      3.0962274      33.157699      25.869919      32.849671    
-807642.79      3.1849557      33.019665      25.930746      32.451904    
-807643.73      3.0899714      32.931668      25.923882      32.054214    
-807643.99      2.8661735      33.244689      25.884993      31.656691    
-807636.89      2.9880148      32.587454      25.894055      31.259196    
-807626.93      2.8439014      32.638602      25.910714      30.861709    
-807617.76      3.0905461      34.864607      25.915976      30.464262    
-807617.3       3.1556667      35.357163      25.940241      30.066805    
-807625.27      2.8745799      33.380689      25.874744      29.669576    
-807635.12      4.3387313      33.594749      25.889046      29.272361    
-807641.7       2.9885195      33.986692      25.931878      28.875088    
-807646.4       3.5510659      33.21286       25.915563      28.47791     
-807642.93      4.3024812      33.386035      25.878186      28.080878    
-807634.82      3.2554826      33.343846      25.875604      27.6839      
-807623.92      4.2416564      34.074501      25.879626      27.286962    
-807616.68      3.9076828      35.912821      25.889121      26.890051    
-807619.52      3.1507404      34.213791      25.857417      26.493262    
-807624         3.8526257      34.059832      25.843835      26.09655     
-807637.42      2.5760459      33.534309      25.873056      25.699818    
-807642.93      3.1901827      34.301159      25.888058      25.3031      
-807646.71      3.5440658      33.820545      25.874884      24.906458    
-807640.33      2.8655667      34.339831      25.885021      24.509841    
-807633.17      3.2892544      34.240789      25.912557      24.113214    
-807622.56      2.9756163      34.309391      25.864157      23.716734    
-807615.98      3.1725004      35.783243      25.873462      23.32028     
-807618.33      3.7467819      34.683836      25.848515      22.92392     
-807627.77      3.0490667      34.332872      25.888713      22.527526    
-807636.72      3.2273627      33.799293      25.823113      22.131301    
-807642.51      3.328092       33.972725      25.885344      21.735001    
-807643.74      3.3008845      34.432088      25.923953      21.338677    
-807637.91      3.8865869      35.191489      25.85829       20.942516    
-807631.92      2.9356545      34.575761      25.853005      20.546406    
-807620.65      3.2199294      34.761247      25.893704      20.150269    
-807616.21      3.0105052      35.566004      25.870326      19.754214    
-807620.26      3.9108203      34.504324      25.872869      19.358198    
-807629.14      2.9894882      33.812305      25.875604      18.962219    
-807636.2       2.8537697      33.698527      25.88255       18.566272    
-807641.78      3.2943622      33.90064       25.843849      18.170425    
-807641.48      3.1919981      34.51011       25.865919      17.774585    
-807637.51      3.0588039      34.770827      25.861732      17.378792    
-807628.78      3.2006998      34.677306      25.843751      16.983063    
-807621.66      3.0402097      35.451139      25.844353      16.587373    
-807616.52      3.9713438      35.965085      25.89244       16.191656    
-807620.72      3.7683818      36.234347      25.907052      15.795962    
-807627.11      3.5210952      35.189702      25.914925      15.400299    
-807637.55      2.9174161      33.655536      25.871354      15.004733    
-807640.85      3.957235       34.591831      25.860663      14.609218    
-807641.7       3.3174266      34.370207      25.921479      14.213672    
-807635.27      3.547131       34.137106      25.872322      13.818222    
-807629.29      3.7299746      33.356835      25.836337      13.42285     
-807618.63      3.0467896      35.106629      25.853084      13.027495    
-807615.6       3.2656317      35.232304      25.920362      12.632109    
-807621.7       3.1208427      34.470902      25.883317      12.2368      
-807630.1       3.5595902      34.357562      25.858902      11.841553    
-807637.58      3.0177904      34.023091      25.848044      11.446351    
-807641.6       3.0978579      34.821321      25.863344      11.051172    
-807642.94      4.2450261      34.380794      25.900609      10.655997    
-807635.14      2.9964004      34.901863      25.868554      10.260886    
-807627.81      3.372318       34.063222      25.848636      9.8658269    
-807618.01      3.3864596      35.488531      25.906377      9.4707588    
-807619.8       3.1998366      34.398899      25.901457      9.0757323    
-807622.9       3.4761438      34.413599      25.892093      8.6807496    
-807633.68      2.9770505      33.488688      25.935847      8.285775     
-807639.23      3.4326792      33.871596      25.879402      7.8908745    
-807645.87      2.8129946      33.414157      25.906363      7.4959935    
-807640.99      4.9127046      34.555199      25.921085      7.1011412    
-807635.78      2.9992016      33.91121       25.939653      6.7063167    
-807625.53      3.2449412      34.730002      25.907666      6.3115463    
-807619.37      3.1363774      35.043158      25.823979      5.916851     
-807620.29      3.3114628      34.61754       25.857333      5.5221718    
-807625.64      2.6991981      33.531857      25.898959      5.1275088    
-807635.53      3.4681827      33.003694      25.92254       4.7328721    
-807641.03      2.8698567      33.464838      25.899156      4.3382795    
-807642.96      3.2092255      33.489626      25.830907      3.9437424    
-807641.28      2.6839113      33.175089      25.851409      3.5492298    
-807633.9       4.2304487      33.378956      25.809153      3.1547588    
-807627.71      3.4909895      33.224798      25.85244       2.7603069    
-807620.17      3.2718521      34.526969      25.898749      2.3658777    
-807620.68      4.5271293      34.474941      25.90581       1.9714809    
-807627.08      2.7480439      33.693199      25.898397      1.5771188    
-807634.03      3.7968819      33.732799      25.903378      1.1827894    
-807642.91      2.7043792      33.092629      25.83018       0.78849769   
-807640.6       3.399797       33.958427      25.844983      0.39423416   
-807641.17      3.168923       33.02134       25.785969      0            
Loop time of 197.111 on 32 procs for 5000 steps with 1080 atoms

Performance: 4.383 ns/day, 5.475 hours/ns, 25.366 timesteps/s, 27.396 katom-step/s
67.0% CPU use with 32 MPI tasks x 1 OpenMP threads

MPI task timing breakdown:
Section |  min time  |  avg time  |  max time  |%varavg| %total
---------------------------------------------------------------
Pair    | 102.19     | 144.89     | 192.84     | 309.6 | 73.50
Neigh   | 0          | 0          | 0          |   0.0 |  0.00
Comm    | 1.9789     | 49.922     | 92.617     | 527.4 | 25.33
Output  | 0.026301   | 0.027725   | 0.029842   |   0.3 |  0.01
Modify  | 1.9467     | 1.9627     | 1.974      |   0.4 |  1.00
Other   |            | 0.3125     |            |       |  0.16

Nlocal:          33.75 ave          48 max          21 min
Histogram: 8 8 0 0 0 0 0 8 0 8
Nghost:        1106.25 ave        1119 max        1092 min
Histogram: 8 0 8 0 0 0 0 0 8 8
Neighs:              0 ave           0 max           0 min
Histogram: 32 0 0 0 0 0 0 0 0 0
FullNghs:       5494.5 ave        7896 max        3378 min
Histogram: 8 8 0 0 0 0 0 8 0 8

Total # of neighbors = 175824
Ave neighs/atom = 162.8
Neighbor list builds = 0
Dangerous builds = 0

reset_timestep 0


variable interval equal 1000
thermo 10

variable nintervals equal $(v_PERIOD/v_interval)
variable nintervals equal 100
variable efield equal 1e-2*36.36*cos((step/${PERIOD})*2*3.14)
variable efield equal 1e-2*36.36*cos((step/100000)*2*3.14)
fix born all addbornforce 0.0 0.0 v_efield

variable Px equal f_born[1]+c_polarization[1]
variable Py equal f_born[2]+c_polarization[2]
variable Pz equal (f_born[3]+c_polarization[3])/vol
variable pe equal pe

fix aveP all ave/time 1 $(v_interval/2) ${interval} v_efield v_Pz v_pe f_born file Pz.${MODEL}.${STRUCTURE}.${TEMP}.$L.${ITER}
fix aveP all ave/time 1 500 ${interval} v_efield v_Pz v_pe f_born file Pz.${MODEL}.${STRUCTURE}.${TEMP}.$L.${ITER}
fix aveP all ave/time 1 500 1000 v_efield v_Pz v_pe f_born file Pz.${MODEL}.${STRUCTURE}.${TEMP}.$L.${ITER}
fix aveP all ave/time 1 500 1000 v_efield v_Pz v_pe f_born file Pz.BaTiO3-E0.${STRUCTURE}.${TEMP}.$L.${ITER}
fix aveP all ave/time 1 500 1000 v_efield v_Pz v_pe f_born file Pz.BaTiO3-E0.BaTiO3-sc333.${TEMP}.$L.${ITER}
fix aveP all ave/time 1 500 1000 v_efield v_Pz v_pe f_born file Pz.BaTiO3-E0.BaTiO3-sc333.300.$L.${ITER}
fix aveP all ave/time 1 500 1000 v_efield v_Pz v_pe f_born file Pz.BaTiO3-E0.BaTiO3-sc333.300.2.${ITER}
fix aveP all ave/time 1 500 1000 v_efield v_Pz v_pe f_born file Pz.BaTiO3-E0.BaTiO3-sc333.300.2.0

thermo_style custom step time temp press pe f_born v_efield v_Pz spcpu cpuremain

# dump 4a all custom 1000 dump.hyst.${MODEL}.${STRUCTURE}.${TEMP}.$L.${ITER}.bin id type xu yu zu fx fy fz
# dump_modify 4a sort id

fix nvt all nvt temp ${TEMP} ${TEMP} $(100*dt)
fix nvt all nvt temp 300 ${TEMP} $(100*dt)
fix nvt all nvt temp 300 300 $(100*dt)
fix nvt all nvt temp 300 300 0.2000000000000000111

run $(v_PERIOD)
run 100000
WARNING: non-constant efield is experimental, strongly distrust scalar/vector output (src/fix_addbornforce.cpp:193)
Per MPI rank memory allocation (min/avg/max) = 3.516 | 3.516 | 3.516 Mbytes
   Step          Time           Temp          Press          PotEng         f_born        v_efield         v_Pz          S/CPU         CPULeft    
         0   0              293.60431      125665.79     -807641.17     -293.98782      0.3636         0.055290813    0              0            
        10   0.02           301.31624      134373.43     -807632.26     -303.94681      0.36359993     0.057163829    28.193         3546.6432    
        20   0.04           306.14427      137466.66     -807626.69     -310.29943      0.36359971     0.058358613    28.194471      3546.1876    
        30   0.06           296.69526      144848.54     -807618.98     -316.59775      0.36359935     0.05954321     28.246533      3543.6202    
        40   0.08           296.14302      139850.26     -807622.92     -312.76421      0.36359885     0.058822308    28.210614      3543.2873    
        50   0.1            295.24356      139224.91     -807626.2      -309.1936       0.36359821     0.058150879    28.190729      3543.4447    
        60   0.12           300.98979      128915.68     -807637.59     -298.73558      0.36359742     0.056184132    28.252864      3542.131     
        70   0.14           292.16576      127581.33     -807640.68     -294.20825      0.36359649     0.055332804    28.269091      3540.8024    
        80   0.16           279.57468      123263.72     -807642.92     -290.32617      0.36359541     0.05460285     28.253885      3539.9551    
        90   0.18           296.0463       128747.66     -807638.97     -296.48946      0.36359419     0.055762193    28.213827      3539.7758    
       100   0.2            293.54256      132539.74     -807631.39     -303.75661      0.36359283     0.057129174    28.210314      3539.6052    
       110   0.22           304.99527      141309.2      -807623.86     -312.72483      0.36359132     0.05881612     28.21887       3539.3031    
       120   0.24           282.22819      142623.86     -807619.35     -314.05782      0.36358968     0.059067091    28.21271       3539.0566    
       130   0.26           302.881        142337.13     -807622.21     -313.81583      0.36358788     0.05902187     28.218765      3538.7359    
       140   0.28           308.40249      134871.62     -807629.95     -306.76119      0.36358595     0.057695354    28.238633      3538.2323    
       150   0.3            306.31573      129782.4      -807636.99     -299.08487      0.36358387     0.056251921    28.258569      3537.5822    
       160   0.32           295.99869      124939.49     -807642.47     -291.93079      0.36358165     0.054906716    28.255067      3536.9968    
       170   0.34           294.82753      125252.39     -807642.73     -291.27285      0.36357928     0.054783327    28.241151      3536.5405    
       180   0.36           303.38994      128727.23     -807637.69     -297.29198      0.36357677     0.055915805    28.233816      3536.1467    
       190   0.38           299.85186      134870.95     -807628.49     -305.73369      0.36357412     0.057503973    28.202273      3535.9654    
       200   0.4            307.02226      142035.82     -807621.82     -313.11443      0.36357132     0.058892634    28.219098      3535.6612    
       210   0.42           300.18398      142726.42     -807619.59     -314.1077       0.36356838     0.059079933    28.197275      3535.4827    
       220   0.44           304.92971      141703.42     -807620.73     -313.2848       0.3635653      0.058925655    28.162783      3535.4848    
       230   0.46           313.46933      134251.54     -807629.96     -305.06229      0.36356207     0.057379594    28.205601      3535.2222    
       240   0.48           310.2174       129694.42     -807636.48     -297.69886      0.3635587      0.055995116    28.266468      3534.6346    
       250   0.5            309.64425      123871.7      -807643.01     -290.93361      0.36355519     0.054723148    28.198996      3534.4035    
       260   0.52           300.31712      127531.1      -807638.81     -293.58582      0.36355153     0.05522257     28.205679      3534.1306    
       270   0.54           310.70835      129198.84     -807636.3      -297.58026      0.36354773     0.055974497    28.215145      3533.8078    
       280   0.56           315.43959      137673.96     -807626.97     -307.37971      0.36354379     0.057818388    28.202846      3533.5379    
       290   0.58           308.62266      140203.02     -807621.43     -311.9968       0.3635397      0.058687528    28.219104      3533.1916    
       300   0.6            307.04575      144775.53     -807617.52     -315.64906      0.36353547     0.059375218    28.213783      3532.8672    
       310   0.62           302.81272      139909.89     -807622.02     -310.6652       0.3635311      0.058438432    28.178485      3532.6834    
       320   0.64           315.63043      135579.51     -807629.02     -305.32237      0.36352658     0.057434121    28.223215      3532.314     
       330   0.66           304.78876      127737.18     -807637.63     -295.33608      0.36352192     0.055556314    28.26442       3531.7894    
       340   0.68           303.44525      126835.51     -807639.89     -292.8474       0.36351712     0.05508889     28.262362      3531.2824    
       350   0.7            299.45065      125537.63     -807640.13     -292.25534      0.36351217     0.054978264    28.256375      3530.8055    
       360   0.72           313.94932      131160.56     -807634.74     -299.72724      0.36350708     0.056384647    28.230913      3530.4238    
       370   0.74           315.07244      137103.58     -807627.83     -307.04356      0.36350185     0.057761823    28.258454      3529.9506    
       380   0.76           311.33651      142996.45     -807621.77     -312.67907      0.36349647     0.058822859    28.260412      3529.4772    
       390   0.78           299.15468      142465.87     -807618.98     -313.99686      0.36349095     0.059071666    28.233958      3529.0945    
       400   0.8            319.07072      138914.1      -807625.39     -310.51815      0.36348529     0.058418132    28.187591      3528.8586    
       410   0.82           302.13543      133706.81     -807630.11     -303.60576      0.36347948     0.057118609    28.177112      3528.6488    
       420   0.84           307.1987       129136.03     -807638.87     -295.68172      0.36347353     0.055628737    28.202704      3528.3557    
       430   0.86           287.47089      125780.08     -807639.93     -292.03089      0.36346744     0.054942801    28.194401      3528.084     
       440   0.88           292.5958       127177.78     -807639        -293.77131      0.3634612      0.055271193    28.162359      3527.8998    
       450   0.9            309.13222      131347.16     -807635.11     -300.11141      0.36345482     0.056465033    28.181954      3527.6534    
       460   0.92           308.97065      136635.72     -807627.38     -307.98791      0.3634483      0.057948013    28.212373      3527.3194    
       470   0.94           308.67224      142039.57     -807622.53     -312.93151      0.36344163     0.058879234    28.238229      3526.9159    
       480   0.96           295.61966      141758.88     -807620.51     -313.22638      0.36343482     0.058935818    28.223495      3526.5528    
       490   0.98           316.22323      139133.79     -807626.35     -310.32135      0.36342786     0.058390334    28.255275      3526.1092    
       500   1              302.84896      132640.92     -807633.03     -301.84575      0.36342077     0.056796666    28.271667      3525.6282    
       510   1.02           297.91448      128737.99     -807638.38     -9465.8573      0.36341353     0.055661692    28.185493      3525.3631    
       520   1.04           296.15794      124491.53     -807642.71     -9324.4151      0.36340614     0.054831089    28.181119      3525.1052    
       530   1.06           292.52833      128167.86     -807637.44     -9475.7462      0.36339862     0.055722127    28.189828      3524.8231    
       540   1.08           303.14016      130737.77     -807634.94     -9608.6946      0.36339095     0.056505124    28.178172      3524.5651    
       550   1.1            306.98197      138501.3      -807626.79     -9886.1018      0.36338313     0.058137701    28.193586      3524.2688    
       560   1.12           296.65863      140725.13     -807621.85     -10003.089      0.36337518     0.058826964    28.139777      3524.0908    
       570   1.14           296.99759      143045.46     -807620.59     -10042.717      0.36336707     0.059061328    28.131556      3523.9246    
       580   1.16           298.74802      136229.6      -807627.16     -9843.1303      0.36335883     0.057888868    28.131799      3523.7515    
       590   1.18           306.8937       132496.2      -807634.12     -9652.7822      0.36335044     0.056770713    28.149575      3523.5341    
       600   1.2            297.55919      126579.23     -807639.58     -9439.713       0.36334191     0.055518897    28.164465      3523.2813    
       610   1.22           296.97387      126608.42     -807640.81     -9397.0499      0.36333324     0.055269297    28.150798      3523.053     
       620   1.24           289.82457      128186.08     -807638.13     -9454.5954      0.36332442     0.055609104    28.191854      3522.7378    
       630   1.26           306.49157      133782.53     -807632.76     -9701.1966      0.36331546     0.057060945    28.208166      3522.389     
       640   1.28           304.21347      138006.02     -807625.74     -9918.5303      0.36330636     0.058340731    28.203871      3522.0484    
       650   1.3            304.97236      141386.79     -807623.09     -10005.345      0.36329711     0.058852875    28.204721      3521.7056    
       660   1.32           303.76124      140045.85     -807624.37     -9959.7149      0.36328772     0.058585983    28.198305      3521.3747    
       670   1.34           305.78226      135927.16     -807628.56     -9835.0948      0.36327819     0.05785445     28.182648      3521.0723    
       680   1.36           301.53303      132051.61     -807634.4      -9627.7885      0.36326851     0.056636489    28.192697      3520.7499    
       690   1.38           295.9888       127236.39     -807640.38     -9410.4475      0.36325869     0.055359454    28.204299      3520.4056    
       700   1.4            289.46366      127380.43     -807640.34     -9381.9245      0.36324873     0.055193174    28.193647      3520.0799    
       710   1.42           286.12842      128494.49     -807636.78     -9482.4929      0.36323863     0.055786362    28.155969      3519.8198    
       720   1.44           311.68976      133891.07     -807632.24     -9739.9775      0.36322838     0.057302784    28.142089      3519.5813    
       730   1.46           315.57588      137455.72     -807628.29     -9885.7575      0.36321798     0.05816211     28.167301      3519.2963    
       740   1.48           285.07838      142456.94     -807619.95     -10014.448      0.36320745     0.058920957    28.153416      3519.0328    
       750   1.5            308.21597      138880.61     -807625.36     -9946.9197      0.36319677     0.058525371    28.117336      3518.8272    
       760   1.52           307.19454      136801.57     -807628.73     -9831.5928      0.36318595     0.057848538    28.113571      3518.6238    
       770   1.54           301.47264      130129.88     -807636.06     -9571.7404      0.36317498     0.056321282    28.127704      3518.3937    
       780   1.56           290.64403      127467.67     -807639.06     -9425.3461      0.36316387     0.055461576    28.162969      3518.1035    
       790   1.58           287.97463      125996.44     -807639.48     -9400.5127      0.36315262     0.055317163    28.16416       3517.8099    
       800   1.6            299.37128      130014.58     -807636.55     -9543.1557      0.36314122     0.056158306    28.176098      3517.4961    
       810   1.62           304.99111      133785.48     -807631.45     -9731.6074      0.36312968     0.057269101    28.173908      3517.1846    
       820   1.64           301.13855      139526.1      -807624.56     -9931.1838      0.363118       0.05844546     28.167905      3516.8812    
       830   1.66           298.76022      140752.5      -807622.52     -9984.8608      0.36310618     0.058763265    28.197944      3516.5314    
       840   1.68           308.4927       139908.74     -807625.07     -9942.3185      0.36309421     0.058514822    28.191892      3516.1904    
       850   1.7            310.56791      134491.75     -807630.59     -9771.0271      0.3630821      0.057508617    28.153383      3515.9058    
       860   1.72           294.31945      130250.47     -807634.5      -9569.0355      0.36306984     0.05632167     28.154297      3515.6181    
       870   1.74           302.23453      126745.62     -807640.85     -9397.3202      0.36305745     0.055312873    28.161944      3515.3179    
       880   1.76           290.87172      127555.18     -807638.92     -9404.0438      0.3630449      0.055354361    28.183957      3514.9852    
       890   1.78           299.11798      130429.93     -807634.95     -9564.8555      0.36303222     0.056302902    28.199494      3514.6303    
       900   1.8            303.0131       135346.36     -807629.02     -9768.2054      0.36301939     0.05750194     28.212746      3514.257     
       910   1.82           304.39283      140292.36     -807623.56     -9945.021       0.36300642     0.058544882    28.207477      3513.8914    
       920   1.84           307.49861      140651.51     -807622.8      -9978.687       0.36299331     0.058745191    28.186237      3513.5547    
       930   1.86           312.2399       139408.05     -807624.81     -9930.3937      0.36298005     0.05846302     28.199882      3513.1994    
       940   1.88           304.56414      135018.28     -807629.83     -9731.9065      0.36296665     0.057296586    28.167035      3512.8877    
       950   1.9            294.35035      129765.98     -807634.11     -9543.2876      0.36295311     0.056188189    28.186049      3512.5502    
       960   1.92           299.83264      126133.54     -807640.6      -9356.9749      0.36293942     0.055093309    28.16995       3512.2331    
       970   1.94           297.66087      127434.77     -807637.85     -9430.1074      0.36292559     0.055526025    28.133518      3511.9622    
       980   1.96           308.56036      130029.21     -807634.21     -9594.8125      0.36291162     0.056498011    28.1567        3511.66      
       990   1.98           308.72813      136262.79     -807628.66     -9768.7854      0.3628975      0.057524669    28.182725      3511.3239    
      1000   2              308.35755      140401.5      -807623.9      -9916.4736      0.36288325     0.058396643    28.082478      3511.1129    
      1010   2.02           303.01092      142539.75     -807620.45     -312.54093      0.36286884     0.058898569    28.277172      3510.6587    
      1020   2.04           311.66775      138742.21     -807624.36     -309.78529      0.3628543      0.058381605    28.288352      3510.1929    
      1030   2.06           309.74784      133364.92     -807631.22     -302.56217      0.36283961     0.057022658    28.258259      3509.7654    
      1040   2.08           304.12082      128659.33     -807637.07     -295.86298      0.36282478     0.055762368    28.231565      3509.3712    
      1050   2.1            296.78336      126890.99     -807638.05     -293.84665      0.3628098      0.055384629    28.227975      3508.982     
      1060   2.12           307.95445      128056.81     -807638.42     -295.07781      0.36279469     0.055618997    28.289726      3508.5213    
      1070   2.14           304.49965      132030.11     -807633.87     -299.20278      0.36277943     0.056398881    28.285792      3508.0672    
      1080   2.16           312.1413       137054.9      -807628.66     -305.53596      0.36276402     0.057595113    28.23931       3507.6682    
      1090   2.18           307.84406      140735.23     -807622.71     -311.07041      0.36274848     0.0586409      28.22778       3507.2832    
      1100   2.2            308.23247      141681.78     -807622.01     -311.90704      0.36273279     0.058801159    28.231481      3506.8945    
      1110   2.22           306.91064      137459.9      -807627.05     -306.84606      0.36271695     0.057849581    28.219274      3506.5201    
      1120   2.24           304.72564      134403.3      -807631.9      -301.77925      0.36270098     0.056896842    28.223518      3506.1414    
      1130   2.26           295.96694      128800.97     -807636.89     -295.85404      0.36268486     0.055782194    28.196789      3505.7925    
      1140   2.28           287.76841      128943.05     -807636.93     -294.74632      0.3626686      0.055575829    28.19267       3505.4479    
      1150   2.3            290.43586      127206.2      -807639.01     -293.32048      0.36265219     0.055309483    28.222161      3505.0714    
      1160   2.32           305.8795       133011.25     -807634        -300.68779      0.36263564     0.056701275    28.246837      3504.6688    
      1170   2.34           305.1709       135484.01     -807628.29     -306.66341      0.36261895     0.05783077     28.212935      3504.3031    
      1180   2.36           303.83822      141627.79     -807622.7      -312.23059      0.36260212     0.058883366    28.201216      3503.9498    
      1190   2.38           298.44911      138718.68     -807625.04     -309.48665      0.36258514     0.05836862     28.212985      3503.5842    
      1200   2.4            303.75726      138487.43     -807627.63     -307.74885      0.36256802     0.058043615    28.277541      3503.1522    
      1210   2.42           295.70787      131019.59     -807632.82     -301.72606      0.36255076     0.056910385    28.273694      3502.7254    
      1220   2.44           286.4137       130407.14     -807635.68     -297.58158      0.36253335     0.056131363    28.224987      3502.3493    
      1230   2.46           283.11332      125693.03     -807641.47     -291.60044      0.3625158      0.055005834    28.241332      3501.957     
      1240   2.48           292.33252      129865.11     -807637.27     -297.07461      0.36249811     0.056041184    28.247628      3501.5591    
      1250   2.5            295.58785      131699        -807632.91     -302.12153      0.36248028     0.056996057    28.220937      3501.1883    
      1260   2.52           296.1354       138850.97     -807626.62     -308.41485      0.3624623      0.058186194    28.205421      3500.833     
      1270   2.54           296.16268      138384.34     -807626.7      -308.45373      0.36244418     0.05819644     28.209439      3500.4739    
      1280   2.56           296.93365      140437.46     -807624        -311.23621      0.36242592     0.058724374    28.224642      3500.1001    
      1290   2.58           293.53046      135711.26     -807627.95     -306.86464      0.36240751     0.057902482    28.290403      3499.6636    
      1300   2.6            303.07022      131519.7      -807636.07     -299.98391      0.36238896     0.05660705     28.339857      3499.1814    
      1310   2.62           286.99845      127572.4      -807640.15     -293.61057      0.36237027     0.055407257    28.308559      3498.7307    
      1320   2.64           290.18826      127651.34     -807639.75     -294.39159      0.36235143     0.05555753     28.279674      3498.3084    
      1330   2.66           292.05998      129107.36     -807636.53     -297.89617      0.36233245     0.056221859    28.261215      3497.9043    
      1340   2.68           296.97851      133752.23     -807633.26     -301.73552      0.36231333     0.056949463    28.263569      3497.4988    
      1350   2.7            292.20787      138012.3      -807627.16     -307.10906      0.36229407     0.057966745    28.240335      3497.1153    
      1360   2.72           296.88543      140623.99     -807623.83     -310.98282      0.36227466     0.058701063    28.244646      3496.7283    
      1370   2.74           293.37481      139863.27     -807623.32     -310.90122      0.36225511     0.058688825    28.245025      3496.3415    
      1380   2.76           299.33328      134866.54     -807630.53     -304.4081       0.36223542     0.057466244    28.243504      3495.9565    
      1390   2.78           290.61265      131066.21     -807635.03     -298.44492      0.36221558     0.056343598    28.229338      3495.5845    
      1400   2.8            295.40269      126566.71     -807639.48     -294.53687      0.3621956      0.055608863    28.250587      3495.1941    
      1410   2.82           298.40551      127439.74     -807639.49     -294.83733      0.36217548     0.055668682    28.24678       3494.8075    
      1420   2.84           294.74767      129140.63     -807638.04     -295.70481      0.36215522     0.055835596    28.219307      3494.4452    
      1430   2.86           303.67848      134714.24     -807632.31     -302.45883      0.36213481     0.057114122    28.209761      3494.0914    
      1440   2.88           307.31028      136951.73     -807627.47     -307.77797      0.36211426     0.058121849    28.197922      3493.7477    
      1450   2.9            297.43628      141725.13     -807621.62     -312.04226      0.36209357     0.0589305      28.223245      3493.3822    
      1460   2.92           296.22563      137689.62     -807625.53     -307.89745      0.36207273     0.05815108     28.225871      3493.0147    
      1470   2.94           303.14997      135760.82     -807630.3      -303.89143      0.36205176     0.057397808    28.249383      3492.6276    
      1480   2.96           303.24176      129881.28     -807635.52     -298.64551      0.36203064     0.056410272    28.229616      3492.2575    
      1490   2.98           290.83436      129332.35     -807635.94     -296.30508      0.36200937     0.055971481    28.25047       3491.8702    
      1500   3              297.80103      126075.31     -807640.81     -292.32234      0.36198796     0.055222414    28.251027      3491.483     
      1510   3.02           305.51533      130432.23     -807636.45     -9522.015       0.36196642     0.056215765    28.172306      3491.1607    
      1520   3.04           304.67544      133202.3      -807630.39     -9715.2442      0.36194472     0.057359983    28.195984      3490.8186    
      1530   3.06           307.17026      139284.27     -807623.8      -9932.6507      0.36192289     0.058647115    28.182442      3490.4874    
      1540   3.08           291.83894      139993.41     -807623.68     -9866.3752      0.36190091     0.05825933     28.217388      3490.1278    
      1550   3.1            300.13575      139219.74     -807625.94     -9829.1055      0.36187879     0.058042807    28.186814      3489.7926    
      1560   3.12           316.4363       133288.97     -807631.47     -9723.3214      0.36185653     0.057421664    28.165384      3489.4743    
      1570   3.14           298.98134      130483.43     -807634.69     -9540.1795      0.36183412     0.056343597    28.180534      3489.1435    
      1580   3.16           293.73068      127797.44     -807638.92     -9378.2949      0.36181157     0.05539097     28.164952      3488.8246    
      1590   3.18           296.3681       127206.52     -807640.03     -9355.0096      0.36178888     0.055256905    28.131771      3488.5312    
      1600   3.2            299.40677      132042.29     -807632.68     -9603.719       0.36176605     0.056729529    28.134463      3488.2349    
      1610   3.22           308.32272      134208.68     -807630.24     -9723.1513      0.36174307     0.057438668    28.151484      3487.9248    
      1620   3.24           302.15504      139896.72     -807625.74     -9837.1873      0.36171995     0.05811604     28.18171       3487.5909    
      1630   3.26           302.06025      139156.23     -807625.56     -9843.8083      0.36169669     0.058158895    28.175277      3487.2617    
      1640   3.28           303.02875      138993.32     -807624.61     -9877.5267      0.36167329     0.058361886    28.160121      3486.9436    
      1650   3.3            310.88298      132653.8      -807632.78     -9653.134       0.36164974     0.057039764    28.181139      3486.6093    
      1660   3.32           298.77156      131176.23     -807636.1      -9488.7464      0.36162605     0.056072081    28.181788      3486.2743    
      1670   3.34           295.21529      126973.15     -807639.05     -9380.2269      0.36160222     0.055434457    28.158388      3485.9564    
      1680   3.36           289.80833      130325.41     -807635.31     -9475.8928      0.36157824     0.056003528    28.16734       3485.6314    
      1690   3.38           301.642        130265.49     -807634.93     -9542.1821      0.36155413     0.056399067    28.14106       3485.3254    
      1700   3.4            304.83811      136011.47     -807629.17     -9738.5371      0.36152987     0.057563486    28.147395      3485.0141    
      1710   3.42           304.61601      137334.54     -807625.89     -9844.5669      0.36150546     0.058194145    28.17158       3484.6849    
      1720   3.44           301.59004      140929.42     -807622.84     -9925.9435      0.36148092     0.05867917     28.187802      3484.3436    
      1730   3.46           297.43172      136812.89     -807626.88     -9781.2847      0.36145623     0.057827941    28.161146      3484.0213    
      1740   3.48           293.53478      134543.63     -807630.44     -9647.9866      0.3614314      0.057043787    28.119423      3483.7283    
      1750   3.5            300.98219      128809.69     -807637.35     -9459.9862      0.36140643     0.055936098    28.123953      3483.4315    
      1760   3.52           297.22103      127761.79     -807638.69     -9399.15        0.36138131     0.055580241    28.135331      3483.1259    
      1770   3.54           297.87816      127598.82     -807637.69     -9434.299       0.36135605     0.055791989    28.096756      3482.8468    
      1780   3.56           305.34959      131213.4      -807634.47     -9572.0231      0.36133065     0.056610432    28.083992      3482.5758    
      1790   3.58           304.01998      135359.21     -807628.54     -9756.9174      0.36130511     0.057708005    28.131965      3482.2705    
      1800   3.6            304.78733      138594.11     -807625.23     -9869.2047      0.36127942     0.058376287    28.212807      3481.9091    
      1810   3.62           291.33702      140370.44     -807622.79     -9886.8758      0.3612536      0.058484992    28.216721      3481.5452    
      1820   3.64           297.61786      135873.23     -807627.84     -9753.5447      0.36122763     0.057700432    28.183213      3481.204     
      1830   3.66           306.89188      133311.07     -807633.62     -9608.459       0.36120151     0.056846237    28.201865      3480.8502    
      1840   3.68           293.995        127421.99     -807637.24     -9438.4401      0.36117526     0.055844418    28.188429      3480.5052    
      1850   3.7            298.58043      128840.09     -807638.13     -9426.8656      0.36114886     0.055780012    28.165257      3480.1758    
      1860   3.72           296.79005      127036.83     -807639.26     -9387.3067      0.36112232     0.05555002     28.139556      3479.8631    
      1870   3.74           303.83701      133518.29     -807633.14     -9613.1928      0.36109564     0.056890919    28.152591      3479.5413    
      1880   3.76           297.04617      134890.48     -807628.75     -9729.157       0.36106881     0.057581473    28.181133      3479.2004    
      1890   3.78           307.06912      140290.59     -807624.81     -9898.8135      0.36104184     0.058589952    28.195973      3478.8497    
      1900   3.8            295.45555      136810.64     -807626.5      -9796.6526      0.36101474     0.057989628    28.164686      3478.5193    
      1910   3.82           305.47237      136236.78     -807629.4      -9747.6775      0.36098748     0.057704083    28.161778      3478.1905    
      1920   3.84           293.57129      130517.49     -807633.19     -9579.5359      0.36096009     0.056713026    28.190987      3477.8426    
      1930   3.86           290.80736      129879.75     -807636.34     -9467.0895      0.36093255     0.056051595    28.194474      3477.4924    
      1940   3.88           295.87575      126269.49     -807640.16     -9370.6429      0.36090487     0.05548482     28.182847      3477.1496    
      1950   3.9            284.17491      129951.61     -807636.01     -9455.2013      0.36087705     0.055989818    28.163434      3476.819     
      1960   3.92           293.8947       132614.11     -807632.77     -9608.5629      0.36084909     0.056902372    28.172633      3476.4823    
      1970   3.94           300.21251      136634.39     -807628.76     -9768.2389      0.36082098     0.057852487    28.155354      3476.1562    
      1980   3.96           298.00082      138239.05     -807626.46     -9836.3427      0.36079273     0.058260393    28.213985      3475.7934    
      1990   3.98           293.7216       137900.37     -807626.82     -9807.3323      0.36076434     0.058093136    28.199382      3475.4396    
      2000   4              297.74607      135732.7      -807630.74     -9703.2881      0.36073581     0.057481383    28.169385      3475.1044    
      2010   4.02           305.85535      129708.47     -807637.23     -297.97155      0.36070713     0.056489481    28.218879      3474.7386    
      2020   4.04           290.50214      128943.56     -807638.25     -294.78849      0.36067831     0.055890502    28.238135      3474.3611    
      2030   4.06           285.40935      126200.02     -807640.3      -292.16132      0.36064935     0.055396851    28.224397      3473.9923    
      2040   4.08           292.7962       130658.91     -807637.01     -296.45499      0.36062025     0.056215512    28.204726      3473.6354    
      2050   4.1            304.55097      131745.67     -807634.91     -300.3788       0.36059101     0.056964186    28.232478      3473.2619    
      2060   4.12           295.62693      138086.37     -807627.23     -306.6919       0.36056162     0.058166151    28.186775      3472.9159    
      2070   4.14           278.37051      137387.83     -807625.85     -305.76502      0.36053209     0.057995112    28.186747      3472.5699    
      2080   4.16           294.91856      138414.82     -807626.57     -307.21989      0.36050242     0.058275855    28.213891      3472.2077    
      2090   4.18           290.55021      133150.3      -807630.99     -302.22274      0.36047261     0.0573327      28.235918      3471.8326    
      2100   4.2            294.52264      132061.35     -807634.76     -298.76015      0.36044265     0.056680543    28.279646      3471.4321    
      2110   4.22           290.56822      126260.24     -807640.24     -292.70394      0.36041256     0.055536201    28.25571       3471.0461    
      2120   4.24           288.23204      128545.56     -807638.29     -294.00932      0.36038232     0.055788559    28.244892      3470.6666    
      2130   4.26           290.80255      129026.27     -807636.6      -295.9797       0.36035193     0.056167175    28.241231      3470.2894    
      2140   4.28           298.74559      134526.1      -807632.54     -300.92833      0.36032141     0.0571111      28.272225      3469.8947    
      2150   4.3            297.33447      136580.82     -807628.53     -304.50755      0.36029075     0.057795293    28.262465      3469.5059    
      2160   4.32           289.68951      138652.18     -807625.38     -306.33688      0.36025994     0.058147472    28.286434      3469.1039    
      2170   4.34           294.07772      137046.29     -807627.47     -304.60574      0.36022899     0.057823842    28.280004      3468.7059    
      2180   4.36           305.72552      133864.85     -807632.54     -300.80842      0.36019789     0.05710792     28.267654      3468.3153    
      2190   4.38           302.83099      129355.03     -807636.34     -296.30649      0.36016666     0.056258114    28.251373      3467.9341    
      2200   4.4            281.74319      128438.61     -807636.01     -293.36554      0.36013528     0.055704585    28.22803       3467.5662    
      2210   4.42           306.6151       128341.36     -807638.13     -294.41141      0.36010377     0.055908069    28.216237      3467.205     
      2220   4.44           294.96379      130882.56     -807633.47     -297.28057      0.36007211     0.05645788     28.203004      3466.8511    
      2230   4.46           301.93748      136224.15     -807629.07     -302.37589      0.3600403      0.057430628    28.207971      3466.4945    
      2240   4.48           304.16907      137154.83     -807626.99     -304.58946      0.36000836     0.057856186    28.196683      3466.1442    
      2250   4.5            300.35838      140350.8      -807623.92     -306.88506      0.35997627     0.058297428    28.170077      3465.8083    
      2260   4.52           312.61292      134803.18     -807629.83     -302.66089      0.35994404     0.05750013     28.229783      3465.4398    
      2270   4.54           307.60804      134046.67     -807631.6      -299.91212      0.35991167     0.056983038    28.184129      3465.0961    
      2280   4.56           295.90091      128210.32     -807635.79     -294.05939      0.35987916     0.055876071    28.201726      3464.7428    
      2290   4.58           298.64774      129812.02     -807636.82     -293.23057      0.35984651     0.055723639    28.196439      3464.3924    
      2300   4.6            302.85574      127438.18     -807637.62     -292.99997      0.35981371     0.055684892    28.234738      3464.0215    
      2310   4.62           294.74207      133962.53     -807630.52     -298.84215      0.35978077     0.056800403    28.233914      3463.6511    
      2320   4.64           311.7756       134348.03     -807630.76     -301.06812      0.35974769     0.05722875     28.26478       3463.2647    
      2330   4.66           306.88388      139640.98     -807625.22     -305.77536      0.35971447     0.058128899    28.302711      3462.8586    
      2340   4.68           303.47018      136884.32     -807626.78     -303.83925      0.35968111     0.057766195    28.301966      3462.4533    
      2350   4.7            309.3594       137002.31     -807627.74     -303.53377      0.3596476      0.057713493    28.314622      3462.042     
      2360   4.72           305.6144       131883.22     -807633.06     -297.73827      0.35961396     0.056616843    28.294188      3461.6417    
      2370   4.74           304.95535      129836.29     -807635.98     -294.71799      0.35958017     0.056047783    28.290403      3461.2437    
      2380   4.76           298.35256      127587.18     -807637.67     -292.13855      0.35954624     0.055562482    28.277262      3460.8529    
      2390   4.78           298.60093      130258.62     -807634.49     -295.43483      0.35951216     0.056194734    28.241856      3460.4804    
      2400   4.8            301.70615      132908.33     -807631.53     -298.88347      0.35947795     0.056856112    28.236058      3460.1111    
      2410   4.82           308.49147      136239.49     -807629.67     -301.72068      0.35944359     0.057401316    28.24818       3459.7358    
      2420   4.84           305.67546      138259.16     -807626.35     -304.73756      0.35940909     0.057980832    28.249774      3459.3598    
      2430   4.86           303.14963      137709.04     -807626.68     -304.11598      0.35937446     0.057868145    28.23701       3458.9904    
      2440   4.88           302.46249      135506.02     -807628.97     -301.76537      0.35933967     0.057426421    28.257624      3458.6108    
      2450   4.9            303.13694      130729.21     -807634.87     -296.05799      0.35930475     0.056345773    28.18783       3458.2663    
      2460   4.92           301.15654      129814.41     -807636.54     -294.17113      0.35926969     0.05599213     28.161003      3457.9352    
      2470   4.94           300.99337      127574.82     -807637.65     -293.22181      0.35923448     0.055816908    28.151823      3457.6084    
      2480   4.96           294.84604      131607.18     -807633.39     -296.67542      0.35919913     0.056479886    28.16728       3457.2737    
      2490   4.98           297.57383      132976.19     -807632.54     -298.13458      0.35916364     0.056763282    28.174995      3456.9351    
      2500   5              303.09619      136845.08     -807628.93     -302.61695      0.35912801     0.057622419    28.227063      3456.5708    
[...]
     98740   197.48         286.78824      134700.22     -807628.4      -9722.9438      0.36236891     0.057338243    30.490131      44.154797    
     98750   197.5          306.87317      130729.35     -807634.86     -9609.0007      0.36238762     0.056663372    30.47538       43.80408     
     98760   197.52         291.16658      132593.57     -807632.92     -9602.3701      0.36240618     0.056621372    30.418761      43.453375    
     98770   197.54         301.80352      132669.04     -807632.69     -9662.5226      0.36242459     0.056973173    30.416428      43.102675    
     98780   197.56         303.0307       134083.8      -807629.94     -9760.7235      0.36244287     0.057549293    30.425748      42.751978    
     98790   197.58         297.3066       134700.93     -807630.79     -9712.4431      0.362461       0.057261767    30.449618      42.401282    
     98800   197.6          292.0905       135580.28     -807630.96     -9686.745       0.36247899     0.057107424    30.399986      42.050597    
     98810   197.62         299.48858      133615.77     -807630.8      -9729.8331      0.36249683     0.057358623    30.490261      41.699905    
     98820   197.64         294.83875      133720.92     -807630.19     -9733.0388      0.36251453     0.057374719    30.504467      41.349216    
     98830   197.66         290.28506      132517.45     -807632.54     -9639.7817      0.36253209     0.056822231    30.499022      40.998532    
     98840   197.68         290.82589      131398.37     -807634.02     -9597.5466      0.36254951     0.056570556    30.443565      40.64786     
     98850   197.7          293.82744      132921.62     -807632.15     -9673.8235      0.36256678     0.057017436    30.485522      40.297187    
     98860   197.72         289.65713      133028.19     -807630.92     -9700.4836      0.36258391     0.05717187     30.520001      39.946514    
     98870   197.74         298.11169      134202.17     -807632.01     -9705.6506      0.3626009      0.057199643    30.489196      39.59585     
     98880   197.76         292.17471      133626.05     -807631.71     -9690.4354      0.36261774     0.05710732     30.499178      39.245189    
     98890   197.78         287.8005       136085.21     -807627.94     -9791.4296      0.36263445     0.057699838    30.522148      38.89453     
     98900   197.8          291.12441      133345.35     -807630.21     -9737.5591      0.362651       0.057379765    30.421805      38.543887    
     98910   197.82         310.8469       133519.16     -807634.56     -9682.9192      0.36266742     0.05705521     30.432552      38.193248    
     98920   197.84         294.23433      130977.82     -807634.89     -9601.1845      0.36268369     0.056571062    30.397076      37.842618    
     98930   197.86         298.85754      133079.76     -807633.24     -9675.015       0.36269982     0.057003542    30.378792      37.491994    
     98940   197.88         295.10225      131198.56     -807633.9      -9639.354       0.36271581     0.056790931    30.347788      37.141377    
     98950   197.9          285.48989      133862.56     -807630.93     -9685.8398      0.36273165     0.057062313    30.409787      36.790758    
     98960   197.92         295.32148      132452.35     -807632.84     -9670.6402      0.36274735     0.056970301    30.48658       36.440135    
     98970   197.94         283.87355      136410.26     -807627.05     -9799.6201      0.36276291     0.057727654    30.484814      36.089516    
     98980   197.96         300.03698      133595.13     -807630.77     -9750.5568      0.36277832     0.057436191    30.464752      35.738905    
     98990   197.98         300.52483      135096.55     -807631.38     -9724.6913      0.36279359     0.057281418    30.516007      35.388292    
     99000   198            305.32671      131641.22     -807634.74     -9635.6369      0.36280872     0.056754493    30.468525      35.037689    
     99010   198.02         297.98726      133360.24     -807632.06     -302.53445      0.3628237      0.057019932    30.543491      34.687082    
     99020   198.04         305.2413       130417.21     -807634.65     -300.78297      0.36283855     0.056687506    30.513907      34.336483    
     99030   198.06         294.23721      133918.89     -807631.7      -301.85381      0.36285324     0.056887019    30.569759      33.985883    
     99040   198.08         301.32038      132623.76     -807633.08     -301.33881      0.3628678      0.056787684    30.585143      33.635286    
     99050   198.1          297.34555      136032.72     -807627.85     -305.67272      0.36288221     0.057602127    30.592704      33.284694    
     99060   198.12         303.87221      134033.01     -807629.78     -304.45189      0.36289648     0.057369813    30.558771      32.934109    
     99070   198.14         309.76762      135334.73     -807631.09     -303.60304      0.36291061     0.057207631    30.488164      32.583536    
     99080   198.16         297.59215      134001.74     -807630.2      -302.6647       0.36292459     0.057028625    30.466438      32.23297     
     99090   198.18         307.02989      133962.59     -807630.64     -303.32986      0.36293843     0.057151775    30.411383      31.882414    
     99100   198.2          298.01227      132435.37     -807630.77     -301.76137      0.36295213     0.056854104    30.499152      31.531854    
     99110   198.22         305.60443      132540.81     -807632.83     -300.56474      0.36296568     0.056626535    30.512528      31.181296    
     99120   198.24         307.65592      133121.72     -807631.23     -302.33317      0.36297909     0.056957604    30.576581      30.830738    
     99130   198.26         314.5528       133320.05     -807631.07     -303.45375      0.36299236     0.057166625    30.528135      30.480189    
     99140   198.28         305.33185      136005.21     -807628.75     -304.37235      0.36300548     0.057337603    30.494807      30.129647    
     99150   198.3          310.35098      133540.47     -807630.95     -302.92869      0.36301846     0.057063607    30.458084      29.779114    
     99160   198.32         309.23981      135435.66     -807629.14     -304.48681      0.3630313      0.057355085    30.493449      29.428581    
     99170   198.34         310.71681      133158.04     -807631.09     -302.82755      0.36304399     0.057040542    30.536443      29.07805     
     99180   198.36         309.53238      134866.04     -807630.3      -303.39481      0.36305655     0.057145416    30.520749      28.727524    
     99190   198.38         310.07479      131946.08     -807633.17     -300.68805      0.36306895     0.056633653    30.555009      28.377       
     99200   198.4          301.27625      134562.08     -807630.04     -302.61419      0.36308122     0.056994509    30.499938      28.026486    
     99210   198.42         296.70154      133008.65     -807629.69     -302.53218      0.36309334     0.056977161    30.430365      27.675982    
     99220   198.44         307.62508      135212.62     -807629.67     -304.07251      0.36310532     0.057265369    30.430631      27.325482    
     99230   198.46         309.24621      133633.5      -807631.3      -302.88389      0.36311715     0.05703966     30.503077      26.974981    
     99240   198.48         303.55144      136465.04     -807628.02     -305.44028      0.36312885     0.057519233    30.502602      26.624484    
     99250   198.5          307.51223      133539.47     -807630.43     -303.81619      0.3631404      0.05721157     30.461304      26.273996    
     99260   198.52         312.56862      134768.96     -807630.67     -304.28303      0.3631518      0.057297681    30.495443      25.923509    
     99270   198.54         302.19659      132307.93     -807632.37     -301.36924      0.36316306     0.056747243    30.573394      25.57302     
     99280   198.56         298.84371      133555.76     -807631.62     -301.80972      0.36317418     0.056828446    30.595032      25.222535    
     99290   198.58         292.54443      132575.84     -807631.09     -301.67962      0.36318516     0.056802232    30.58095       24.872055    
     99300   198.6          306.50464      133283.61     -807631.6      -303.26597      0.36319599     0.057099216    30.531507      24.521584    
     99310   198.62         300.22908      134107.56     -807631.05     -303.10426      0.36320668     0.05706709     30.51967       24.171118    
     99320   198.64         306.69266      134946.05     -807630.56     -304.65149      0.36321723     0.057356731    30.534939      23.820656    
     99330   198.66         298.54607      135396.7      -807628.92     -305.3264       0.36322763     0.057482149    30.552186      23.470197    
     99340   198.68         304.97884      134072.41     -807631.62     -303.68948      0.36323789     0.057172361    30.558041      23.119742    
     99350   198.7          304.30087      133922.67     -807632.01     -303.26517      0.36324801     0.05709089     30.555348      22.769293    
     99360   198.72         293.55694      132214.28     -807632.36     -301.58659      0.36325798     0.056773332    30.566933      22.418847    
     99370   198.74         297.70111      133145.86     -807631.75     -302.78392      0.36326781     0.056997186    30.578918      22.068405    
     99380   198.76         294.37153      131445.2      -807632.52     -301.6649       0.3632775      0.056785022    30.555758      21.717969    
     99390   198.78         303.0959       134422.31     -807631.63     -303.68985      0.36328704     0.057164695    30.531358      21.367539    
     99400   198.8          299.18453      134006.53     -807631.06     -303.85425      0.36329644     0.057194161    30.515793      21.017115    
     99410   198.82         292.03699      136349.46     -807627.76     -306.18549      0.3633057      0.057631499    30.516625      20.666696    
     99420   198.84         297.15473      134030.74     -807630.51     -304.27805      0.36331481     0.057271036    30.541791      20.31628     
     99430   198.86         294.24691      134308.21     -807630.11     -304.16655      0.36332378     0.057248635    30.583967      19.965865    
     99440   198.88         301.02596      132107.56     -807632.51     -302.77923      0.36333261     0.056986138    30.634478      19.615453    
     99450   198.9          285.64762      134073.02     -807629.84     -303.35827      0.36334129     0.057093753    30.605004      19.265047    
     99460   198.92         291.34739      132877.08     -807632.34     -301.63472      0.36334983     0.056768038    30.595613      18.914646    
     99470   198.94         305.04283      133173        -807633.56     -302.29917      0.36335823     0.056891773    30.547707      18.564253    
     99480   198.96         299.74461      132542.78     -807631.07     -304.05367      0.36336648     0.057220664    30.581701      18.213862    
     99490   198.98         302.93435      134033.16     -807630.85     -304.74979      0.3633746      0.05735039     30.57692       17.863476    
     99500   199            297.7247       134273.81     -807630.2      -304.65271      0.36338256     0.057330862    30.603107      17.513094    
     99510   199.02         299.84437      134334.01     -807630.82     -9736.9662      0.36339039     0.057259528    30.447708      17.162725    
     99520   199.04         301.36313      133865.23     -807630.75     -9746.8087      0.36339807     0.057316197    30.499932      16.812357    
     99530   199.06         301.35211      132641.35     -807632.07     -9704.6199      0.3634056      0.057066922    30.466943      16.461996    
     99540   199.08         298.30671      133439.86     -807632.24     -9682.4264      0.363413       0.056935257    30.48314       16.111638    
     99550   199.1          289.96721      131863.84     -807631.65     -9665.8191      0.36342025     0.056836468    30.383955      15.761289    
     99560   199.12         297.40741      133407.84     -807631.1      -9716.0694      0.36342736     0.05713083     30.44673       15.410942    
     99570   199.14         292.75031      134220.67     -807629.97     -9730.843       0.36343432     0.057216603    30.433981      15.0606      
     99580   199.16         294.41402      134371.73     -807629.75     -9744.5011      0.36344114     0.057295836    30.449903      14.710261    
     99590   199.18         293.91355      134555.08     -807629.74     -9741.6837      0.36344782     0.057278218    30.460449      14.359926    
     99600   199.2          301.3566       135096.3      -807629.78     -9772.4201      0.36345435     0.057457906    30.502758      14.009594    
     99610   199.22         310.2007       132865.47     -807632.71     -9717.6413      0.36346074     0.057134824    30.473824      13.659268    
     99620   199.24         291.43553      133250.89     -807631.03     -9683.0842      0.36346699     0.056930667    30.470827      13.308946    
     99630   199.26         298.84768      132310.44     -807633.16     -9646.9811      0.3634731      0.05671745     30.495606      12.958628    
     99640   199.28         306.04583      132784.63     -807632.31     -9705.607       0.36347906     0.057061193    30.483315      12.608315    
     99650   199.3          301.40219      133350.23     -807630.77     -9732.1057      0.36348487     0.057216069    30.495008      12.258005    
     99660   199.32         290.80175      134028.54     -807629.49     -9722.6685      0.36349055     0.057159694    30.487684      11.907701    
     99670   199.34         304.40818      134904.86     -807630.41     -9750.4147      0.36349608     0.057321942    30.541296      11.557399    
     99680   199.36         309.24423      133566.82     -807630.09     -9781.5141      0.36350147     0.057503921    30.567474      11.2071      
     99690   199.38         296.57977      134768.71     -807628.86     -9760.3468      0.36350671     0.057378654    30.530179      10.856808    
     99700   199.4          306.71649      132780.94     -807633.61     -9651.3361      0.36351181     0.056737011    30.461836      10.506522    
     99710   199.42         295.52135      133206.06     -807631.01     -9680.2181      0.36351677     0.056906023    30.496392      10.15624     
     99720   199.44         302.8828       132420.69     -807631.66     -9690.815       0.36352158     0.056967564    30.470659      9.805963     
     99730   199.46         299.55112      133755.41     -807630.78     -9698.324       0.36352625     0.057010972    30.506495      9.4556894    
     99740   199.48         306.07677      132866.35     -807631.75     -9690.8961      0.36353078     0.056966599    30.492664      9.1054206    
     99750   199.5          299.26538      135540.05     -807628.38     -9759.5441      0.36353516     0.057369445    30.436925      8.7551579    
     99760   199.52         315.98274      134562.39     -807629.86     -9783.5786      0.3635394      0.057510056    30.488093      8.4048981    
     99770   199.54         312.7852       135629.72     -807629.07     -9787.3614      0.3635435      0.057531644    30.520262      8.054642     
     99780   199.56         305.53726      133909.61     -807630.55     -9701.4955      0.36354745     0.05702629     30.436524      7.7043925    
     99790   199.58         304.92211      133897.84     -807630.47     -9693.4823      0.36355126     0.056978591    30.415646      7.3541477    
     99800   199.6          309.34534      133224.66     -807631.07     -9691.6288      0.36355493     0.056967121    30.360858      7.0039085    
     99810   199.62         308.63434      133900.22     -807631.11     -9679.1283      0.36355845     0.056893092    30.434356      6.6536719    
     99820   199.64         302.15826      133176.82     -807630.19     -9674.3316      0.36356183     0.056864369    30.468694      6.303439     
     99830   199.66         311.05781      134787.17     -807630.06     -9713.5303      0.36356507     0.057094265    30.474693      5.9532104    
     99840   199.68         309.0453       135292.05     -807627.71     -9778.1601      0.36356816     0.057473658    30.516495      5.6029855    
     99850   199.7          318.60204      135383.81     -807628.77     -9782.3493      0.36357111     0.057497814    30.494534      5.2527655    
     99860   199.72         313.2063       134855.77     -807629.27     -9741.5689      0.36357392     0.057257677    30.475309      4.9025502    
     99870   199.74         310.48977      134719        -807630.05     -9705.1476      0.36357658     0.057043187    30.455013      4.5523396    
     99880   199.76         311.28592      133372.21     -807630.39     -9697.0385      0.3635791      0.056995129    30.443959      4.2021336    
     99890   199.78         310.2752       132977.41     -807631.04     -9673.379       0.36358148     0.056855698    30.438982      3.8519319    
     99900   199.8          305.11532      132638.08     -807631.41     -9642.2923      0.36358371     0.056672636    30.461253      3.5017344    
     99910   199.82         309.92016      133956.48     -807630.43     -9700.4137      0.3635858      0.057013917    30.450557      3.1515413    
     99920   199.84         311.15524      133989.12     -807629.19     -9751.0534      0.36358775     0.057311244    30.513094      2.8013521    
     99930   199.86         305.33131      135331.55     -807627.28     -9789.6841      0.36358955     0.057538008    30.538723      2.4511672    
     99940   199.88         310.62947      135356.25     -807629.51     -9752.14        0.36359121     0.057317084    30.504948      2.100987     
     99950   199.9          310.33014      134790.96     -807629.27     -9766.6529      0.36359273     0.057402143    30.52021       1.7508113    
     99960   199.92         299.47485      134406.12     -807628.45     -9754.7908      0.3635941      0.057332208    30.524673      1.40064      
     99970   199.94         310.09877      132666.84     -807632.59     -9678.4391      0.36359533     0.056883271    30.545694      1.0504731    
     99980   199.96         299.92273      132115.32     -807632.58     -9644.4563      0.36359641     0.056683375    30.506385      0.70031096   
     99990   199.98         301.8696       133290.31     -807631.69     -9692.759       0.36359736     0.056967116    30.486476      0.35015327   
    100000   200            306.1839       133348.62     -807631.28     -9735.0156      0.36359816     0.057215345    30.468655      0            
Loop time of 3501.51 on 32 procs for 100000 steps with 1080 atoms

Performance: 4.935 ns/day, 4.863 hours/ns, 28.559 timesteps/s, 30.844 katom-step/s
62.3% CPU use with 32 MPI tasks x 1 OpenMP threads

MPI task timing breakdown:
Section |  min time  |  avg time  |  max time  |%varavg| %total
---------------------------------------------------------------
Pair    | 2288.8     | 2798.4     | 3078.9     | 290.3 | 79.92
Neigh   | 0.00082483 | 0.00089889 | 0.001042   |   0.0 |  0.00
Comm    | 349.47     | 629.95     | 1139.6     | 612.0 | 17.99
Output  | 2.3491     | 2.3594     | 2.3662     |   0.2 |  0.07
Modify  | 64.547     | 64.731     | 64.964     |   1.3 |  1.85
Other   |            | 6.064      |            |       |  0.17

Nlocal:          33.75 ave          39 max          25 min
Histogram: 2 0 2 2 3 6 2 5 5 5
Nghost:        1039.69 ave        1061 max        1024 min
Histogram: 1 2 8 5 4 7 1 3 0 1
Neighs:              0 ave           0 max           0 min
Histogram: 32 0 0 0 0 0 0 0 0 0
FullNghs:       5353.5 ave        6218 max        3995 min
Histogram: 2 0 3 2 3 5 3 4 6 4

Total # of neighbors = 171312
Ave neighs/atom = 158.62222
Neighbor list builds = 2
Dangerous builds = 0

Total wall time: 1:01:47
