
units		metal
atom_style	atomic

read_data ${STRUCTURE}.data
read_data BaTiO3-sc333.data
Reading data file ...
  orthogonal box = (0 0 0) to (11.898253 11.898253 12.912076)
  2 by 4 by 4 MPI processor grid
  reading atoms ...
  135 atoms
  read_data CPU = 0.005 seconds
replicate $L $L $L
replicate 2 $L $L
replicate 2 2 $L
replicate 2 2 2
Replication is creating a 2x2x2 = 8 times larger system...
  orthogonal box = (0 0 0) to (23.796507 23.796507 25.824152)
  2 by 4 by 4 MPI processor grid
  1080 atoms
  replicate CPU = 0.003 seconds

pair_style allegro
pair_coeff	* * ${MODEL}.pth Ba Ti O
pair_coeff	* * BaTiO3-E0.pth Ba Ti O
mass 1 137.3
mass 2 47.9
mass 3 15.9994

timestep 0.002
compute polarization all allegro polarization 3
compute allegro will evaluate the quantity polarization of length 3 (src/compute_allegro.cpp:53)
compute polarizability all allegro polarizability 9
compute allegro will evaluate the quantity polarizability of length 9 (src/compute_allegro.cpp:53)

thermo_style custom pe fmax fnorm spcpu cpuremain

variable efield equal 1e-2*36.36
fix born all addbornforce 0.0 0.0 ${efield}
fix born all addbornforce 0.0 0.0 0.3636

thermo 10
min_style fire
#minimize 0.0 1e-6 100 100
velocity all create ${TEMP} ${SEED} dist gaussian rot yes mom yes
velocity all create 320 ${SEED} dist gaussian rot yes mom yes
velocity all create 320 19970 dist gaussian rot yes mom yes
fix nvt all nvt temp ${TEMP} ${TEMP} $(100*dt)
fix nvt all nvt temp 320 ${TEMP} $(100*dt)
fix nvt all nvt temp 320 320 $(100*dt)
fix nvt all nvt temp 320 320 0.2000000000000000111
run 5000
Neighbor list info ...
  update: every = 1 steps, delay = 0 steps, check = yes
  max neighbors/atom: 2000, page size: 100000
  master list distance cutoff = 8
  ghost atom cutoff = 8
  binsize = 8, bins = 3 3 4
  1 neighbor lists, perpetual/occasional/extra = 1 0 0
  (1) pair allegro/kk, perpetual
      attributes: full, newton on, kokkos_device
      pair build: full/bin/kk/device
      stencil: full/bin/3d
      bin: kk/device
Per MPI rank memory allocation (min/avg/max) = 3.516 | 3.516 | 3.516 Mbytes
    PotEng          Fmax          Fnorm          S/CPU         CPULeft    
-807708.29      1.595743       37.043943      0              0            
-807644.23      3.4294937      45.787871      2.339763       2132.6956    
-807634.91      2.6310815      35.527508      25.822877      1160.6369    
-807606.19      3.4267642      37.96726       25.846235      836.30126    
-807602.83      4.1764631      50.801541      25.785892      674.05224    
-807567.48      4.0087572      40.652286      25.734517      576.62434    
-807602.17      2.981656       38.717082      25.797228      511.46511    
-807646.17      4.2003025      33.942387      25.836544      464.7705     
-807683.71      2.7560249      34.367657      25.75791       429.72545    
-807667.16      3.0464798      34.551246      25.732399      402.40292    
-807651.75      4.128437       35.227453      25.82047       380.40221    
-807660.1       2.5452367      28.112666      25.829599      362.32514    
-807627.17      3.4450009      31.653048      25.809271      347.20879    
-807584.68      3.4277037      40.800534      25.768132      334.38158    
-807568.51      3.5113757      38.239119      25.815935      323.30646    
-807631.36      3.1287888      33.81006       25.805397      313.66148    
-807654.44      3.1287974      30.733791      25.791391      305.18006    
-807664.28      2.7539554      34.968769      25.798961      297.6476     
-807647.8       4.7489767      44.886987      25.830214      290.89645    
-807679.12      2.683369       36.630739      25.798887      284.8271     
-807641.53      4.0044939      39.408759      25.761706      279.33935    
-807616.45      2.9204294      38.869319      25.812324      274.31991    
-807560.04      3.9058892      45.726851      25.826077      269.71708    
-807602.74      4.4500893      49.803938      25.795527      265.49034    
-807615.05      4.5518552      38.749452      25.760751      261.5939     
-807641.23      3.1778061      36.149578      25.796949      257.96777    
-807642.92      4.8253384      45.661245      25.828896      254.58201    
-807681.6       3.0061613      38.02456       25.809979      251.42335    
-807662.6       2.8821162      35.203325      25.750355      248.47776    
-807638.63      3.8698621      32.243105      25.838866      245.6869     
-807605.94      2.7809003      33.84854       25.840913      243.05585    
-807602.75      3.7197276      42.273955      25.750281      240.59017    
-807595.73      4.1977427      36.795995      25.717553      238.26155    
-807609.44      3.4437071      33.257108      25.806997      236.03141    
-807642.62      3.7828697      30.67456       25.833211      233.90429    
-807672.19      3.0369085      32.196784      25.799013      231.88341    
-807677.67      3.2829219      32.917054      25.737658      229.96517    
-807645.09      4.4823368      38.566382      25.82427       228.11332    
-807648.3       3.0374879      30.816454      25.833989      226.33678    
-807620.08      4.4036162      34.097422      25.831566      224.63192    
-807599.97      4.2067853      44.076455      25.723333      223.01169    
-807567.81      4.9065004      42.307197      25.797232      221.43905    
-807621.64      3.1007177      36.073414      25.792646      219.9236     
-807648.55      4.1888588      36.695627      25.762795      218.46538    
-807674.14      3.3946999      35.552362      25.801937      217.04969    
-807642.62      5.6949689      46.918954      25.814497      215.67779    
-807665.77      3.3409623      35.4649        25.792813      214.35191    
-807644.72      4.6236909      37.344556      25.791298      213.06617    
-807624.32      4.1043981      38.316497      25.802104      211.81632    
-807564.22      5.3758396      43.444735      25.832782      210.59742    
-807597.2       4.4310033      43.751354      25.809848      209.4149     
-807623.9       4.3456364      34.953818      25.748517      208.27168    
-807654.58      2.8531694      32.379503      25.797321      207.15116    
-807644.7       4.1158689      40.158463      25.82243       206.05512    
-807670.89      2.8457938      34.300354      25.797265      204.98845    
-807667.4       3.7780607      33.488529      25.711277      203.95696    
-807643         3.3373203      31.323028      25.800417      202.93777    
-807601.36      3.554139       34.878776      25.843189      201.93575    
-807593.71      3.5973081      39.014427      25.804178      200.9594     
-807603.41      3.8766614      40.548312      25.642323      200.02129    
-807619.08      3.8301339      33.638132      25.755306      199.08891    
-807636.2       3.2213611      33.728381      25.845998      198.16456    
-807662.29      4.2286992      34.861613      25.825704      197.2597     
-807675.69      3.6506687      36.87028       25.742753      196.37992    
-807647.94      5.23374        38.970483      25.781304      195.51155    
-807633.3       3.2221937      34.175454      25.828565      194.6532     
-807611.94      3.9148915      36.317852      25.832838      193.80872    
-807602.84      4.3609594      45.705426      25.782349      192.98278    
-807578.63      4.0916096      41.005875      25.779457      192.17001    
-807613.94      3.381788       36.813121      25.831477      191.36467    
-807644.25      4.6372296      37.192068      25.823748      190.57199    
-807672.57      3.4464464      36.855357      25.80037       189.79286    
-807650.07      5.5331146      42.389075      25.742378      189.02979    
-807651.52      3.4771212      36.331767      25.790025      188.27278    
-807642.93      4.4306106      34.728655      25.775443      187.52702    
-807623.2       3.517271       38.002291      25.767956      186.79144    
-807576.62      4.4515836      39.760679      25.788028      186.06332    
-807585.8       2.8896473      40.356244      25.821545      185.34128    
-807625.38      2.853393       33.121177      25.765081      184.6324     
-807655.99      2.5153188      33.215569      25.751485      183.93275    
-807651.49      3.5231753      36.93814       25.786876      183.23807    
-807654.65      3.6685812      37.842176      25.721799      182.55605    
-807664.77      2.9874596      34.280244      25.746952      181.87924    
-807642.75      3.6499184      34.150588      25.766333      181.20792    
-807602.3       3.1079554      37.679264      25.802276      180.54066    
-807579.25      3.5358066      40.8764        25.835183      179.87758    
-807602.18      4.2489376      42.217898      25.738491      179.22791    
-807623.08      4.2804291      35.526582      25.741772      178.58401    
-807638.48      3.1486223      34.406137      25.807592      177.94128    
-807649.91      3.9197055      38.30375       25.808509      177.30422    
-807671.45      2.6057909      36.085999      25.748192      176.67684    
-807652.36      3.3429057      37.085718      25.742549      176.05509    
-807631.03      3.056228       34.136562      25.81641       175.4335     
-807602.37      3.2874108      37.053265      25.856074      174.81433    
-807601.43      4.694233       43.929274      25.796456      174.20397    
-807592.77      4.3231474      38.555165      25.737348      173.6021     
-807613.29      4.4832606      36.107045      25.74292       173.00432    
-807638.61      4.2822145      36.63446       25.833108      172.40521    
-807667.83      4.7034782      36.294745      25.79318       171.8129     
-807659.3       3.5415867      37.156016      25.754922      171.22705    
-807644.92      4.6344595      36.395716      25.791438      170.64295    
-807634.78      3.8945051      34.178727      25.772821      170.06384    
-807622.18      3.9779171      36.790144      25.785548      169.48774    
-807593.22      3.2618022      39.221293      25.760654      168.91674    
-807586.17      3.4045179      39.761152      25.804662      168.34673    
-807624.3       3.2665549      32.922235      25.801914      167.78035    
-807654.72      2.9027467      33.408496      25.735664      167.22106    
-807658.92      2.9245566      34.857695      25.726656      166.66545    
-807648.42      3.3980678      37.815048      25.784387      166.10978    
-807655.57      2.8625474      33.653887      25.810072      165.55581    
-807642.48      3.3137449      32.960501      25.831864      165.0037     
-807612.78      3.0029255      36.079564      25.818616      164.45526    
-807580.63      3.7800737      39.111556      25.835005      163.90885    
-807604.23      3.5061331      38.303353      25.813329      163.36637    
-807629.81      3.5127983      34.779868      25.813087      162.82662    
-807648.69      3.0435654      33.777834      25.776185      162.29138    
-807644.99      4.7627133      40.001191      25.834427      161.75578    
-807663.6       2.915695       35.892302      25.799594      161.22444    
-807654.91      3.3450331      35.612343      25.785604      160.69621    
-807632.06      3.0610348      34.349761      25.82481       160.16845    
-807598.01      3.7756338      37.744757      25.845358      159.64206    
-807600.49      3.6345542      39.569641      25.758258      159.12208    
-807604.8       5.0555602      37.191459      25.750948      158.6046     
-807625.98      3.6216658      33.530705      25.816438      158.0862     
-807637.05      3.7625702      34.99876       25.836777      157.56898    
-807662.96      3.1002193      33.749198      25.845563      157.05346    
-807661.13      3.3082699      34.534565      25.777554      156.543      
-807646.59      4.0353398      33.589456      25.815665      156.0328     
-807625.48      3.4605476      33.674287      25.762828      155.52682    
-807616.37      2.943792       36.336299      25.818444      155.02026    
-807600.13      3.7380247      38.183148      25.781012      154.51714    
-807598.6       3.086519       36.965474      25.706749      154.01894    
-807621.47      2.9604635      33.281098      25.85691       153.51609    
-807651.34      2.802335       32.651336      25.79311       153.01763    
-807660.3       3.1490798      34.682492      25.747146      152.52271    
-807649.77      3.2701523      35.522908      25.719725      152.03049    
-807645.99      4.585115       33.606328      25.800951      151.53651    
-807636.43      4.0068062      32.8617        25.792827      151.04441    
-807615.52      3.7829865      36.174801      25.783031      150.55421    
-807585.51      3.5129211      38.541783      25.787146      150.06532    
-807602.12      3.2646907      37.297872      25.793998      149.57761    
-807631.78      3.6552142      33.433731      25.793203      149.09135    
-807650.19      3.1105297      33.484127      25.800495      148.6062     
-807645.77      4.4026759      38.162046      25.812742      148.12196    
-807655.51      3.1149458      35.213261      25.825355      147.63859    
-807651.17      3.5271073      34.586684      25.751017      147.15929    
-807634.03      3.0396552      33.390275      25.761497      146.68085    
-807598.53      4.3859296      36.501282      25.796949      146.20236    
-807595.28      3.3738774      37.707358      25.711443      145.72816    
-807608.91      3.7745958      36.176737      25.710714      145.25513    
-807630.62      4.6235376      33.539785      25.742119      144.78211    
-807638.11      3.1670892      34.586528      25.784127      144.30876    
-807654.24      4.6191207      34.800587      25.797962      143.83605    
-807658.04      2.4767144      34.996599      25.799817      143.36439    
-807646.66      3.5541061      33.980334      25.732256      142.89611    
-807621.51      3.0040345      34.430927      25.760473      142.4279     
-807605.98      3.2157558      35.981112      25.743646      141.96129    
-807600.09      3.6073584      39.736431      25.701701      141.49705    
-807606.56      3.6955893      35.871712      25.738829      141.03256    
-807622.61      3.4865086      33.708105      25.834031      140.56594    
-807643.83      3.2257529      34.666095      25.761205      140.10265    
-807659.48      2.6727263      34.835175      25.714703      139.64177    
-807651.51      4.289428       35.913578      25.72624       139.18141    
-807640.25      4.0658301      33.944437      25.757526      138.72095    
-807625.78      4.3147438      33.839415      25.759838      138.26131    
-807614.49      3.3699115      36.168802      25.75362       137.80272    
-807592.49      3.274832       37.775131      25.742267      137.34532    
-807604.51      3.2520754      35.366429      25.789565      136.88733    
-807628.82      3.4145423      32.716804      25.801049      136.42983    
-807652.04      2.9864028      33.411946      25.769945      135.97408    
-807652.47      3.7535023      34.58002       25.803388      135.51814    
-807649.57      3.156557       34.691435      25.815474      135.06266    
-807645.35      4.437727       33.648006      25.779619      134.609      
-807632.16      3.1550722      33.428041      25.786704      134.15589    
-807605.94      3.4008992      35.039487      25.722954      133.70534    
-807592.53      3.225613       38.359693      25.675126      133.25684    
-807612.56      2.8533529      35.578852      25.654176      132.80959    
-807637.01      3.2338119      33.122744      25.72057       132.36116    
-807644.48      4.2161567      33.545879      25.73987       131.91287    
-807651.06      3.0326184      34.363744      25.777693      131.46422    
-807655.61      3.1012907      33.972744      25.76325       131.01664    
-807646.39      2.8207004      33.07484       25.753004      130.56999    
-807623.83      2.9846657      33.480193      25.787893      130.12305    
-807601.6       3.1462437      35.214936      25.791856      129.67667    
-807602.84      3.2940903      37.155544      25.792892      129.23089    
-807616.17      2.7707467      34.951499      25.783965      128.78597    
-807630.86      2.6484697      32.747929      25.819035      128.34077    
-807643.21      4.2050785      33.961251      25.834614      127.89581    
-807658.81      3.1826713      33.75793       25.781314      127.45278    
-807652.96      3.6966805      34.347195      25.742142      127.01131    
-807638.41      2.7787886      33.67054       25.760042      126.56996    
-807619.69      3.7304932      34.062743      25.81237       126.12789    
-807612.27      3.1131216      36.964616      25.806885      125.68653    
-807601.88      3.5335162      38.07148       25.751429      125.24704    
-807612.4       3.9201272      36.005879      25.761465      124.80785    
-807628.1       3.663649       34.684124      25.800319      124.36827    
-807652.62      3.3603038      34.660114      25.786792      123.92953    
-807651.28      3.4234435      35.847519      25.713785      123.493      
-807646.35      2.7177539      34.888484      25.737223      123.05642    
-807635.2       2.8542132      34.67247       25.787011      122.61918    
-807628.38      3.0326663      34.062451      25.78052       122.18258    
-807607.06      3.6342087      36.407248      25.741485      121.74734    
-807600.27      3.2840734      37.021617      25.770112      121.31193    
-807612.62      3.4755881      35.78824       25.795759      120.87642    
-807638.52      3.5896859      34.269613      25.694515      120.4436     
-807646.58      3.4583416      34.591878      25.630003      120.01261    
-807644.99      3.9716629      36.056564      25.660052      119.58137    
-807648.11      3.1827808      33.761845      25.72399       119.14916    
-807640.17      2.992665       33.472656      25.659514      118.71873    
-807621.17      3.4251465      35.450224      25.722451      118.28737    
-807599.58      3.2328543      37.567818      25.79377       117.85493    
-807603.2       3.8258507      38.750061      25.787159      117.42305    
-807619.65      3.1380087      35.871528      25.764654      116.99204    
-807634.85      3.845199       34.569812      25.743581      116.56187    
-807640.71      3.6939702      35.607355      25.779526      116.13136    
-807653.28      4.0717737      34.26867       25.741818      115.702      
-807649         3.5865084      34.024216      25.776538      115.27233    
-807636.85      4.0202168      33.211779      25.731002      114.84395    
-807612.66      3.1535716      34.892957      25.771754      114.41513    
-807607.47      3.3242185      36.420601      25.75369       113.98703    
-807605.95      3.363798       36.506275      25.738477      113.55959    
-807619.15      3.1938839      34.939284      25.755228      113.13218    
-807630.77      3.6017876      34.546708      25.772696      112.70479    
-807650.21      3.676513       34.085454      25.792474      112.27739    
-807653.11      2.7843569      34.868295      25.811337      111.84999    
-807646.62      3.1784236      34.174549      25.805392      111.42306    
-807631.71      3.624121       33.945098      25.78898       110.99677    
-807618.69      3.3152444      35.306102      25.796856      110.57069    
-807610.87      3.3633822      35.405488      25.792218      110.14502    
-807604.77      2.9102516      35.816824      25.780571      109.71989    
-807618.12      2.6072053      33.590328      25.791335      109.29489    
-807641.29      3.0546279      32.441236      25.804918      108.86998    
-807651.42      3.2858176      33.339196      25.726869      108.44675    
-807650.55      3.1952666      34.005083      25.716403      108.024      
-807643.38      3.2295518      33.541599      25.759852      107.60079    
-807635.87      2.9416439      32.628488      25.827367      107.17674    
-807620.73      2.6217733      34.854728      25.80169       106.75343    
-807604.42      3.3121069      36.213931      25.809611      106.33029    
-807606.54      3.3238994      36.205493      25.762132      105.90823    
-807626.24      3.6644303      33.516654      25.783458      105.48611    
-807641.22      3.9398135      34.582601      25.743628      105.06492    
-807644.41      3.8420484      35.397501      25.783426      104.64336    
-807646.95      2.9340374      34.277199      25.752249      104.22258    
-807646.69      3.2051373      33.132916      25.771828      103.80176    
-807632.83      2.6905586      33.663387      25.761836      103.38136    
-807612.89      2.8525752      34.314274      25.756437      102.96131    
-807607.42      3.2950205      35.171924      25.780459      102.54114    
-807611.63      3.1463268      34.982764      25.779002      102.12126    
-807628.36      2.7230814      33.55835       25.740055      101.70224    
-807636.28      3.9128165      33.738668      25.763064      101.2831     
-807648.26      2.96272        33.999401      25.752055      100.86439    
-807650.13      3.0111746      33.963082      25.73807       100.44612    
-807644.07      2.7178996      33.230011      25.74753       100.02795    
-807625.28      2.7332249      34.056351      25.774932      99.609609    
-807615.2       3.3666226      34.922335      25.816075      99.19091     
-807606.71      3.1960908      37.189293      25.799301      98.7727      
-807612.12      3.4069029      36.308468      25.78552       98.354926    
-807621.2       4.0859313      35.137205      25.794569      97.937256    
-807639.33      4.4674096      34.265212      25.743072      97.520546    
-807649.32      3.3436984      34.567688      25.747845      97.103988    
-807648.17      4.0287833      34.294712      25.731261      96.687877    
-807636.78      3.3145773      34.357204      25.73912       96.271868    
-807626.86      3.3490799      34.12664       25.7756        95.85557     
-807615.45      3.1642963      34.844781      25.781996      95.4394      
-807606.93      3.3498525      35.915055      25.771935      95.02358     
-807609.06      3.6730734      35.396078      25.772984      94.607956    
-807625.83      3.290377       34.42227       25.784805      94.192383    
-807643.99      3.2389507      34.474383      25.735414      93.777667    
-807644.91      4.1575046      35.502759      25.73085       93.363207    
-807643.54      3.8411542      35.30435       25.716666      92.949122    
-807639.05      3.7986045      34.001255      25.722677      92.535147    
-807627.82      3.1330531      34.125314      25.782256      92.120598    
-807612.74      4.7056775      35.282936      25.798194      91.706045    
-807604.71      3.5202293      35.84396       25.805671      91.291597    
-807614.54      4.2756706      34.561042      25.796038      90.877463    
-807632.14      3.5370389      33.391113      25.779726      90.463723    
-807638.31      3.4329335      34.67312       25.809071      90.049813    
-807647.03      3.8676788      34.351181      25.789779      89.636327    
-807644.13      3.4714296      34.79157       25.760251      89.223381    
-807641.28      3.2207433      33.367906      25.743952      88.810807    
-807624.2       2.9098257      34.072881      25.729074      88.398581    
-807611.64      2.9302077      35.438174      25.786342      87.985851    
-807608.12      2.7923515      36.342835      25.72716       87.573987    
-807620.56      3.5911989      34.306548      25.788502      87.161578    
-807630.86      3.7991747      33.949428      25.746294      86.749826    
-807640.75      5.0835796      34.202197      25.775823      86.337903    
-807647.25      3.2508045      34.164987      25.737741      85.926576    
-807647.28      3.8629961      33.703306      25.758689      85.515174    
-807635.42      3.4773601      33.500972      25.763018      85.103884    
-807621.2       3.7318217      34.173577      25.813655      84.692199    
-807613.03      3.1874368      35.32662       25.774487      84.281108    
-807613.99      3.6205368      35.39091       25.729319      83.870664    
-807619.41      3.9465021      34.356786      25.787935      83.459741    
-807631.42      3.078031       33.601447      25.813589      83.048703    
-807646.35      4.2712109      33.366255      25.803081      82.637937    
-807648.2       2.9244985      33.500833      25.751415      82.227868    
-807643.01      3.8986993      33.988865      25.765276      81.817802    
-807631.68      2.5493374      32.973029      25.795592      81.407573    
-807626.23      3.0302108      33.321159      25.800728      80.997442    
-807613.17      3.4054064      35.037625      25.779531      80.587677    
-807613.74      3.0538851      35.167412      25.7935        80.177917    
-807620.23      2.9350609      33.778094      25.780979      79.768428    
-807636.79      3.7274152      33.468296      25.742883      79.359459    
-807645.2       3.9732819      33.677221      25.788093      78.950182    
-807644.88      2.9955834      34.101698      25.791846      78.541011    
-807638.92      2.3396043      33.857887      25.782595      78.132069    
-807634.43      3.4385517      33.888586      25.747211      77.723602    
-807621.3       3.2829241      34.332053      25.774709      77.315006    
-807611.48      3.2062758      35.584025      25.776835      76.906524    
-807612.02      3.9783506      35.62578       25.753203      76.498395    
-807625.76      3.3029679      34.259728      25.706656      76.090825    
-807635.55      3.1667481      34.456211      25.75576       75.682924    
-807643.18      3.0593154      34.385014      25.75249       75.275178    
-807642.65      3.4773671      35.027562      25.709952      74.86794     
-807641.83      3.104669       34.417544      25.702605      74.460884    
-807632.34      3.0722708      34.277782      25.769389      74.053351    
-807617.5       3.0006789      34.947287      25.802978      73.645646    
-807612.17      3.6175013      35.643227      25.798394      73.238109    
-807615.49      2.9432947      35.179479      25.770748      72.830935    
-807626.25      3.7847203      34.179881      25.808192      72.423561    
-807632.52      3.8636871      34.043465      25.803434      72.016352    
-807641.68      2.9763869      34.121592      25.749966      71.609714    
-807645.66      3.3820859      34.076854      25.760441      71.203102    
-807641.01      3.8552435      33.831838      25.792255      70.796343    
-807627.52      2.9643659      34.086403      25.769945      70.389882    
-807618.94      3.2000543      34.125607      25.779192      69.98346     
-807612.84      3.0099562      35.626852      25.711         69.577702    
-807616.44      2.9209345      34.800443      25.685167      69.172252    
-807622.61      3.1373629      34.179631      25.787935      68.766088    
-807636.49      3.0461167      33.52692       25.771898      68.360161    
-807644.04      3.3665708      34.35769       25.72575       67.9547      
-807643.01      3.2900542      35.232404      25.711323      67.549453    
-807635.19      3.7486372      34.377477      25.739643      67.144087    
-807628.77      3.4661199      34.455587      25.753046      66.738721    
-807618.85      3.3746841      35.197901      25.748887      66.333488    
-807610.73      3.1517325      36.28672       25.783092      65.928102    
-807613.66      3.0664152      35.712953      25.774241      65.522886    
-807628.5       2.8596536      33.483202      25.773062      65.11778     
-807638.04      3.77178        34.21417       25.7564        64.712896    
-807643.33      3.4010136      34.231458      25.755445      64.308117    
-807640.1       2.884667       35.180115      25.762795      63.903383    
-807637.46      3.0811677      34.211673      25.757197      63.498786    
-807628.38      2.6778287      34.293395      25.753305      63.094311    
-807615.94      2.9447184      35.001042      25.785669      62.689707    
-807611.8       2.9333107      35.444961      25.819813      62.284969    
-807619.01      2.5016525      34.978702      25.812887      61.880378    
-807630.41      2.8333041      33.35249       25.76496       61.476208    
-807637.14      2.7900902      33.363422      25.716505      61.072452    
-807643.72      3.1547268      33.511908      25.747831      60.668575    
-807642.5       4.2027321      34.463496      25.723204      60.264948    
-807639.12      3.1045452      33.160585      25.729902      59.861363    
-807624.98      3.3162206      34.043032      25.715567      59.457955    
-807616.62      3.9319027      35.718184      25.744614      59.054445    
-807615.38      4.0112561      35.308738      25.767218      58.650878    
-807620.43      3.3158784      34.967427      25.829543      58.247012    
-807628.85      2.7542501      33.45292       25.765549      57.843634    
-807639.61      3.1363406      33.512689      25.675757      57.44089     
-807644.43      3.699399       33.964085      25.678078      57.038207    
-807642.45      2.8840667      33.804606      25.720371      56.635343    
-807634.37      3.3389791      34.061896      25.757197      56.23234     
-807625.74      3.3165327      34.112823      25.79292       55.829209    
-807619.22      2.9281897      34.606926      25.825239      55.425977    
-807617.29      2.9947972      35.51801       25.842858      55.022733    
-807620.28      2.9422034      34.27577       25.789282      54.619882    
-807632.23      3.7185899      33.750586      25.780478      54.217164    
-807642.13      2.8708506      32.346409      25.781945      53.814518    
-807641.7       2.6328588      33.460792      25.747595      53.412143    
-807639.06      2.8316362      33.218073      25.755756      53.009799    
-807634.15      3.5050264      33.076383      25.765864      52.607478    
-807625.87      2.3822607      33.214699      25.770924      52.205206    
-807618.8       3.5027901      33.77279       25.784735      51.802938    
-807616.45      3.6867001      35.062031      25.799487      51.400671    
-807622.33      2.7618404      34.942209      25.79944       50.998483    
-807634.76      3.2843214      33.932273      25.783732      50.596454    
-807638.25      3.4946224      34.642542      25.767371      50.194583    
-807640.75      3.5914894      34.92293       25.693468      49.793158    
-807638.97      3.9810218      34.178932      25.75136       49.39151     
-807633.05      2.5948494      34.24284       25.794197      48.989721    
-807622.67      3.3434001      34.84226       25.798083      48.587989    
-807614.46      2.9819625      35.682894      25.748632      48.186569    
-807617.01      3.6183323      35.960169      25.764752      47.78514     
-807623.09      3.2116719      35.058143      25.793626      47.383646    
-807633.48      2.6884984      34.442687      25.80295       46.982181    
-807637.11      3.6066184      35.365855      25.817653      46.580721    
-807642.01      3.1259872      34.317364      25.761372      46.17959     
-807639.4       2.9793675      33.67292       25.708383      45.778765    
-807630.94      2.8530037      33.962601      25.724382      45.377931    
-807619.24      3.2975274      34.764126      25.756381      44.977017    
-807614.92      3.0217398      35.482906      25.716283      44.576344    
-807616.57      3.0318397      35.611162      25.769523      44.175503    
-807625.24      2.9186634      35.208366      25.772779      43.774713    
-807633.34      3.1086766      34.771973      25.766272      43.374016    
-807638.33      3.9309063      35.589504      25.769927      42.973367    
-807643.18      3.3351195      34.784742      25.772756      42.572772    
-807636.46      2.5767722      34.671916      25.80902       42.172094    
-807627.86      3.4348644      35.33439       25.790281      41.771557    
-807619.37      2.8975891      35.277871      25.756423      41.371219    
-807615.97      2.8405918      35.891743      25.772589      40.970878    
-807616.49      3.2438159      35.467256      25.754843      40.570668    
-807626.76      3.0184386      34.131552      25.763685      40.170485    
-807634.21      3.0099319      34.623706      25.768712      39.770342    
-807639.61      3.5665424      34.510774      25.745276      39.370347    
-807639.83      3.8031852      35.509007      25.732269      38.970457    
-807636.3       3.4277062      34.512392      25.824498      38.570289    
-807627.44      3.7076323      35.202859      25.784406      38.170329    
-807622.29      3.3535345      34.86233       25.757623      37.770522    
-807617.24      4.0577045      35.585093      25.763885      37.370751    
-807620.01      2.8470697      35.579957      25.783588      36.97097     
-807627.48      3.9607629      34.919242      25.766852      36.571303    
-807636.17      3.2400722      35.001033      25.770989      36.17168     
-807639.16      3.4514505      34.739278      25.765507      35.772131    
-807638.73      2.9723213      35.255848      25.721822      35.37278     
-807634.26      3.1608069      34.468045      25.695229      34.973567    
-807627.68      2.7694166      34.73008       25.718117      34.574329    
-807620.42      2.959482       34.91044       25.77251       34.174971    
-807616.73      3.294601       35.257437      25.744179      33.775756    
-807621.07      3.672891       36.003387      25.787619      33.37646     
-807630.84      3.3221204      33.791021      25.804922      32.977167    
-807635.3       2.957067       34.423616      25.771406      32.57803     
-807638.73      3.7305988      34.577845      25.759912      32.178979    
-807641.6       2.6339295      33.552627      25.758031      31.779985    
-807633.62      2.9830455      33.653724      25.772487      31.381002    
-807626.47      2.8981369      34.368792      25.792376      30.982015    
-807619.2       2.6873998      34.760749      25.768016      30.583148    
-807618.94      2.7800802      34.793219      25.78669       30.184282    
-807620.82      3.5919126      35.792222      25.806857      29.785414    
-807631.69      2.8733171      34.547092      25.760552      29.386721    
-807635.28      2.8902504      34.355715      25.738181      28.988134    
-807639.94      3.0636294      34.455407      25.771142      28.589511    
-807639.86      3.3192673      33.740259      25.799677      28.190867    
-807632.85      3.3142435      34.887936      25.808113      27.792253    
-807625.47      3.4171712      33.901942      25.790592      27.393733    
-807620.53      2.7489221      34.523775      25.807234      26.995223    
-807616.82      3.5878953      35.981963      25.787489      26.596811    
-807623.84      3.0093337      34.410934      25.839747      26.198328    
-807630.66      3.617044       34.555808      25.772668      25.800048    
-807636.32      2.8569345      34.545763      25.74366       25.401879    
-807638.41      2.9368647      35.280346      25.708853      25.003831    
-807637.75      3.7388647      34.723778      25.722718      24.605795    
-807631.57      3.1461593      33.992551      25.759782      24.207723    
-807622.41      3.8827764      34.700697      25.76012       23.809696    
-807619.34      4.6906484      35.199008      25.708059      23.411818    
-807618.14      3.771343       35.612383      25.714989      23.013967    
-807624.19      3.3538682      34.659894      25.730752      22.616125    
-807630.31      3.6307303      34.558166      25.719165      22.218347    
-807636.13      3.3074318      35.078711      25.746932      21.820558    
-807637.34      3.8374705      35.098485      25.766258      21.422775    
-807637.49      3.3048516      34.519409      25.772964      21.025024    
-807629.44      3.6739515      34.965837      25.806103      20.627258    
-807623.73      2.8909025      35.734919      25.791818      20.229562    
-807619.28      3.9429002      35.671969      25.818537      19.831867    
-807618.9       3.3143013      36.496461      25.81471       19.434223    
-807621.89      3.7893874      36.373088      25.7999        19.036649    
-807632.68      3.2254465      34.70038       25.781592      18.639147    
-807632.98      3.7180814      36.294339      25.78447       18.241683    
-807637.95      3.1556159      35.010041      25.750512      17.844312    
-807634.23      3.2888154      35.179417      25.772343      17.446949    
-807629.45      2.7600604      34.439877      25.772649      17.049626    
-807621.97      3.1358667      33.408392      25.7569        16.652366    
-807620.92      2.8124896      34.325961      25.767626      16.255131    
-807619.72      3.569875       34.65457       25.750901      15.857957    
-807625.93      3.177004       34.399188      25.755222      15.460816    
-807630.6       3.6034977      35.392399      25.66633       15.063824    
-807638.14      2.808777       34.134932      25.70919       14.666813    
-807637.51      3.6833641      34.784853      25.707168      14.269838    
-807634.36      2.8129205      34.045803      25.721946      13.872881    
-807628.47      2.6194977      33.898627      25.692282      13.475991    
-807623.32      2.3201554      34.013764      25.770135      13.079052    
-807620.28      3.1083926      34.453733      25.714763      12.682207    
-807621.38      2.5785712      34.047982      25.807694      12.285304    
-807627.3       2.9957948      33.997066      25.769101      11.888478    
-807633.55      3.3073369      33.914107      25.757275      11.4917      
-807637.71      3.4136314      34.020761      25.763597      11.094953    
-807636.24      3.0991764      35.101506      25.81143       10.698201    
-807634.33      3.9920334      34.936377      25.7474        10.301541    
-807626.84      2.8622406      35.218947      25.788636      9.9048835    
-807624.15      2.9827769      35.781659      25.768943      9.5082782    
-807620.54      3.0589247      35.247424      25.787442      9.1116952    
-807623.04      2.6304594      34.773279      25.774333      8.7151582    
-807628.64      3.463115       33.85967       25.777549      8.3186548    
-807635.52      2.598887       33.930906      25.815274      7.9221634    
-807635.64      3.433977       34.551725      25.814952      7.5257101    
-807637.74      2.7320723      33.73225       25.799867      7.129303     
-807632.1       2.7472203      34.147428      25.73109       6.7329689    
-807630         3.3013956      34.269286      25.681651      6.3366913    
-807621.61      2.758049       34.483156      25.667149      5.9404489    
-807620.9       2.8806603      35.349351      25.705511      5.5442171    
-807623.16      2.911685       34.677753      25.753481      5.1479955    
-807629.64      3.3102032      35.476759      25.789607      4.7517931    
-807632.31      3.6370731      35.242427      25.806856      4.3556194    
-807636.83      4.1545281      34.476243      25.8133        3.9594791    
-807636.24      3.5312402      34.809524      25.800969      3.5633779    
-807632.05      3.8690628      35.356123      25.791813      3.1673135    
-807626.03      2.7804612      35.010022      25.737449      2.7712946    
-807621.31      3.3107728      35.461746      25.737542      2.3753059    
-807621.92      3.1129911      35.062018      25.736658      1.9793475    
-807624.33      3.705524       35.537778      25.776208      1.5834142    
-807628.46      4.3878433      34.837217      25.788506      1.1875119    
-807631.43      3.5872418      35.389783      25.759958      0.79164389   
-807635.2       3.5608843      36.113376      25.754963      0.39580682   
-807633.55      3.3000761      35.016049      25.758382      0            
Loop time of 197.896 on 32 procs for 5000 steps with 1080 atoms

Performance: 4.366 ns/day, 5.497 hours/ns, 25.266 timesteps/s, 27.287 katom-step/s
67.8% CPU use with 32 MPI tasks x 1 OpenMP threads

MPI task timing breakdown:
Section |  min time  |  avg time  |  max time  |%varavg| %total
---------------------------------------------------------------
Pair    | 101.73     | 145.59     | 193.65     | 312.8 | 73.57
Neigh   | 0          | 0          | 0          |   0.0 |  0.00
Comm    | 1.909      | 49.949     | 93.8       | 533.9 | 25.24
Output  | 0.029526   | 0.030315   | 0.031856   |   0.3 |  0.02
Modify  | 1.983      | 2.0068     | 2.0269     |   0.9 |  1.01
Other   |            | 0.3205     |            |       |  0.16

Nlocal:          33.75 ave          48 max          21 min
Histogram: 8 8 0 0 0 0 0 8 0 8
Nghost:        1106.25 ave        1119 max        1092 min
Histogram: 8 0 8 0 0 0 0 0 8 8
Neighs:              0 ave           0 max           0 min
Histogram: 32 0 0 0 0 0 0 0 0 0
FullNghs:       5494.5 ave        7896 max        3378 min
Histogram: 8 8 0 0 0 0 0 8 0 8

Total # of neighbors = 175824
Ave neighs/atom = 162.8
Neighbor list builds = 0
Dangerous builds = 0

reset_timestep 0


variable interval equal 1000
thermo 10

variable nintervals equal $(v_PERIOD/v_interval)
variable nintervals equal 100
variable efield equal 1e-2*36.36*cos((step/${PERIOD})*2*3.14)
variable efield equal 1e-2*36.36*cos((step/100000)*2*3.14)
fix born all addbornforce 0.0 0.0 v_efield

variable Px equal f_born[1]+c_polarization[1]
variable Py equal f_born[2]+c_polarization[2]
variable Pz equal (f_born[3]+c_polarization[3])/vol
variable pe equal pe

fix aveP all ave/time 1 $(v_interval/2) ${interval} v_efield v_Pz v_pe f_born file Pz.${MODEL}.${STRUCTURE}.${TEMP}.$L.${ITER}
fix aveP all ave/time 1 500 ${interval} v_efield v_Pz v_pe f_born file Pz.${MODEL}.${STRUCTURE}.${TEMP}.$L.${ITER}
fix aveP all ave/time 1 500 1000 v_efield v_Pz v_pe f_born file Pz.${MODEL}.${STRUCTURE}.${TEMP}.$L.${ITER}
fix aveP all ave/time 1 500 1000 v_efield v_Pz v_pe f_born file Pz.BaTiO3-E0.${STRUCTURE}.${TEMP}.$L.${ITER}
fix aveP all ave/time 1 500 1000 v_efield v_Pz v_pe f_born file Pz.BaTiO3-E0.BaTiO3-sc333.${TEMP}.$L.${ITER}
fix aveP all ave/time 1 500 1000 v_efield v_Pz v_pe f_born file Pz.BaTiO3-E0.BaTiO3-sc333.320.$L.${ITER}
fix aveP all ave/time 1 500 1000 v_efield v_Pz v_pe f_born file Pz.BaTiO3-E0.BaTiO3-sc333.320.2.${ITER}
fix aveP all ave/time 1 500 1000 v_efield v_Pz v_pe f_born file Pz.BaTiO3-E0.BaTiO3-sc333.320.2.7

thermo_style custom step time temp press pe f_born v_efield v_Pz spcpu cpuremain

# dump 4a all custom 1000 dump.hyst.${MODEL}.${STRUCTURE}.${TEMP}.$L.${ITER}.bin id type xu yu zu fx fy fz
# dump_modify 4a sort id

fix nvt all nvt temp ${TEMP} ${TEMP} $(100*dt)
fix nvt all nvt temp 320 ${TEMP} $(100*dt)
fix nvt all nvt temp 320 320 $(100*dt)
fix nvt all nvt temp 320 320 0.2000000000000000111

run $(v_PERIOD)
run 100000
WARNING: non-constant efield is experimental, strongly distrust scalar/vector output (src/fix_addbornforce.cpp:193)
Per MPI rank memory allocation (min/avg/max) = 3.516 | 3.516 | 3.516 Mbytes
   Step          Time           Temp          Press          PotEng         f_born        v_efield         v_Pz          S/CPU         CPULeft    
         0   0              325.8044       130010.63     -807633.55     -297.30768      0.3636         0.055915186    0              0            
        10   0.02           325.30734      132773.1      -807628.39     -302.4928       0.36359993     0.056890372    28.369593      3524.5623    
        20   0.04           335.30993      138028.98     -807624.85     -307.42933      0.36359971     0.057818828    28.364288      3524.5373    
        30   0.06           318.6103       139124.15     -807622.31     -307.70944      0.36359935     0.057871566    28.357563      3524.5676    
        40   0.08           327.69803      141138.22     -807620.56     -310.71582      0.36359885     0.058437062    28.414971      3522.6272    
        50   0.1            336.74979      136663.61     -807625.04     -307.71497      0.36359821     0.057872789    28.344186      3523.08      
        60   0.12           326.94052      135650.14     -807627.37     -304.05377      0.36359742     0.05718434     28.357822      3522.9809    
        70   0.14           323.89897      129483.39     -807634.31     -296.85081      0.36359649     0.055829801    28.36163       3522.7412    
        80   0.16           316.60509      130980.21     -807633.25     -296.98089      0.36359541     0.05585443     28.432858      3521.3706    
        90   0.18           321.73371      129246.4      -807632.46     -298.83797      0.36359419     0.056203889    28.390789      3520.8044    
       100   0.2            327.96148      134741.43     -807628.73     -303.564        0.36359283     0.057092949    28.397259      3520.2018    
       110   0.22           324.99389      134059.02     -807628.34     -303.89942      0.36359132     0.05715627     28.365046      3520.0079    
       120   0.24           328.95873      140636.77     -807622.29     -310.68408      0.36358968     0.058432568    28.438579      3519.0276    
       130   0.26           311.44625      138294.6      -807621.14     -309.86058      0.36358788     0.058277974    28.428105      3518.2447    
       140   0.28           330.46175      139118.3      -807625.37     -308.36988      0.36358595     0.057997916    28.360596      3518.1203    
       150   0.3            314.11857      131407.41     -807632.46     -299.36008      0.36358387     0.056303683    28.366732      3517.9144    
       160   0.32           317.75622      133234.45     -807631.69     -300.67583      0.36358165     0.056551494    28.33714       3517.9201    
       170   0.34           309.02661      127473.75     -807634.46     -297.09473      0.36357928     0.05587832     28.453685      3517.0352    
       180   0.36           328.48476      132532.64     -807633.81     -300.45825      0.36357677     0.05651133     28.409322      3516.5136    
       190   0.38           317.15177      131076.27     -807633.55     -299.49839      0.36357412     0.056331205    28.362108      3516.3176    
       200   0.4            319.06355      139801.64     -807624.92     -308.40779      0.36357132     0.058007378    28.331146      3516.2983    
       210   0.42           305.8332       137236.01     -807622.96     -308.82065      0.36356838     0.058085502    28.347132      3516.1526    
       220   0.44           317.22992      140566.41     -807623.46     -309.80377      0.3635653      0.05827091     28.367991      3515.8705    
       230   0.46           310.07298      134121.3      -807628.97     -303.52778      0.36356207     0.057090966    28.406983      3515.3723    
       240   0.48           314.2737       134776.49     -807628.6      -304.33837      0.3635587      0.057243962    28.327099      3515.299     
       250   0.5            309.51945      129239.11     -807632.53     -299.88553      0.36355519     0.056406958    28.322964      3515.2238    
       260   0.52           310.47207      131241.19     -807633.91     -298.47221      0.36355153     0.056141684    28.24153       3515.518     
       270   0.54           313.90996      131105.35     -807634.86     -298.10243      0.36354773     0.056072716    28.259969      3515.6785    
       280   0.56           312.39119      134562.93     -807628.38     -304.29527      0.36354379     0.057238204    28.357878      3515.3671    
       290   0.58           327.68364      136640.36     -807626.36     -308.36613      0.3635397      0.058004588    28.349703      3515.088     
       300   0.6            322.21554      137109.72     -807626.6      -307.38423      0.36353547     0.057820561    28.285135      3515.072     
       310   0.62           325.60896      138374.19     -807627.48     -306.8433       0.3635311      0.057719505    28.345937      3514.7898    
       320   0.64           315.18188      134838.23     -807627.77     -305.16875      0.36352658     0.057405222    28.466555      3514.0377    
       330   0.66           316.69893      134701.73     -807628.56     -304.39914      0.36352192     0.057261186    28.491717      3513.2162    
       340   0.68           302.94451      128678.23     -807633.92     -297.14561      0.36351712     0.055897445    28.377043      3512.8382    
       350   0.7            310.48195      131965.41     -807634.18     -297.71181      0.36351217     0.05600472     28.267523      3512.8504    
       360   0.72           307.04468      129805.93     -807631.89     -299.64381      0.36350708     0.056368951    28.278806      3512.803     
       370   0.74           321.05007      137194.49     -807626.06     -307.20607      0.36350185     0.057792394    28.426118      3512.2458    
       380   0.76           324.19352      135120        -807629.07     -304.58287      0.36349647     0.057299759    28.404058      3511.7707    
       390   0.78           318.80668      140296.41     -807624.29     -308.35386      0.36349095     0.058010059    28.383956      3511.366     
       400   0.8            322.81735      135940.24     -807626.03     -307.28214      0.36348529     0.057809337    28.350051      3511.0687    
       410   0.82           320.39074      137177.88     -807625.13     -307.60455      0.36347948     0.057870919    28.44563       3510.4808    
       420   0.84           312.96055      130126.6      -807633.06     -298.58189      0.36347353     0.056174368    28.382752      3510.0888    
       430   0.86           312.66807      132075.14     -807632.82     -298.55204      0.36346744     0.056169693    28.490844      3509.3892    
       440   0.88           316.84598      129051.79     -807633.2      -298.82694      0.3634612      0.056222377    28.435021      3508.8612    
       450   0.9            320.34646      135402.15     -807628.33     -303.90648      0.36345482     0.057179065    28.316534      3508.6666    
       460   0.92           317.73831      133377.43     -807629.54     -302.27056      0.3634483      0.056872293    28.272424      3508.5844    
       470   0.94           327.07317      138996.23     -807625.88     -306.98023      0.36344163     0.057759477    28.280286      3508.4697    
       480   0.96           331.95444      136804.07     -807625.14     -308.42488      0.36343482     0.058032381    28.406633      3508.0191    
       490   0.98           317.87885      138894.74     -807622.32     -309.0906       0.36342786     0.058158755    28.42337       3507.5305    
       500   1              324.30558      132973.79     -807631.38     -300.89087      0.36342077     0.056616991    28.352543      3507.2222    
       510   1.02           314.76993      133355.22     -807631.42     -9578.1106      0.36341353     0.05632177     28.232909      3507.2036    
       520   1.04           315.75156      129751.18     -807631.5      -9580.4393      0.36340614     0.056336608    28.186911      3507.2828    
       530   1.06           318.87409      133249.33     -807629.64     -9649.8569      0.36339862     0.056745986    28.260755      3507.1716    
       540   1.08           318.43318      133651.94     -807630.42     -9619.779       0.36339095     0.056570306    28.232236      3507.1172    
       550   1.1            326.34031      136201.73     -807627.42     -9747.897       0.36338313     0.057324953    28.073522      3507.4141    
       560   1.12           327.23801      137798.56     -807623.69     -9869.525       0.36337518     0.058041488    28.09693       3507.6348    
       570   1.14           322.6027       139059.16     -807622.43     -9884.4437      0.36336707     0.058130519    28.220628      3507.5633    
       580   1.16           328.97818      135130.09     -807627.27     -9754.7129      0.36335883     0.057368872    28.218815      3507.4859    
       590   1.18           325.52814      134739.44     -807629.58     -9660.4876      0.36335044     0.056816031    28.244571      3507.3446    
       600   1.2            317.91101      132364.06     -807629.9      -9616.4135      0.36334191     0.056558147    28.315912      3507.0485    
       610   1.22           322.6596       132456.13     -807630.86     -9601.598       0.36333324     0.056472358    28.323687      3506.7348    
       620   1.24           318.53778      131803.03     -807631.49     -9560.1447      0.36332442     0.056229913    28.261519      3506.5442    
       630   1.26           323.69772      133415.85     -807629.25     -9651.4663      0.36331546     0.056768439    28.23012       3506.4105    
       640   1.28           328.2878       136368.68     -807625.09     -9802.8981      0.36330636     0.057660583    28.254253      3506.223     
       650   1.3            324.0163       137659.45     -807622.85     -9851.6984      0.36329711     0.057949101    28.402193      3505.7485    
       660   1.32           329.73848      137040.44     -807625.37     -9791.149       0.36328772     0.057594429    28.415828      3505.2524    
       670   1.34           318.91501      136600.85     -807625.78     -9724.8845      0.36327819     0.057206143    28.358967      3504.8652    
       680   1.36           335.19971      134078.13     -807628.71     -9701.2734      0.36326851     0.057068772    28.329067      3504.5333    
       690   1.38           337.79914      131374.47     -807631.33     -9621.806       0.36325869     0.056602826    28.328657      3504.2016    
       700   1.4            320.21506      132544.7      -807630.59     -9562.7736      0.36324873     0.056257095    28.286868      3503.9432    
       710   1.42           318.155        133284.42     -807629.59     -9583.6844      0.36323863     0.056381681    28.286097      3503.6835    
       720   1.44           336.22953      136061.28     -807626.88     -9747.7329      0.36322838     0.057348411    28.252998      3503.4783    
       730   1.46           324.94217      136185.03     -807623.95     -9788.2017      0.36321798     0.057588147    28.241858      3503.288     
       740   1.48           328.35829      138147.89     -807624.22     -9789.9161      0.36320745     0.057599905    28.257241      3503.0674    
       750   1.5            328.70385      136027.67     -807625.66     -9745.6485      0.36319677     0.057341138    28.294101      3502.7824    
       760   1.52           335.15976      137970.33     -807625.31     -9783.4172      0.36318595     0.057565076    28.323317      3502.4478    
       770   1.54           330.03448      133187.29     -807628.96     -9646.1016      0.36317498     0.056758832    28.311724      3502.1314    
       780   1.56           337.98233      133200.72     -807632.08     -9576.8761      0.36316387     0.056353225    28.227983      3501.9473    
       790   1.58           316.68869      129736.75     -807631.35     -9513.0006      0.36315262     0.055979097    28.261698      3501.7059    
       800   1.6            321.55809      135245.49     -807626.34     -9697.0614      0.36314122     0.05706399     28.220745      3501.5253    
       810   1.62           323.89582      133589.86     -807627.12     -9690.8145      0.36312968     0.057029041    28.203235      3501.3674    
       820   1.64           325.74369      137926.98     -807624.24     -9790.8902      0.363118       0.057619826    28.206113      3501.2004    
       830   1.66           327.8589       136451.51     -807625.62     -9765.4941      0.36310618     0.05747224     28.253416      3500.9579    
       840   1.68           324.58497      139566.63     -807622.31     -9861.3019      0.36309421     0.058038005    28.224789      3500.755     
       850   1.7            330.38688      133913.93     -807628.39     -9704.4714      0.3630821      0.057116895    28.231061      3500.5395    
       860   1.72           328.49041      133402.84     -807630.72     -9625.519       0.36306984     0.056654123    28.240989      3500.3064    
       870   1.74           323.23617      131081.5      -807633.27     -9530.5783      0.36305745     0.056097234    28.249247      3500.0587    
       880   1.76           313.91557      132827.43     -807630.07     -9600.5845      0.3630449      0.056511244    28.254609      3499.801     
       890   1.78           320.29346      133360.37     -807629.85     -9643.3196      0.36303222     0.056764776    28.278443      3499.508     
       900   1.8            329.44291      135195.56     -807629.65     -9697.758       0.36301939     0.057087241    28.303727      3499.1787    
       910   1.82           327.74527      137600.63     -807627.15     -9778.5432      0.36300642     0.057564852    28.363175      3498.7684    
       920   1.84           318.43274      137672.98     -807623.81     -9851.8342      0.36299331     0.0579984      28.433965      3498.2648    
       930   1.86           320.32161      136864.34     -807626.08     -9791.2884      0.36298005     0.057644068    28.344292      3497.8829    
       940   1.88           318.51214      133493.37     -807630.77     -9640.4588      0.36296665     0.056758187    28.279778      3497.5865    
       950   1.9            312.89604      133320.85     -807630.53     -9624.3062      0.36295311     0.056665203    28.287337      3497.279     
       960   1.92           315.97917      130070.64     -807632.99     -9568.3337      0.36293942     0.056337777    28.288578      3496.969     
       970   1.94           307.06156      133166.34     -807630.31     -9614.5255      0.36292559     0.056611909    28.319911      3496.6181    
       980   1.96           313.64926      131813.16     -807631.73     -9604.3546      0.36291162     0.056554199    28.232898      3496.3772    
       990   1.98           314.76657      136469.42     -807626.43     -9778.693       0.3628975      0.057583011    28.389263      3495.9389    
      1000   2              309.7576       136069.65     -807625.2      -9801.4151      0.36288325     0.05771908     28.306972      3495.6036    
      1010   2.02           319.10361      139019.49     -807625.19     -307.53457      0.36286884     0.057955115    28.414554      3495.137     
      1020   2.04           317.94477      134391.13     -807628.84     -303.7638       0.3628543      0.057246806    28.366889      3494.7299    
      1030   2.06           317.72011      135783.28     -807629.47     -303.03216      0.36283961     0.057111235    28.489506      3494.1782    
      1040   2.08           328.16068      130243.26     -807634.04     -299.96194      0.36282478     0.056534913    28.437376      3493.6914    
      1050   2.1            315.18025      132480        -807632.2      -299.84089      0.3628098      0.056514432    28.374816      3493.2804    
      1060   2.12           307.09554      131277.94     -807633.28     -297.72136      0.36279469     0.056117277    28.4143        3492.8248    
      1070   2.14           319.82264      134960.91     -807630.34     -302.34345      0.36277943     0.056990888    28.35699       3492.4368    
      1080   2.16           317.94582      134772.9      -807627.48     -305.02888      0.36276402     0.057499525    28.445268      3491.9492    
      1090   2.18           304.79398      138854.97     -807623.55     -306.97717      0.36274848     0.05786927     28.431057      3491.4801    
      1100   2.2            304.2753       137275.08     -807625.54     -304.87974      0.36273279     0.057476362    28.4415        3491.0016    
      1110   2.22           316.22625      135988.23     -807626.84     -305.13384      0.36271695     0.057526775    28.339434      3490.6381    
      1120   2.24           314.2923       133752.5      -807629.07     -302.52901      0.36270098     0.0570382      28.325951      3490.2896    
      1130   2.26           317.54547      132719.4      -807632.42     -299.42972      0.36268486     0.056456376    28.391774      3489.8695    
      1140   2.28           315.59664      131108.87     -807633.4      -297.99593      0.3626686      0.056188559    28.445003      3489.3934    
      1150   2.3            317.11686      131801.94     -807631.98     -299.47237      0.36265219     0.056469503    28.436246      3488.9287    
      1160   2.32           322.22099      134798.31     -807628.99     -302.93136      0.36263564     0.057124349    28.438427      3488.4637    
      1170   2.34           316.82913      136420.72     -807626.56     -304.44163      0.36261895     0.057411787    28.441223      3487.9978    
      1180   2.36           321.67024      138159.7      -807624.87     -306.50366      0.36260212     0.057803328    28.427072      3487.5484    
      1190   2.38           324.36121      136464.26     -807626.43     -305.13125      0.36258514     0.0575472      28.347648      3487.1825    
      1200   2.4            324.89294      137228.99     -807626.53     -304.74907      0.36256802     0.057477837    28.433254      3486.7294    
      1210   2.42           325.47629      132667.19     -807630.46     -300.66011      0.36255076     0.05670933     28.359692      3486.3524    
      1220   2.44           326.02152      132630.02     -807631.6      -299.07386      0.36253335     0.056412846    28.371291      3485.9641    
      1230   2.46           326.96173      129807.43     -807633.53     -297.11995      0.3625158      0.056047001    28.424583      3485.5234    
      1240   2.48           319.71943      134604.15     -807628.02     -301.2375       0.36249811     0.056826486    28.445579      3485.0634    
      1250   2.5            326.41328      133829.61     -807628.5      -301.50781      0.36248028     0.056880276    28.432943      3484.6176    
      1260   2.52           328.54891      137058.5      -807624.62     -305.34801      0.3624623      0.057607599    28.417351      3484.1883    
      1270   2.54           329.20699      136549.45     -807625.02     -304.9199       0.36244418     0.057529707    28.444308      3483.7343    
      1280   2.56           333.26909      137674.47     -807624.38     -305.8525       0.36242592     0.057708568    28.360344      3483.3622    
      1290   2.58           330.33011      134436.44     -807626.96     -302.80091      0.36240751     0.057135694    28.276561      3483.0703    
      1300   2.6            332.08804      134782.6      -807629.17     -300.64996      0.36238896     0.056732734    28.260287      3482.793     
      1310   2.62           322.43806      132151.7      -807630.11     -298.32806      0.36237027     0.056297495    28.196376      3482.5749    
      1320   2.64           332.15322      132639.73     -807631.25     -298.46294      0.36235143     0.056325875    28.296382      3482.261     
      1330   2.66           325.65098      132777.35     -807628.71     -300.14017      0.36233245     0.056645369    28.350242      3481.8967    
      1340   2.68           337.58022      135770.59     -807627.86     -302.66665      0.36231333     0.057125204    28.354295      3481.5289    
      1350   2.7            329.39377      136603.15     -807625.57     -303.88581      0.36229407     0.057358359    28.361405      3481.1549    
      1360   2.72           336.72122      138295.61     -807625.01     -305.53209      0.36227466     0.057672183    28.284336      3480.8508    
      1370   2.74           334.34114      135212.63     -807625.87     -304.44782      0.36225511     0.057470618    28.345723      3480.491     
      1380   2.76           326.57674      135471.25     -807625.76     -303.4888       0.36223542     0.057292698    28.391763      3480.0902    
      1390   2.78           327.92147      132766.9      -807630.37     -299.24488      0.36221558     0.056494623    28.393519      3479.6887    
      1400   2.8            319.71709      133001.9      -807629.62     -298.91181      0.3621956      0.056434855    28.325945      3479.3471    
      1410   2.82           330.80232      131385.38     -807631.69     -298.53936      0.36217548     0.056367668    28.38659       3478.9525    
      1420   2.84           325.65742      133371.55     -807629.09     -300.47197      0.36215522     0.056735741    28.364546      3478.5776    
      1430   2.86           332.92533      134582.28     -807628.47     -302.25979      0.36213481     0.057076537    28.439991      3478.1385    
      1440   2.88           333.33269      136565.28     -807625.8      -305.09137      0.36211426     0.057614503    28.367794      3477.7619    
      1450   2.9            335.16363      137059.37     -807625.62     -305.64415      0.36209357     0.057722189    28.37666       3477.3781    
      1460   2.92           320.5349       136479.25     -807625.25     -304.04965      0.36207273     0.057424365    28.469764      3476.9169    
      1470   2.94           327.91526      134823.49     -807628.22     -302.21141      0.36205176     0.057080493    28.437641      3476.4839    
      1480   2.96           322.92465      132663.63     -807630.4      -299.45849      0.36203064     0.056563831    28.435027      3476.0541    
      1490   2.98           321.8964       133045.75     -807630.8      -298.91248      0.36200937     0.056464015    28.370009      3475.6786    
      1500   3              325.35032      130382.02     -807632.72     -297.64754      0.36198796     0.056228395    28.508685      3475.1909    
      1510   3.02           325.9274       133496.83     -807630.57     -9595.668       0.36196642     0.056650595    28.350438      3474.8327    
      1520   3.04           325.34143      134035.17     -807628.71     -9658.8169      0.36194472     0.057026829    28.363462      3474.464     
      1530   3.06           327.80232      137379.65     -807625.11     -9787.4166      0.36192289     0.057789584    28.34404       3474.1111    
      1540   3.08           316.97965      136705.67     -807625.49     -9730.7013      0.36190091     0.057458198    28.320197      3473.7773    
      1550   3.1            321.80921      137524.64     -807626.48     -9720.3897      0.36187879     0.057400819    28.273702      3473.48      
      1560   3.12           321.07861      133589.66     -807628.67     -9651.0212      0.36185653     0.05699469     28.31206       3473.1517    
      1570   3.14           314.24003      133355.69     -807629.1      -9609.6271      0.36183412     0.056753749    28.288807      3472.8414    
      1580   3.16           320.30424      130826.77     -807633.21     -9507.1331      0.36181157     0.056151926    28.256963      3472.5553    
      1590   3.18           312.65357      132042.06     -807632.43     -9499.3509      0.36178888     0.056109481    28.20908       3472.3056    
      1600   3.2            325.94495      133167.72     -807630.61     -9620.6899      0.36176605     0.056829777    28.257448      3472.0172    
      1610   3.22           315.44963      135482.84     -807626.43     -9711.0564      0.36174307     0.057367218    28.212604      3471.7624    
      1620   3.24           321.68972      136956.52     -807626.3      -9744.1693      0.36171995     0.057566509    28.290355      3471.4472    
      1630   3.26           316.87952      136570.7      -807627.02     -9702.3751      0.36169669     0.057323284    28.336647      3471.0967    
      1640   3.28           328.11924      135404.24     -807627.57     -9737.1365      0.36167329     0.057532383    28.367154      3470.7234    
      1650   3.3            321.18061      133854.58     -807628.8      -9670.8989      0.36164974     0.057144735    28.303352      3470.3977    
      1660   3.32           311.24257      131980.66     -807631.49     -9541.9445      0.36162605     0.056386445    28.274618      3470.0929    
      1670   3.34           314.01257      131071.23     -807633.56     -9489.4897      0.36160222     0.056080168    28.279258      3469.7842    
      1680   3.36           299.14926      132148.72     -807629.78     -9547.6299      0.36157824     0.056427502    28.302283      3469.4581    
      1690   3.38           322.58551      133778.03     -807629.04     -9677.699       0.36155413     0.057200039    28.295717      3469.1364    
      1700   3.4            322.51296      134020.03     -807629.41     -9667.5595      0.36152987     0.057143944    28.296835      3468.8135    
      1710   3.42           319.11271      138102.65     -807626.71     -9737.7676      0.36150546     0.057562823    28.307767      3468.4825    
      1720   3.44           311.15763      135698.12     -807624.99     -9762.0709      0.36148092     0.057710405    28.294912      3468.1603    
      1730   3.46           320.76087      136987.91     -807626.27     -9763.1805      0.36145623     0.057720906    28.314283      3467.8241    
      1740   3.48           311.91323      131636.95     -807632.15     -9537.8486      0.3614314      0.056392595    28.295834      3467.5006    
      1750   3.5            306.07195      132446.94     -807631.51     -9530.205       0.36140643     0.056351296    28.199552      3467.2446    
      1760   3.52           311.4818       129350.2      -807633.82     -9486.0472      0.36138131     0.056094093    28.233277      3466.9638    
      1770   3.54           312.40293      133082.46     -807630.53     -9592.4538      0.36135605     0.056727275    28.273596      3466.6541    
      1780   3.56           320.24064      131867.19     -807633.01     -9550.5485      0.36133065     0.056483428    28.241329      3466.3663    
      1790   3.58           310.24741      137357.31     -807626.51     -9712.1802      0.36130511     0.057443404    28.285387      3466.0474    
      1800   3.6            311.4491       136909.24     -807625.13     -9766.9546      0.36127942     0.057771478    28.312625      3465.7097    
      1810   3.62           306.2949       138814.34     -807623.81     -9785.8151      0.3612536      0.057887177    28.273775      3465.398     
      1820   3.64           308.9399       134584.67     -807628.56     -9645.1297      0.36122763     0.057059065    28.243691      3465.1062    
      1830   3.66           321.03708      132541.99     -807632.91     -9556.8112      0.36120151     0.056540674    28.264186      3464.8       
      1840   3.68           309.12066      130148.65     -807631.85     -9538.2184      0.36117526     0.056434776    28.296494      3464.4717    
      1850   3.7            324.1221       130004.1      -807634.83     -9507.2011      0.36114886     0.056255368    28.359821      3464.1013    
      1860   3.72           314.92023      131774.48     -807633.15     -9515.8297      0.36112232     0.056310563    28.41809       3463.6929    
      1870   3.74           313.35774      133829.62     -807629.64     -9620.697       0.36109564     0.056935329    28.368002      3463.3177    
      1880   3.76           315.50214      137357.66     -807625.07     -9773.5886      0.36106881     0.057844439    28.348518      3462.9554    
      1890   3.78           312.50091      137215.69     -807624.97     -9760.354       0.36104184     0.057770426    28.347979      3462.5935    
      1900   3.8            318.91009      137448.08     -807626.7      -9726.276       0.36101474     0.057573045    28.368025      3462.2189    
      1910   3.82           310.64914      133402.19     -807628.55     -9625.9367      0.36098748     0.056983405    28.351432      3461.8551    
      1920   3.84           323.11484      133404.57     -807630.08     -9623.9877      0.36096009     0.056976191    28.30456       3461.5213    
      1930   3.86           318.45463      128462.53     -807633.7      -9484.497       0.36093255     0.056154658    28.331617      3461.1701    
      1940   3.88           317.28306      132653.28     -807632.13     -9516.5771      0.36090487     0.056348916    28.319827      3460.8263    
      1950   3.9            307.12349      130998.87     -807631.1      -9502.5056      0.36087705     0.056269934    28.225652      3460.5417    
      1960   3.92           314.87689      136883.99     -807625.77     -9696.4917      0.36084909     0.05742309     28.306273      3460.2058    
      1970   3.94           319.51534      134586.72     -807626.84     -9680.7107      0.36082098     0.0573341      28.317738      3459.8627    
      1980   3.96           327.67306      138699.61     -807625.83     -9736.3152      0.36079273     0.057667933    28.370734      3459.4869    
      1990   3.98           323.34023      135135.88     -807627.97     -9643.8475      0.36076434     0.057124744    28.244571      3459.1888    
      2000   4              329.39555      135951.25     -807627.25     -9682.2632      0.36073581     0.057356834    28.230955      3458.8985    
      2010   4.02           321.85037      131206.1      -807631.35     -297.39487      0.36070713     0.056380154    28.419094      3458.4933    
      2020   4.04           326.44903      133695.54     -807632.06     -296.97488      0.36067831     0.05630503     28.357142      3458.1258    
      2030   4.06           310.12569      131175.99     -807630.85     -295.84725      0.36064935     0.056095742    28.346066      3457.7652    
      2040   4.08           327.12117      135128.35     -807628.44     -300.40933      0.36062025     0.056965356    28.343058      3457.4064    
      2050   4.1            332.83187      133932.67     -807628.31     -301.19677      0.36059101     0.057119307    28.287404      3457.0809    
      2060   4.12           319.73196      137522.12     -807624.62     -302.83722      0.36056162     0.057435086    28.438754      3456.6656    
      2070   4.14           341.92567      136613.28     -807627.88     -302.61017      0.36053209     0.057396725    28.435258      3456.253     
      2080   4.16           330.43427      136516.59     -807625.47     -303.29358      0.36050242     0.057531082    28.432395      3455.8427    
      2090   4.18           323.13975      133704.93     -807627.83     -299.90117      0.36047261     0.056892289    28.432401      3455.4329    
      2100   4.2            330.92367      131874.22     -807631.75     -296.96777      0.36044265     0.056340495    28.444116      3455.0169    
      2110   4.22           316.56358      131915.87     -807630.66     -296.07239      0.36041256     0.056175314    28.439415      3454.6043    
      2120   4.24           322.83035      131816.88     -807630.7      -296.93461      0.36038232     0.056343635    28.438805      3454.1925    
      2130   4.26           322.86203      134809.85     -807627.54     -300.05867      0.36035193     0.05694123     28.444624      3453.778     
      2140   4.28           324.55441      134422.63     -807628.21     -299.71418      0.36032141     0.056880675    28.505302      3453.3299    
      2150   4.3            332.6106       137267.75     -807626.24     -302.73223      0.36029075     0.057458339    28.429928      3452.925     
      2160   4.32           327.47384      134997.32     -807625.79     -302.64068      0.36025994     0.057445875    28.368199      3452.5553    
      2170   4.34           328.40163      137233.1      -807624.81     -303.74985      0.36022899     0.057661366    28.351224      3452.1952    
      2180   4.36           324.59895      132556.58     -807630.82     -297.43615      0.36019789     0.056467699    28.285867      3451.8718    
      2190   4.38           325.418        133913.29     -807630.68     -297.73791      0.36016666     0.05652989     28.334219      3451.5211    
      2200   4.4            316.84995      130686.12     -807631.6      -295.92003      0.36013528     0.056189635    28.363405      3451.1544    
      2210   4.42           326.9585       132970.72     -807630.77     -298.30546      0.36010377     0.05664754     28.378966      3450.7791    
      2220   4.44           317.16177      131959.93     -807630.73     -297.28378      0.36007211     0.05645849     28.354952      3450.4172    
      2230   4.46           321.44053      136433.72     -807628.12     -300.68105      0.3600403      0.057108723    28.371336      3450.0465    
      2240   4.48           317.50384      136059.94     -807625.54     -303.10231      0.36000836     0.057573705    28.393869      3449.6637    
      2250   4.5            325.35311      137721.64     -807625.5      -304.47883      0.35997627     0.057840328    28.365046      3449.2968    
      2260   4.52           316.06882      135175.46     -807628.64     -300.2777       0.35994404     0.057047367    28.341992      3448.9424    
      2270   4.54           311.81842      134726.82     -807629.95     -298.63043      0.35991167     0.056739519    28.329857      3448.5945    
      2280   4.56           305.00467      132795.77     -807629.75     -298.14831      0.35987916     0.056653033    28.457757      3448.1785    
      2290   4.58           319.55841      131332.58     -807632.56     -297.47321      0.35984651     0.056529883    28.367867      3447.8107    
      2300   4.6            308.63704      131996.87     -807632.66     -295.98949      0.35981371     0.056253052    28.432181      3447.409     
      2310   4.62           312.83941      132839.74     -807631.79     -297.57956      0.35978077     0.056560425    28.44433       3447.0015    
      2320   4.64           310.80861      135928.3      -807627.1      -302.07201      0.35974769     0.057419576    28.885753      3446.3683    
      2330   4.66           313.89232      134971.28     -807627.29     -302.41717      0.35971447     0.057490495    28.939103      3445.7108    
      2340   4.68           315.89696      137235.17     -807628.35     -301.5355       0.35968111     0.057328205    28.949963      3445.0505    
      2350   4.7            317.13335      133565.81     -807631.13     -299.05875      0.3596476      0.05686262     28.95231       3444.3917    
      2360   4.72           308.58052      134810.26     -807628.08     -300.81023      0.35961396     0.057200996    28.960087      3443.7318    
      2370   4.74           316.17214      130532.5      -807633.84     -296.09783      0.35958017     0.056310192    28.956643      3443.0762    
      2380   4.76           315.71789      131974.95     -807634.09     -295.61887      0.35954624     0.056224412    28.988283      3442.4077    
      2390   4.78           303.16944      131065.16     -807632.13     -295.90168      0.35951216     0.056283535    29.006406      3441.7332    
      2400   4.8            300.83438      134764.31     -807627.64     -299.90314      0.35947795     0.057050082    28.968178      3441.0799    
      2410   4.82           312.58         134272.42     -807628.73     -300.37076      0.35944359     0.057144498    28.939407      3440.4431    
      2420   4.84           313.94677      136596.32     -807627.86     -301.2491       0.35940909     0.0573171      28.978579      3439.7898    
      2430   4.86           315.99634      135996.57     -807627.49     -301.81966      0.35937446     0.057431194    28.942829      3439.1562    
      2440   4.88           328.95166      135639.59     -807629.57     -301.30484      0.35933967     0.057338782    28.979412      3438.5075    
      2450   4.9            307.22717      133200.88     -807630.05     -297.71257      0.35930475     0.056660674    28.919125      3437.8899    
      2460   4.92           325.91729      131663.54     -807635.41     -294.81709      0.35926969     0.056115082    28.939916      3437.2647    
      2470   4.94           315.01274      130580.49     -807633.73     -294.86886      0.35923448     0.056130435    28.935921      3436.6436    
      2480   4.96           302.80182      132239.41     -807629.61     -297.12794      0.35919913     0.056566035    28.945158      3436.0205    
      2490   4.98           319.41636      133056.08     -807631.21     -297.6885       0.35916364     0.056678352    28.952679      3435.396     
      2500   5              315.68952      135549.03     -807628.44     -299.79464      0.35912801     0.057085013    28.935804      3434.7816    
[...]
     98740   197.48         337.79565      135302.16     -807625.87     -9704.4178      0.36236891     0.057228991    26.80863       45.550032    
     98750   197.5          340.08202      136488.26     -807625.81     -9711.6611      0.36238762     0.057268751    26.868002      45.188659    
     98760   197.52         339.49723      137147.4      -807625.97     -9698.9183      0.36240618     0.057190679    26.879083      44.827282    
     98770   197.54         342.50604      136906.21     -807625.56     -9722.9353      0.36242459     0.057329384    26.917801      44.465896    
     98780   197.56         326.80613      136734.8      -807623.42     -9722.6728      0.36244287     0.057324946    26.952885      44.104502    
     98790   197.58         335.16292      134878.82     -807627.04     -9644.1978      0.362461       0.056859412    26.914021      43.743113    
     98800   197.6          337.16907      132952.35     -807629.65     -9570.8178      0.36247899     0.056423985    26.889593      43.381726    
     98810   197.62         339.43578      133910.11     -807628.96     -9607.4694      0.36249683     0.056637273    26.868108      43.02034     
     98820   197.64         331.46824      134190.39     -807627.16     -9636.3388      0.36251453     0.056804688    26.857514      42.658954    
     98830   197.66         339.41004      134943.06     -807627.69     -9662.6623      0.36253209     0.056957102    26.811376      42.297573    
     98840   197.68         338.17343      135180.8      -807627.26     -9681.8186      0.36254951     0.057067278    26.921916      41.936171    
     98850   197.7          330.22334      137392.58     -807624        -9763.4567      0.36256678     0.057545734    26.908533      41.57477     
     98860   197.72         323.07339      136714.39     -807624.04     -9741.7049      0.36258391     0.057414816    26.891653      41.21337     
     98870   197.74         335.95764      135537.57     -807628.5      -9667.5259      0.3626009      0.056974957    26.916192      40.851963    
     98880   197.76         332.16611      133565.82     -807629.62     -9626.8318      0.36261774     0.056732493    26.966409      40.490547    
     98890   197.78         323.12426      133347.18     -807628.31     -9640.3743      0.36263445     0.056809685    26.943234      40.129132    
     98900   197.8          328.81191      132826.92     -807629.41     -9639.7171      0.362651       0.056803218    26.922802      39.767719    
     98910   197.82         332.3076       133502.63     -807630.26     -9634.4935      0.36266742     0.056769868    26.877484      39.40631     
     98920   197.84         320.6317       135516.97     -807627.97     -9663.3794      0.36268369     0.056937519    26.901647      39.044896    
     98930   197.86         319.76555      136614.09     -807624.69     -9771.1329      0.36269982     0.057569853    26.945292      38.683473    
     98940   197.88         334.11036      136650.26     -807627.13     -9761.4456      0.36271581     0.057510242    26.991496      38.322041    
     98950   197.9          321.54161      135699.93     -807627.24     -9706.4507      0.36273165     0.057183738    26.973226      37.96061     
     98960   197.92         325.85523      135517.74     -807629        -9672.144       0.36274735     0.056979161    26.924047      37.599184    
     98970   197.94         334.96509      133572.3      -807630.89     -9660.1917      0.36276291     0.056906308    26.887568      37.237762    
     98980   197.96         319.60742      134109.18     -807628.82     -9660.0274      0.36277832     0.056902923    26.874487      36.876339    
     98990   197.98         321.39058      132944.28     -807631.72     -9581.0571      0.36279359     0.056435368    26.830538      36.51492     
     99000   198            321.18951      134931.09     -807629.67     -9647.821       0.36280872     0.056826258    26.81911       36.153501    
     99010   198.02         299.99066      135188.52     -807624.78     -303.69299      0.3628237      0.057238287    26.882192      35.792071    
     99020   198.04         329.64107      136372.2      -807628.32     -304.32221      0.36283855     0.057354534    26.889967      35.430637    
     99030   198.06         320.51652      134502.33     -807628.77     -302.70925      0.36285324     0.057048233    26.943583      35.069194    
     99040   198.08         313.45272      136650.74     -807626.5      -304.06792      0.3628678      0.057301988    26.945739      34.707749    
     99050   198.1          323.44426      133433.89     -807628.42     -303.69886      0.36288221     0.057230165    26.971285      34.346298    
     99060   198.12         324.70022      134901.11     -807629.17     -303.20323      0.36289648     0.057134521    26.981679      33.984844    
     99070   198.14         325.99495      132049.91     -807632.77     -299.93991      0.36291061     0.056517393    26.937496      33.623394    
     99080   198.16         315.60607      134352.41     -807629.6      -301.67245      0.36292459     0.056841663    26.940521      33.261942    
     99090   198.18         317.08864      131830.51     -807630.08     -301.6422       0.36293843     0.056833796    26.967785      32.900484    
     99100   198.2          320.96064      135669.21     -807628.78     -303.4424       0.36295213     0.057170822    26.977769      32.539023    
     99110   198.22         316.93674      134246.26     -807629.64     -302.2007       0.36296568     0.05693475     27.016196      32.177556    
     99120   198.24         312.72001      137998.14     -807625.36     -305.93711      0.36297909     0.057636562    27.034795      31.816085    
     99130   198.26         317.01929      134654.51     -807627.67     -304.45776      0.36299236     0.057355765    27.02511       31.454613    
     99140   198.28         307.17641      136789.78     -807626.35     -304.40814      0.36300548     0.057344344    26.972068      31.093145    
     99150   198.3          315.70778      132227.95     -807630.76     -301.34664      0.36301846     0.05676559     26.941576      30.731679    
     99160   198.32         323.1542       133658.47     -807630.71     -302.37311      0.3630313      0.056956936    26.93484       30.370213    
     99170   198.34         313.18481      131885.36     -807630.68     -301.17512      0.36304399     0.05672929     26.95926       30.008741    
     99180   198.36         311.45223      135004.63     -807629.87     -301.7526       0.36305655     0.0568361      26.938403      29.64727     
     99190   198.38         330.15091      132730.5      -807632.77     -301.6045       0.36306895     0.056806263    26.990931      29.285791    
     99200   198.4          312.25314      135823.94     -807626.68     -305.21236      0.36308122     0.05748385     27.049167      28.924303    
     99210   198.42         320.50021      134801.1      -807628.71     -304.44557      0.36309334     0.057337519    27.020474      28.562818    
     99220   198.44         309.65108      136263.77     -807627.39     -304.18031      0.36310532     0.057285672    27.010712      28.201331    
     99230   198.46         321.54928      134486.8      -807630.48     -302.81873      0.36311715     0.057027389    26.981059      27.839846    
     99240   198.48         319.17418      134474.48     -807629.11     -303.77658      0.36312885     0.057205932    26.943984      27.478363    
     99250   198.5          318.70929      133102.76     -807630.93     -301.89302      0.3631404      0.056849419    26.889446      27.116884    
     99260   198.52         307.13763      133257.91     -807630.49     -300.6834       0.3631518      0.056619857    26.926569      26.755398    
     99270   198.54         313.15353      132988.79     -807630.82     -301.15779      0.36316306     0.056707428    26.944035      26.393909    
     99280   198.56         313.8755       134253.48     -807629.02     -302.99351      0.36317418     0.057051343    26.9556        26.032417    
     99290   198.58         312.81899      135825.39     -807626.94     -304.81001      0.36318516     0.057391642    26.931648      25.670926    
     99300   198.6          319.13353      135470.68     -807628.62     -303.87904      0.36319599     0.057214645    26.908301      25.309434    
     99310   198.62         321.57062      136111.01     -807627.57     -305.11922      0.36320668     0.057446458    26.902026      24.947942    
     99320   198.64         321.63194      134900.41     -807627.95     -304.59238      0.36321723     0.057345602    26.931795      24.586444    
     99330   198.66         320.35505      135968.55     -807628.49     -303.65598      0.36322763     0.057167668    26.962534      24.224941    
     99340   198.68         319.53188      132521.59     -807631.64     -300.24637      0.36323789     0.056524163    26.972225      23.863436    
     99350   198.7          323.48385      133776.71     -807631.37     -300.76817      0.36324801     0.05662082     26.958843      23.50193     
     99360   198.72         312.18328      132031.05     -807629.31     -301.12164      0.36325798     0.056685806    27.004039      23.140418    
     99370   198.74         325.36266      135643.32     -807627.95     -303.93501      0.36326781     0.057213871    26.98115       22.778907    
     99380   198.76         325.28817      133510.78     -807629.99     -301.72648      0.3632775      0.056796615    26.966668      22.417395    
     99390   198.78         324.26702      137366.96     -807625.92     -305.24196      0.36328704     0.057456855    26.960138      22.055881    
     99400   198.8          333.73313      134691.31     -807627.46     -304.89514      0.36329644     0.057390086    27.211059      21.694345    
     99410   198.82         333.76463      137174.85     -807626.42     -305.62435      0.3633057      0.057525879    27.536968      21.332782    
     99420   198.84         324.36988      133579.53     -807629.84     -300.79214      0.36331481     0.05661492     27.484105      20.971223    
     99430   198.86         330.33923      135527.32     -807628.67     -302.54398      0.36332378     0.056943244    27.51505       20.609661    
     99440   198.88         322.14419      133021.72     -807628.36     -301.73241      0.36333261     0.056789115    27.546218      20.248096    
     99450   198.9          329.35105      135328.61     -807628.24     -302.61833      0.36334129     0.056954493    27.570522      19.886529    
     99460   198.92         333.00609      133639.76     -807630.01     -301.35688      0.36334983     0.056715747    27.553555      19.524963    
     99470   198.94         332.46983      136355.83     -807626.98     -304.25365      0.36335823     0.0572596      27.594832      19.163394    
     99480   198.96         332.03335      135990.95     -807625.61     -305.60831      0.36336648     0.057513236    27.563161      18.801827    
     99490   198.98         332.10046      136527.47     -807626.64     -304.55479      0.3633746      0.057313692    27.621198      18.440256    
     99500   199            327.57484      134854.98     -807628.85     -301.80631      0.36338256     0.056795215    27.615365      18.078685    
     99510   199.02         324.24057      135405.88     -807627.4      -9690.4595      0.36339039     0.056986039    27.550978      17.717118    
     99520   199.04         313.62463      134641.95     -807625.98     -9693.4524      0.36339807     0.057002435    27.546875      17.355551    
     99530   199.06         323.38761      134006.85     -807628.5      -9656.5756      0.3634056      0.056784403    27.544828      16.993984    
     99540   199.08         335.03136      133587.45     -807630.65     -9644.7898      0.363413       0.056713944    27.554227      16.632416    
     99550   199.1          331.43524      135049.31     -807627.41     -9738.5018      0.36342025     0.057263853    27.536221      16.270849    
     99560   199.12         327.35994      136880.99     -807625.42     -9790.5407      0.36342736     0.057568723    27.489947      15.909284    
     99570   199.14         329.36684      136036.04     -807627.71     -9732.578       0.36343432     0.057226804    27.489551      15.547719    
     99580   199.16         321.74606      135450.35     -807627.56     -9710.1379      0.36344114     0.057093787    27.529391      15.186151    
     99590   199.18         325.69355      134399.96     -807628.81     -9697.3607      0.36344782     0.057017612    27.500908      14.824585    
     99600   199.2          327.75512      134026.3      -807628.76     -9715.9779      0.36345435     0.057126048    27.500512      14.463018    
     99610   199.22         320.33763      133364.16     -807630.14     -9647.9444      0.36346074     0.056725041    27.309739      14.10146     
     99620   199.24         323.93713      134339.3      -807631.45     -9628.4451      0.36346699     0.056609422    27.480793      13.739893    
     99630   199.26         321.08674      134089.84     -807629.15     -9700.4543      0.3634731      0.057031835    27.463567      13.378327    
     99640   199.28         317.62092      136257.11     -807626.51     -9776.3867      0.36347906     0.057477321    27.417285      13.016762    
     99650   199.3          314.6412       135033.61     -807627.57     -9737.5271      0.36348487     0.057247942    27.421312      12.655196    
     99660   199.32         310.28344      135404.67     -807627.35     -9728.4287      0.36349055     0.057193558    27.424553      12.293629    
     99670   199.34         322.05343      134766.83     -807628.86     -9737.969       0.36349608     0.057248775    27.409129      11.932063    
     99680   199.36         320.00279      134734.23     -807628.52     -9743.0021      0.36350147     0.057277515    27.401597      11.570496    
     99690   199.38         323.8454       133916.52     -807631.38     -9669.5567      0.36350671     0.056844922    27.464247      11.208926    
     99700   199.4          322.03206      133693.88     -807632.28     -9635.2934      0.36351181     0.056642702    27.443575      10.847356    
     99710   199.42         309.92907      134218.73     -807628.31     -9711.1581      0.36351677     0.057087907    27.462361      10.485785    
     99720   199.44         303.78766      135364.43     -807625.68     -9767.9761      0.36352158     0.057421156    27.478246      10.124213    
     99730   199.46         318.47393      134320.69     -807629.53     -9711.8208      0.36352625     0.057090313    27.462398      9.7626405    
     99740   199.48         310.74953      135237.13     -807628.08     -9721.4014      0.36353078     0.05714592     27.472807      9.4010675    
     99750   199.5          313.23898      134987.98     -807626.62     -9779.2739      0.36353516     0.057485422    27.470875      9.0394941    
     99760   199.52         318.914        135305.06     -807627.47     -9777.1508      0.3635394      0.057472272    27.469589      8.6779203    
     99770   199.54         321.99647      133859.52     -807631.74     -9653.4527      0.3635435      0.056744507    27.474186      8.3163458    
     99780   199.56         314.42307      133989.83     -807630.98     -9642.6452      0.36354745     0.056680363    27.489145      7.9547704    
     99790   199.58         314.69599      133734.72     -807629.67     -9684.8274      0.36355126     0.056927717    27.5199        7.5931937    
     99800   199.6          313.26007      134005.28     -807628.74     -9706.7508      0.36355493     0.057056008    27.510213      7.2316169    
     99810   199.62         326.67811      133567.91     -807631.29     -9682.4373      0.36355845     0.056912542    27.491916      6.8700402    
     99820   199.64         320.2705       135508.21     -807629.44     -9710.9943      0.36356183     0.057079867    27.461039      6.5084637    
     99830   199.66         315.32046      136693.58     -807625.97     -9799.985       0.36356507     0.057602429    27.49831       6.1468859    
     99840   199.68         326.76457      135836.22     -807628.4      -9770.0702      0.36356816     0.057426107    27.467829      5.7853084    
     99850   199.7          316.97896      135127.6      -807629.56     -9686.7416      0.36357111     0.05693586     27.416155      5.4237314    
     99860   199.72         312.10577      133683.42     -807629.34     -9669.738       0.36357392     0.056835479    27.406294      5.0621539    
     99870   199.74         314.03399      133707.37     -807627.66     -9730.4018      0.36357658     0.057191622    27.42545       4.7005754    
     99880   199.76         320.70554      133469.72     -807629.34     -9702.5433      0.3635791      0.057027484    27.459596      4.3389958    
     99890   199.78         321.81221      134849.4      -807630        -9682.1955      0.36358148     0.056907517    27.444516      3.9774159    
     99900   199.8          317.10035      135215.73     -807628.5      -9706.262       0.36358371     0.057048618    27.456326      3.6158353    
     99910   199.82         324.93153      136159.6      -807626.96     -9786.2778      0.3635858      0.057518581    27.490158      3.2542537    
     99920   199.84         322.87264      134534.13     -807627.58     -9755.9338      0.36358775     0.057339928    27.489192      2.8926717    
     99930   199.86         320.75918      135019.54     -807628.43     -9714.114       0.36358955     0.057093852    27.50654       2.5310891    
     99940   199.88         316.96146      133254.86     -807629.06     -9676.1767      0.36359121     0.056870619    27.490311      2.1695063    
     99950   199.9          310.88781      135019.37     -807625.83     -9747.668       0.36359273     0.057290562    27.465274      1.8079232    
     99960   199.92         313.52097      133991.9      -807628.71     -9665.8771      0.3635941      0.056809633    27.538997      1.4463391    
     99970   199.94         329.13776      134676.91     -807630.72     -9664.1579      0.36359533     0.056799337    27.540004      1.0847548    
     99980   199.96         324.01783      133917.77     -807629.22     -9686.8953      0.36359641     0.056932801    27.535528      0.72317019   
     99990   199.98         330.04273      135662.36     -807627.32     -9768.5982      0.36359736     0.057412845    27.475852      0.36158533   
    100000   200            329.83676      134905.14     -807628.92     -9712.8411      0.36359816     0.057085019    27.478267      0            
Loop time of 3615.86 on 32 procs for 100000 steps with 1080 atoms

Performance: 4.779 ns/day, 5.022 hours/ns, 27.656 timesteps/s, 29.868 katom-step/s
63.8% CPU use with 32 MPI tasks x 1 OpenMP threads

MPI task timing breakdown:
Section |  min time  |  avg time  |  max time  |%varavg| %total
---------------------------------------------------------------
Pair    | 2514       | 2806.9     | 3089       | 243.8 | 77.63
Neigh   | 0.0020679  | 0.002212   | 0.0024927  |   0.2 |  0.00
Comm    | 452.24     | 734.59     | 1027.1     | 476.6 | 20.32
Output  | 2.4407     | 2.446      | 2.4517     |   0.2 |  0.07
Modify  | 64.932     | 65.827     | 66.578     |   5.7 |  1.82
Other   |            | 6.114      |            |       |  0.17

Nlocal:          33.75 ave          44 max          24 min
Histogram: 1 2 3 3 5 9 1 5 1 2
Nghost:        1038.59 ave        1053 max        1020 min
Histogram: 1 1 3 3 4 5 6 2 4 3
Neighs:              0 ave           0 max           0 min
Histogram: 32 0 0 0 0 0 0 0 0 0
FullNghs:         5309 ave        6941 max        3761 min
Histogram: 1 2 4 4 5 7 2 4 2 1

Total # of neighbors = 169888
Ave neighs/atom = 157.3037
Neighbor list builds = 5
Dangerous builds = 0

Total wall time: 1:03:51
