
units		metal
atom_style	atomic

read_data ${STRUCTURE}.data
read_data BaTiO3-sc333.data
Reading data file ...
  orthogonal box = (0 0 0) to (11.898253 11.898253 12.912076)
  2 by 4 by 4 MPI processor grid
  reading atoms ...
  135 atoms
  read_data CPU = 0.005 seconds
replicate $L $L $L
replicate 2 $L $L
replicate 2 2 $L
replicate 2 2 2
Replication is creating a 2x2x2 = 8 times larger system...
  orthogonal box = (0 0 0) to (23.796507 23.796507 25.824152)
  2 by 4 by 4 MPI processor grid
  1080 atoms
  replicate CPU = 0.003 seconds

pair_style allegro
pair_coeff	* * ${MODEL}.pth Ba Ti O
pair_coeff	* * BaTiO3-E0.pth Ba Ti O
mass 1 137.3
mass 2 47.9
mass 3 15.9994

timestep 0.002
compute polarization all allegro polarization 3
compute allegro will evaluate the quantity polarization of length 3 (src/compute_allegro.cpp:53)
compute polarizability all allegro polarizability 9
compute allegro will evaluate the quantity polarizability of length 9 (src/compute_allegro.cpp:53)

thermo_style custom pe fmax fnorm spcpu cpuremain

variable efield equal 1e-2*36.36
fix born all addbornforce 0.0 0.0 ${efield}
fix born all addbornforce 0.0 0.0 0.3636

thermo 10
min_style fire
#minimize 0.0 1e-6 100 100
velocity all create ${TEMP} ${SEED} dist gaussian rot yes mom yes
velocity all create 290 ${SEED} dist gaussian rot yes mom yes
velocity all create 290 4557 dist gaussian rot yes mom yes
fix nvt all nvt temp ${TEMP} ${TEMP} $(100*dt)
fix nvt all nvt temp 290 ${TEMP} $(100*dt)
fix nvt all nvt temp 290 290 $(100*dt)
fix nvt all nvt temp 290 290 0.2000000000000000111
run 5000
Neighbor list info ...
  update: every = 1 steps, delay = 0 steps, check = yes
  max neighbors/atom: 2000, page size: 100000
  master list distance cutoff = 8
  ghost atom cutoff = 8
  binsize = 8, bins = 3 3 4
  1 neighbor lists, perpetual/occasional/extra = 1 0 0
  (1) pair allegro/kk, perpetual
      attributes: full, newton on, kokkos_device
      pair build: full/bin/kk/device
      stencil: full/bin/3d
      bin: kk/device
Per MPI rank memory allocation (min/avg/max) = 3.516 | 3.516 | 3.516 Mbytes
    PotEng          Fmax          Fnorm          S/CPU         CPULeft    
-807708.29      1.5950843      37.044072      0              0            
-807647.07      3.5063935      45.527111      2.4063254      2073.7022    
-807637.13      2.5891793      35.083637      25.897975      1130.9198    
-807608.87      2.9919528      36.673071      25.918583      816.35066    
-807604.88      4.1619037      49.797052      25.857529      658.98616    
-807568.15      3.4342713      39.968419      25.854135      564.4178     
-807604.87      2.6042716      38.314658      25.905205      501.18051    
-807647.62      3.53206        33.753355      25.920343      455.88485    
-807686.29      2.4674832      33.779223      25.878344      421.85517    
-807668.17      3.2773864      34.183591      25.863792      395.31362    
-807655.39      3.180973       34.036645      25.914769      373.96579    
-807662.89      2.6010859      26.632742      25.919189      356.42627    
-807629.89      3.2637093      30.15268       25.911871      341.7502     
-807586.55      3.1179592      39.564866      25.894734      329.28212    
-807572.05      2.9777136      37.064279      25.925059      318.52436    
-807635.09      3.3977672      32.788478      25.91522       309.15428    
-807655.81      3.8175394      30.269187      25.900884      300.91368    
-807667         2.9731961      33.496309      25.92936       293.5851     
-807649.13      4.6094885      43.92012       25.896115      287.04121    
-807681.86      2.7682435      35.725514      25.882952      281.15047    
-807643.5       4.3622998      38.944404      25.854564      275.82036    
-807617.29      3.0943783      38.382417      25.889846      270.94901    
-807564.82      4.0838093      44.989479      25.93789       266.46986    
-807608.15      4.1761161      48.458317      25.893546      262.36036    
-807616.26      4.0089221      38.014598      25.874447      258.5668     
-807643.75      3.1685343      34.66445       25.905527      255.03699    
-807646.41      5.0991622      44.035837      25.93088       251.74213    
-807684.58      2.6835236      36.713907      25.873138      248.67784    
-807666.58      3.258293       32.894262      25.810446      245.82065    
-807639.01      2.7559449      31.065192      25.9054        243.11073    
-807610.95      3.5277649      31.878196      25.940431      240.54756    
-807607.49      3.7780406      41.308459      25.903033      238.13331    
-807599.94      3.1011421      34.794867      25.858177      235.85562    
-807609.95      2.6911782      32.232685      25.91785       233.67993    
-807648.25      3.1217566      28.041644      25.926776      231.6077     
-807676.93      2.3407039      30.349374      25.916016      229.63398    
-807678.9       2.4794227      31.120406      25.863632      227.75854    
-807647.26      4.268858       36.794919      25.919248      225.95319    
-807653.4       2.784347       28.927249      25.931396      224.22036    
-807623.1       3.8154608      32.977033      25.919877      222.55865    
-807601.55      4.0664055      42.56256       25.916583      220.96129    
-807572.56      3.9532643      40.342447      25.939162      219.41927    
-807630.17      3.1559868      34.360972      25.919609      217.93549    
-807652.51      3.4972205      34.683351      25.92396       216.5021     
-807675.31      2.9008016      34.269177      25.923472      215.1164     
-807645.4       4.9554943      45.830067      25.928964      213.77431    
-807672.02      3.2076891      33.993433      25.922331      212.47478    
-807646.53      3.3901846      35.280365      25.920848      211.21435    
-807624.52      2.7715483      36.729472      25.936986      209.98811    
-807567.53      3.4586376      41.613584      25.929438      208.7972     
-807607.45      3.7152785      42.386012      25.913966      207.64059    
-807628.38      3.2844288      33.213148      25.870544      206.51989    
-807657.06      2.6832228      30.979366      25.912432      205.42205    
-807647.5       4.0795859      40.237141      25.936484      204.34806    
-807677.54      2.5875165      33.310528      25.904149      203.30354    
-807668.83      3.4099797      31.829865      25.849671      202.28955    
-807642.79      3.6571131      29.905426      25.904139      201.29151    
-807603.94      3.006507       33.900135      25.936911      200.31115    
-807600.02      3.5039311      37.967399      25.938786      199.35108    
-807608.72      4.0810122      38.15757       25.858457      198.41945    
-807622.5       3.2078376      30.748738      25.905241      197.50086    
-807644.6       3.2517185      31.350219      25.959567      196.59391    
-807668.65      3.5070428      32.45967       25.924537      195.70747    
-807678.88      2.6311349      34.431557      25.840649      194.84562    
-807647.15      4.5196833      37.795246      25.902064      193.99235    
-807638.68      2.8962817      32.017819      25.937207      193.14996    
-807614.35      3.3939222      34.878847      25.924204      192.32268    
-807606.03      4.4632508      44.01805       25.900766      191.51084    
-807580.32      4.0570999      41.236133      25.91815       190.70988    
-807623.73      3.0000579      35.135311      25.953582      189.91765    
-807649.59      4.118595       37.604558      25.955445      189.13688    
-807676.99      2.9359971      35.926232      25.889896      188.37315    
-807650.01      4.7206417      42.738053      25.917911      187.61743    
-807657.26      3.228316       34.554833      25.925753      186.87115    
-807644.72      4.5389018      33.576255      25.926729      186.13454    
-807624.07      3.4899907      36.586936      25.899482      185.40958    
-807576.4       4.104917       38.768679      25.863782      184.69651    
-807597.33      2.9500633      38.297134      25.858167      183.99238    
-807634.51      3.4719932      30.73047       25.835963      183.29819    
-807660.13      3.4426203      31.703655      25.86387       182.60955    
-807653.81      3.3610364      35.953632      25.936648      181.92277    
-807663.7       3.6699965      34.853793      25.812116      181.25304    
-807668.05      2.6915419      31.942078      25.884827      180.58465    
-807642.54      3.4614186      31.403566      25.901511      179.92181    
-807602.51      2.8362086      34.874284      25.93451       179.26312    
-807589.72      3.6011188      37.89588       25.962034      178.60887    
-807612.05      3.8968572      38.278345      25.904472      177.96499    
-807630.55      3.406551       31.310548      25.934257      177.32494    
-807644.1       2.8804698      32.562521      25.967981      176.68832    
-807659.18      4.2540085      35.287862      25.962368      176.05774    
-807675.2       2.8042578      34.831462      25.883133      175.43799    
-807653.5       4.5904492      34.687312      25.892635      174.82273    
-807630.9       3.0621386      32.350874      25.941831      174.2092     
-807607.48      3.8435193      34.346153      25.959902      173.5994     
-807606.53      3.8163309      42.976126      25.926466      172.99652    
-807596.9       3.628945       37.66082       25.936249      172.3976     
-807623.78      3.173575       34.479148      25.937654      171.80303    
-807646.79      4.0579171      36.238216      25.940896      171.21257    
-807674.78      2.8939299      35.145771      25.906394      170.6284     
-807658.96      5.033934       36.302627      25.913788      170.04779    
-807649.15      3.8881291      33.416049      25.939838      169.46952    
-807638.28      3.761245       30.847074      25.918807      168.89631    
-807622.97      3.5514117      36.058092      25.915875      168.32694    
-807589.36      3.466696       37.417085      25.884485      167.76294    
-807597.51      3.8183926      36.562307      25.929748      167.19979    
-807634.1       2.7027688      31.110642      25.924546      166.6403     
-807664.14      2.8358686      31.365409      25.918845      166.08442    
-807660.55      3.4922103      33.750161      25.917981      165.53175    
-807655.75      3.4957002      35.045679      25.910566      164.98258    
-807661.43      2.5706978      30.533723      25.922167      164.43579    
-807642.31      2.8047948      30.929587      25.932331      163.89138    
-807608.42      2.8369123      34.083516      25.923969      163.35027    
-807584.74      3.1422085      37.569155      25.916991      162.8123     
-807613.87      3.3238356      36.288147      25.840928      162.28091    
-807639.3       3.0196282      30.654373      25.885679      161.74978    
-807652.15      3.1469009      31.565347      25.942127      161.21837    
-807653.23      3.7660483      36.062634      25.916546      160.69072    
-807671.84      3.6237202      33.403069      25.899735      160.16632    
-807653.72      3.2909065      33.158769      25.892017      159.64464    
-807631.47      3.479927       32.181679      25.913338      159.12422    
-807597.61      3.6502984      36.853373      25.923227      158.60557    
-807605.65      4.205627       40.72043       25.905634      158.08994    
-807609.2       3.7844635      34.933502      25.827001      157.58007    
-807632.28      2.8626329      31.756113      25.929039      157.06753    
-807644.64      3.9926574      35.490264      25.931035      156.55695    
-807671.08      2.5348593      33.309917      25.917564      156.04897    
-807661.24      3.7587387      34.214336      25.92534       155.54258    
-807647.53      3.7405545      32.472714      25.920717      155.03829    
-807627.67      3.1481834      31.841629      25.898592      154.53682    
-807617.15      3.9895942      36.199481      25.872371      154.03825    
-807597.94      3.987019       36.936344      25.850954      153.54233    
-807603.56      3.8623523      35.784881      25.888108      153.0465     
-807631.78      3.2533606      31.513495      25.919933      152.55101    
-807660.84      2.9263871      32.34576       25.893791      152.05825    
-807663.61      2.9690007      33.463112      25.8532        151.56873    
-807652.33      4.1570239      35.071978      25.865959      151.08022    
-807651.39      3.0883761      31.955579      25.900599      150.59182    
-807637.44      3.1193131      31.309004      25.90619       150.1047     
-807610.47      3.1016953      36.569775      25.892042      149.6196     
-807586.48      3.6809059      38.065767      25.914503      149.13505    
-807613.13      3.2311063      35.282373      25.799579      148.65632    
-807640.19      4.2030823      32.291424      25.819454      148.17813    
-807659.06      3.0942223      32.359494      25.832185      147.70074    
-807650.26      5.0563282      37.940585      25.870079      147.2232     
-807663.56      3.0009335      33.276569      25.818593      146.74883    
-807651.83      4.034135       33.05695       25.773234      146.27732    
-807632.58      3.2216653      32.151062      25.842591      145.80444    
-807593.2       3.4253334      36.202432      25.91047       145.33029    
-807601.38      3.6857402      38.794634      25.904418      144.85754    
-807616.06      4.0002724      34.012769      25.889837      144.38647    
-807641.79      3.1626711      31.953626      25.86762       143.91731    
-807645.1       5.1560411      36.047607      25.901869      143.44806    
-807665.69      2.8650787      34.301138      25.916131      142.97942    
-807660.76      3.3695069      34.278755      25.890015      142.51274    
-807647.95      3.1088031      32.320492      25.913781      142.04631    
-807617.88      3.4177626      34.45016       25.857885      141.58278    
-807609.6       2.9638746      35.884815      25.858515      141.12021    
-807603.44      4.2952794      38.239118      25.868513      140.65828    
-807614.73      2.7821618      34.398015      25.856222      140.1977     
-807633.5       3.3952966      32.046409      25.928788      139.73573    
-807657.85      2.8998129      32.765916      25.906256      139.27543    
-807667.36      3.1253282      32.732169      25.857404      138.81758    
-807653.38      3.3116369      34.150876      25.86207       138.36047    
-807643.78      2.8275395      31.542238      25.926985      137.90222    
-807628.75      3.8883787      32.178173      25.939343      137.44447    
-807612.45      3.0584228      37.058713      25.858062      136.99007    
-807595.21      3.8233226      37.172846      25.901705      136.53517    
-807617.09      3.7620778      33.803762      25.926741      136.08034    
-807641.55      3.3189274      32.063558      25.873239      135.62792    
-807661.94      3.7067101      32.436182      25.860921      135.17664    
-807653.78      3.7398632      36.037745      25.851223      134.7264     
-807657.02      2.808389       32.831894      25.893822      134.27568    
-807647.9       3.0293612      32.288282      25.937679      133.82446    
-807630.29      3.0319481      33.44562       25.946939      133.37374    
-807598.61      3.2094298      35.945838      25.945575      132.92381    
-807602.33      2.9726085      37.250906      25.926797      132.47514    
-807623.02      3.2956468      33.289053      25.917149      132.02744    
-807648.41      3.0169996      31.497849      25.936124      131.57993    
-807649.26      3.0053221      34.429327      25.921245      131.13352    
-807659.99      3.7429173      33.878027      25.914592      130.68796    
-807658.69      2.5870851      33.165039      25.915821      130.24303    
-807645.63      3.4304787      32.091177      25.918983      129.79867    
-807616.34      3.5107343      33.723513      25.940424      129.3544     
-807603.02      3.5014592      36.229422      25.964837      128.91014    
-807606.63      4.1124326      37.287492      25.926511      128.46751    
-807626.16      3.8343265      32.908702      25.928976      128.02542    
-807638.73      3.5019631      32.416478      25.93626       127.58376    
-807655.74      4.1327307      32.808529      25.933235      127.14277    
-807665.86      2.6989976      32.404145      25.89186       126.7034     
-807652.45      3.2273409      33.883881      25.859155      126.26539    
-807637.48      4.2695182      32.538278      25.901466      125.82689    
-807619.12      3.7640926      33.561764      25.957348      125.3876     
-807611.43      3.3888217      36.836839      25.864849      124.95108    
-807602.75      4.2119084      35.76764       25.842447      124.51561    
-807621.42      2.6441487      33.091355      25.824879      124.08105    
-807641.38      3.0928839      32.296163      25.888807      123.64549    
-807662.05      2.7028659      33.160195      25.861173      123.21107    
-807654.93      3.2510257      35.112674      25.888283      122.77651    
-807648.75      3.7836219      33.828676      25.929145      122.3415     
-807638.31      3.2924877      32.63455       25.940955      121.90673    
-807626.9       3.0983219      33.506198      25.898159      121.47341    
-807600.86      3.5315119      35.874315      25.907137      121.04036    
-807604.15      3.5771388      36.017598      25.929858      120.60727    
-807625.41      4.4436119      32.85775       25.933118      120.17458    
-807649.47      3.3598831      32.229596      25.90956       119.74287    
-807651.37      5.3316515      34.340452      25.878284      119.31227    
-807654.33      3.092509       33.78466       25.888761      118.88187    
-807652.15      3.497158       32.73328       25.900838      118.45165    
-807642.49      3.0150936      31.627773      25.906323      118.02173    
-807616.27      3.5150831      33.315164      25.932877      117.59169    
-807600.22      3.3261791      35.618442      25.930848      117.16211    
-807610.76      3.3850115      34.756019      25.910872      116.73335    
-807632.6       2.7914444      32.078047      25.920361      116.30481    
-807643.93      2.8147439      31.881383      25.925922      115.87656    
-807650.64      3.0059726      34.029694      25.959427      115.44803    
-807660.93      2.8298593      32.604065      25.926744      115.02056    
-807652.7       2.9401275      32.284374      25.903854      114.59392    
-807634.37      2.860672       31.452172      25.917288      114.16739    
-807611.94      3.0529996      33.78919       25.945146      113.7407     
-807608.47      3.2982637      37.42414       25.92159       113.31484    
-807611.51      3.0421587      35.186601      25.899623      112.88976    
-807628.03      2.8033249      33.171741      25.935371      112.46435    
-807641.95      3.7989074      33.967569      25.924477      112.03952    
-807659.41      2.6518461      33.103305      25.856888      111.61628    
-807656.94      3.9988121      34.314269      25.848304      111.19353    
-807647.83      2.9574719      32.907002      25.881973      110.77048    
-807628.8       3.6289101      32.790192      25.90578       110.34732    
-807618.44      2.8996844      34.853437      25.91665       109.9243     
-807606.1       3.45735        35.583215      25.88648       109.50214    
-807610.92      3.12317        34.835801      25.93298       109.07947    
-807629.1       3.0919825      31.413384      25.926387      108.65725    
-807652.02      3.0440747      32.428808      25.966795      108.23463    
-807656.86      3.455006       33.125083      25.922078      107.81311    
-807653.78      3.1219376      32.983209      25.919089      107.39195    
-807645.28      3.2309453      32.228975      25.894143      106.97151    
-807636.74      2.6556702      31.608117      25.916992      106.55098    
-807616.65      2.8462621      33.627661      25.894546      106.13112    
-807603.14      3.2214857      34.978767      25.92812       105.71098    
-807614.86      2.7118581      33.158372      25.932228      105.29107    
-807638         2.7794269      31.01513       25.951151      104.87114    
-807650.41      3.0440568      31.958925      25.9216        104.45198    
-807652.03      3.6916935      33.638364      25.918714      104.03313    
-807654.97      2.9854974      32.645617      25.92358       103.61448    
-807649.63      3.3513877      31.880271      25.903325      103.19642    
-807632.8       3.3139016      32.270965      25.930115      102.77821    
-807607.64      3.849186       35.424249      25.923815      102.36036    
-807609.32      3.6325469      35.474879      25.92267       101.94279    
-807618.27      3.6348841      34.410045      25.935643      101.52527    
-807638.23      3.159625       32.059684      25.923383      101.1082     
-807644.02      3.8748516      34.357728      25.925918      100.69135    
-807657.38      3.0445253      33.055814      25.924819      100.27476    
-807655.47      3.8213626      33.181649      25.913723      99.858575    
-807647.51      2.5206099      32.251545      25.919943      99.442544    
-807623.17      3.2008091      32.139034      25.887935      99.027217    
-807614.35      2.7959615      34.133128      25.904726      98.611876    
-807608.11      2.7682368      34.461189      25.930665      98.196394    
-807619.94      3.0342386      32.970947      25.921257      97.781278    
-807632.07      2.758642       31.496112      25.925195      97.366336    
-807651.16      3.2108096      31.352471      25.913221      96.951787    
-807657.87      2.8823981      32.573395      25.862708      96.53816     
-807654.61      2.8531983      32.410926      25.883854      96.12445     
-807638.62      3.2467259      32.450086      25.92373       95.710405    
-807626.26      2.9084055      33.723839      25.89301       95.296991    
-807613.3       3.3318738      35.54317       25.859919      94.88423     
-807607.32      3.186926       36.014617      25.880154      94.471397    
-807616.69      2.9434572      34.043524      25.913629      94.05832     
-807639.06      3.2814326      32.364359      25.95562       93.644898    
-807651.34      2.7712989      32.735272      25.9168        93.23219     
-807654.94      3.593621       32.831006      25.902322      92.81987     
-807647.39      3.8825101      33.196002      25.843396      92.408501    
-807641.05      3.2753092      31.469725      25.828609      91.997502    
-807627.6       2.9500622      32.776228      25.912138      91.585623    
-807608.7       3.5057717      34.761762      25.914511      91.173906    
-807605.24      2.9102383      35.891635      25.923697      90.762265    
-807622.51      3.7623046      34.240313      25.925594      90.350789    
-807643.25      2.516272       32.307982      25.9203        89.939565    
-807645.63      3.9520341      34.508173      25.930683      89.5284      
-807654.41      2.6831429      33.010692      25.920229      89.117545    
-807648.63      3.2741672      34.04104       25.877712      88.707376    
-807643.2       2.8776613      31.609255      25.864946      88.297528    
-807618.95      3.2331989      33.741039      25.928331      87.887103    
-807610.57      3.4184024      34.544292      25.932665      87.476805    
-807608.28      3.0991583      35.922001      25.908748      87.066956    
-807627.94      3.4508805      32.974775      25.827747      86.658205    
-807637.34      3.0725745      32.397105      25.871694      86.249105    
-807650.9       4.2027427      32.396306      25.914534      85.839681    
-807654.81      3.9639437      33.149762      25.865698      85.430968    
-807651.66      4.5315555      32.761686      25.846849      85.022617    
-807634.05      3.9125122      32.151296      25.870703      84.614153    
-807620.77      3.544743       33.54711       25.917288      84.205334    
-807610.37      3.0951315      35.650879      25.869044      83.797194    
-807613.84      4.1185602      35.513037      25.862054      83.389277    
-807624.21      2.8341165      32.893987      25.911641      82.980979    
-807639.83      3.6753552      33.264736      25.882572      82.57314     
-807655.56      2.7453829      32.580529      25.865969      82.16562     
-807653.86      4.3726379      34.442847      25.847735      81.758432    
-807645.33      3.0207109      33.369495      25.87147       81.351137    
-807633.34      3.4572924      33.227259      25.918977      80.943497    
-807623.87      3.3560619      33.965937      25.925758      80.535935    
-807608.75      3.3807102      36.183765      25.897852      80.128798    
-807613.76      3.0394392      33.855887      25.887696      79.721903    
-807628.06      2.7089873      32.338435      25.902884      79.314995    
-807649.21      2.8224696      31.661616      25.922482      78.908034    
-807651.83      3.2627403      32.952997      25.921057      78.501226    
-807652.27      2.8551321      32.75671       25.888709      78.094868    
-807644.98      2.9107424      32.216196      25.907184      77.688464    
-807638.78      2.8756796      31.828325      25.920109      77.282073    
-807618.99      2.81108        33.396831      25.885312      76.876141    
-807609.05      2.7231222      34.810449      25.917205      76.470041    
-807616.72      3.1449592      33.151511      25.853599      76.064659    
-807635.83      2.3472691      31.296679      25.835825      75.659559    
-807646.54      2.591449       31.51959       25.79562       75.254942    
-807651.64      2.9842793      32.274673      25.853926      74.849907    
-807654.16      3.1077598      31.808273      25.870158      74.444844    
-807647.4       3.2717621      31.619969      25.896782      74.039663    
-807633.09      2.741077       31.630735      25.885316      73.634703    
-807615.35      2.5531092      33.217668      25.903983      73.2297      
-807610.87      3.0155709      34.357471      25.877606      72.825043    
-807620.16      2.9405585      33.363304      25.915854      72.420174    
-807634.72      2.6764524      32.03934       25.926952      72.015331    
-807644.03      3.518904       32.692998      25.942534      71.610477    
-807653.67      3.4290502      33.072075      25.940838      71.205758    
-807652.22      3.4496798      33.335973      25.904897      70.801454    
-807642.28      2.7295185      32.535629      25.925399      70.397096    
-807625.7       3.4699412      33.494618      25.931263      69.992805    
-807616.57      2.9159572      34.472899      25.930718      69.588634    
-807611.62      3.2192935      34.811445      25.905984      69.184773    
-807617.97      3.3066791      34.136302      25.929295      68.780837    
-807632.92      3.705626       31.818562      25.926244      68.377037    
-807649.34      2.7936005      32.200562      25.94103       67.973232    
-807653.69      3.3535518      32.766891      25.942186      67.56953     
-807649.37      2.8840639      32.421435      25.900867      67.166252    
-807639.47      3.4499078      32.66373       25.923709      66.762905    
-807629.11      2.8351313      32.95087       25.921588      66.359679    
-807614.69      3.0590464      34.656755      25.910733      65.956639    
-807608.74      2.7877177      35.228983      25.92002       65.553632    
-807618.51      3.0895928      33.664667      25.909969      65.150801    
-807638.86      2.5887596      32.05863       25.936251      64.747881    
-807648.85      2.9744287      32.712575      25.919598      64.345182    
-807651.13      3.121982       33.333324      25.916394      63.942606    
-807646.99      3.2871089      33.11361       25.845199      63.540628    
-807641.49      3.5723217      32.938427      25.868878      63.138573    
-807624.57      3.0050119      34.296207      25.846221      62.736765    
-807609.17      3.4044016      35.367761      25.827768      62.335171    
-807608.93      3.6498185      35.311485      25.859875      61.933443    
-807625.54      3.556762       33.398067      25.902619      61.531515    
-807639.1       3.993905       32.939351      25.93107       61.129491    
-807646.09      2.679887       33.175176      25.938201      60.727514    
-807651.7       4.0295821      33.33063       25.924685      60.325719    
-807649.32      3.5206578      32.964209      25.91214       59.924097    
-807638.18      2.7900255      32.424024      25.913795      59.522554    
-807620.43      3.7768323      34.180006      25.871729      59.121367    
-807611.34      2.9573398      35.801404      25.920893      58.719955    
-807614.88      3.0247108      34.680953      25.922479      58.318622    
-807627.81      3.3695187      33.353769      25.910274      57.917451    
-807636.45      3.7637244      33.267589      25.894758      57.516461    
-807649.28      2.9549585      33.380155      25.866476      57.115725    
-807651.17      4.3136015      34.060024      25.766417      56.715669    
-807646.2       3.0111773      33.294685      25.727027      56.315916    
-807632.16      3.1789465      32.855036      25.848339      55.915508    
-807622.71      3.1238477      34.080177      25.880207      55.514989    
-807613.53      3.4544175      34.919953      25.917182      55.114337    
-807616.84      3.0525311      34.325557      25.926436      54.713714    
-807624.63      3.2368769      33.307823      25.948162      54.313052    
-807643.2       3.1082022      32.632226      25.941152      53.912512    
-807650.36      2.8636232      33.024632      25.90171       53.512272    
-807650.28      2.8953208      33.328729      25.873393      53.112264    
-807643.3       3.0530889      33.1311        25.83936       52.712514    
-807635.98      3.1139979      32.662566      25.848675      52.312783    
-807621.68      2.7167665      33.535636      25.880053      51.912956    
-807612.72      2.5321353      35.009021      25.918012      51.513002    
-807615.4       3.5177213      34.741978      25.947221      51.112973    
-807631.09      3.0846393      32.747298      25.881419      50.713361    
-807644.38      3.4096135      32.796471      25.912974      50.313658    
-807649.69      3.0147203      32.835121      25.825182      49.914472    
-807650.44      3.2566641      32.693991      25.836856      49.515291    
-807643.62      2.9504557      32.812048      25.807201      49.116322    
-807635.05      2.80411        32.229385      25.867546      48.717118    
-807618.36      3.2519653      33.122108      25.961881      48.317528    
-807612.65      3.3895963      34.631017      25.933931      47.918146    
-807618.97      2.9296107      33.768294      25.922066      47.518893    
-807634.88      2.6766133      32.240724      25.92376       47.119703    
-807641.63      2.7763214      32.860137      25.915615      46.72062     
-807649.61      2.8769761      32.68689       25.880441      46.321767    
-807648.98      3.2996088      33.438009      25.862729      45.923058    
-807645.06      2.6719865      32.384871      25.849772      45.52447     
-807628.79      3.5597392      32.741679      25.852371      45.125931    
-807618.36      2.9369596      34.126349      25.922512      44.727148    
-807612.77      3.1474757      35.395185      25.911052      44.32848     
-807621.59      3.0987545      34.637621      25.875582      43.930029    
-807630.99      4.3417089      33.677212      25.851989      43.531739    
-807642.47      3.5378771      34.026276      25.874183      43.133416    
-807650.24      3.8647144      34.007573      25.847406      42.735263    
-807648.3       3.2979754      34.110516      25.837089      42.337209    
-807638.59      5.0549614      33.888002      25.876063      41.939054    
-807628.65      3.2494264      33.259384      25.949051      41.54067     
-807617.38      3.533248       34.248566      25.924845      41.142446    
-807615.09      3.2626481      34.593277      25.921569      40.744297    
-807618.59      3.2876355      33.852338      25.926981      40.34619     
-807632.49      2.5889643      32.48065       25.919302      39.948174    
-807646.13      2.7012768      32.826753      25.918913      39.550221    
-807649.24      2.6358693      32.817612      25.897245      39.152407    
-807646.38      2.5334742      32.569253      25.874553      38.754735    
-807637.41      3.0153495      32.994626      25.909134      38.356994    
-807629.11      3.14547        32.794998      25.882612      37.959405    
-807618.71      3.2171457      34.049675      25.916431      37.561753    
-807611.42      2.7646663      35.273702      25.920832      37.164144    
-807622.19      3.2817433      34.199367      25.938939      36.766532    
-807637.38      2.9320639      33.466291      25.90762       36.369084    
-807644.36      3.5576623      33.880449      25.866261      35.97183     
-807647.31      2.8335738      33.384469      25.908004      35.57449     
-807644.08      3.6888018      33.796868      25.905215      35.177215    
-807639.45      4.0535357      33.103933      25.881227      34.780071    
-807624.58      3.1861305      34.239926      25.864625      34.383032    
-807614.61      4.0237795      35.075569      25.904798      33.985918    
-807616.11      3.4177341      34.689381      25.952969      33.588711    
-807628.95      4.8175991      33.015263      25.928262      33.191635    
-807635.48      3.9406002      33.755593      25.942567      32.794571    
-807645.75      5.1887374      33.142815      25.914494      32.397645    
-807646.64      3.2557251      33.417191      25.864761      32.000915    
-807648.04      3.7064811      32.013046      25.847229      31.604283    
-807633.62      3.4512256      33.429358      25.882612      31.207598    
-807624.21      3.2143324      33.357888      25.895662      30.810926    
-807617.2       3.3760645      34.524607      25.92201       30.414232    
-807619.64      3.0243057      33.955294      25.918674      30.017599    
-807627.2       2.9870223      32.901314      25.915094      29.621026    
-807637.81      3.3263173      32.295291      25.931427      29.224461    
-807647.9       3.1192197      32.559592      25.922029      28.827971    
-807648.53      3.162838       33.568766      25.863411      28.431678    
-807643.32      3.3196027      32.836184      25.85485       28.035452    
-807633.58      3.1135751      32.622434      25.901921      27.639155    
-807624.52      3.1013423      33.747663      25.911089      27.242883    
-807616.18      3.073999       35.044845      25.909795      26.846663    
-807619.82      2.9835161      33.909486      25.890193      26.450535    
-807626.73      3.5095724      33.963711      25.908759      26.05441     
-807642.44      4.8513747      32.919141      25.892642      25.658368    
-807645.52      3.8801701      33.801413      25.871977      25.262417    
-807647.9       3.7922425      33.54288       25.84951       24.866557    
-807640.82      3.6864402      33.666158      25.863836      24.470708    
-807634.27      3.2283924      33.661343      25.851326      24.074926    
-807621.66      4.4640218      34.654852      25.897808      23.679091    
-807615.56      3.4096288      34.764239      25.902315      23.283291    
-807617.9       3.3240774      34.833349      25.864163      22.88761     
-807629.59      3.2930824      33.943587      25.89555       22.491909    
-807640.08      3.0864509      33.137528      25.883426      22.096274    
-807645.09      3.1532413      33.518418      25.899911      21.70065     
-807644.8       2.9053132      33.92814       25.874988      21.305114    
-807640.37      2.717568       33.445812      25.868719      20.90963     
-807630.73      3.7903958      34.448597      25.948891      20.514046    
-807618.92      3.7338687      35.12777       25.947306      20.118511    
-807614.95      4.0899385      35.793525      25.919368      19.723068    
-807619.81      3.2123726      35.373943      25.932104      19.327646    
-807630.88      3.3858262      34.303198      25.939935      18.932255    
-807639.77      3.322251       33.835753      25.896328      18.536976    
-807645.23      3.0991761      34.187463      25.88336       18.141756    
-807645.49      3.0542091      34.441712      25.854169      17.746618    
-807639.39      3.5611776      33.225954      25.860837      17.351507    
-807627.88      3.4875082      34.306364      25.921221      16.956348    
-807617.76      3.7944716      35.210834      25.868747      16.561303    
-807615.95      2.950163       35.360159      25.884769      16.166272    
-807620.96      4.641836       36.280438      25.877382      15.771289    
-807633.66      3.9830249      34.170724      25.87459       15.376347    
-807640.91      3.1234811      34.19307       25.895316      14.981416    
-807648.08      3.5036237      33.914819      25.848694      14.586578    
-807644.19      3.2426088      34.679623      25.906307      14.191708    
-807637.91      3.7580996      33.040435      25.921813      13.796859    
-807627.31      3.1115276      33.478305      25.901602      13.40207     
-807617.59      4.9664522      35.433661      25.919664      13.0073      
-807618.55      3.1624795      34.962491      25.928798      12.612559    
-807623.71      3.2698655      34.181288      25.929087      12.217857    
-807636.14      2.9671829      32.38566       25.932191      11.823189    
-807643.55      3.4127732      33.314117      25.923323      11.428569    
-807646.28      3.2623016      34.03003       25.912814      11.033995    
-807643.43      3.5382584      33.778509      25.913048      10.639458    
-807636.72      3.0893165      33.300665      25.901727      10.244966    
-807626.16      4.144809       33.554376      25.924346      9.8504921    
-807620.86      3.1889522      34.194567      25.919019      9.4560588    
-807618.08      3.4493414      34.475452      25.91932       9.0616615    
-807626.88      3.6207346      33.740761      25.900167      8.6673132    
-807636.64      3.5096639      33.249224      25.906695      8.2729951    
-807645.12      3.3270687      33.014699      25.907384      7.8787112    
-807644.89      2.6120995      33.315503      25.89641       7.4844683    
-807643.46      2.7196706      33.214235      25.877063      7.0902696    
-807634.5       3.1343574      33.628545      25.886302      6.6960983    
-807625.66      3.1360767      33.532017      25.92713       6.3019394    
-807617.53      3.1816713      34.814825      25.974959      5.9077934    
-807619.59      3.5257504      35.28996       25.90483       5.5137151    
-807629.62      3.886127       33.271568      25.931482      5.1196593    
-807638.31      3.2399256      32.467077      25.943976      4.7256334    
-807644.69      4.0462149      32.203057      25.948922      4.331641     
-807647.62      3.4274565      32.69942       25.85829       3.9377113    
-807642.06      2.8072627      32.954173      25.852925      3.5438125    
-807634.17      3.8817134      32.331175      25.859294      3.1499409    
-807623.43      3.4176071      33.617484      25.878194      2.7560944    
-807619.01      2.680007       34.081872      25.892552      2.3622753    
-807619.34      3.2147396      35.287189      25.9229        1.9684824    
-807629.33      2.9808316      33.294939      25.940155      1.5747199    
-807638.94      3.3460358      33.606447      25.917312      1.1809926    
-807644.38      3.0083939      33.41838       25.883289      0.78729902   
-807645.81      2.7147059      33.85336       25.923158      0.39363369   
-807639.83      3.0039748      33.571521      25.920981      0            
Loop time of 196.809 on 32 procs for 5000 steps with 1080 atoms

Performance: 4.390 ns/day, 5.467 hours/ns, 25.405 timesteps/s, 27.438 katom-step/s
68.8% CPU use with 32 MPI tasks x 1 OpenMP threads

MPI task timing breakdown:
Section |  min time  |  avg time  |  max time  |%varavg| %total
---------------------------------------------------------------
Pair    | 101.38     | 145.64     | 192.76     | 313.4 | 74.00
Neigh   | 0          | 0          | 0          |   0.0 |  0.00
Comm    | 1.7671     | 48.88      | 93.139     | 541.0 | 24.84
Output  | 0.026365   | 0.027144   | 0.028594   |   0.3 |  0.01
Modify  | 1.9298     | 1.9423     | 1.9503     |   0.4 |  0.99
Other   |            | 0.3146     |            |       |  0.16

Nlocal:          33.75 ave          48 max          21 min
Histogram: 8 8 0 0 0 0 0 8 0 8
Nghost:        1106.25 ave        1119 max        1092 min
Histogram: 8 0 8 0 0 0 0 0 8 8
Neighs:              0 ave           0 max           0 min
Histogram: 32 0 0 0 0 0 0 0 0 0
FullNghs:       5494.5 ave        7896 max        3378 min
Histogram: 8 8 0 0 0 0 0 8 0 8

Total # of neighbors = 175824
Ave neighs/atom = 162.8
Neighbor list builds = 0
Dangerous builds = 0

reset_timestep 0


variable interval equal 1000
thermo 10

variable nintervals equal $(v_PERIOD/v_interval)
variable nintervals equal 100
variable efield equal 1e-2*36.36*cos((step/${PERIOD})*2*3.14)
variable efield equal 1e-2*36.36*cos((step/100000)*2*3.14)
fix born all addbornforce 0.0 0.0 v_efield

variable Px equal f_born[1]+c_polarization[1]
variable Py equal f_born[2]+c_polarization[2]
variable Pz equal (f_born[3]+c_polarization[3])/vol
variable pe equal pe

fix aveP all ave/time 1 $(v_interval/2) ${interval} v_efield v_Pz v_pe f_born file Pz.${MODEL}.${STRUCTURE}.${TEMP}.$L.${ITER}
fix aveP all ave/time 1 500 ${interval} v_efield v_Pz v_pe f_born file Pz.${MODEL}.${STRUCTURE}.${TEMP}.$L.${ITER}
fix aveP all ave/time 1 500 1000 v_efield v_Pz v_pe f_born file Pz.${MODEL}.${STRUCTURE}.${TEMP}.$L.${ITER}
fix aveP all ave/time 1 500 1000 v_efield v_Pz v_pe f_born file Pz.BaTiO3-E0.${STRUCTURE}.${TEMP}.$L.${ITER}
fix aveP all ave/time 1 500 1000 v_efield v_Pz v_pe f_born file Pz.BaTiO3-E0.BaTiO3-sc333.${TEMP}.$L.${ITER}
fix aveP all ave/time 1 500 1000 v_efield v_Pz v_pe f_born file Pz.BaTiO3-E0.BaTiO3-sc333.290.$L.${ITER}
fix aveP all ave/time 1 500 1000 v_efield v_Pz v_pe f_born file Pz.BaTiO3-E0.BaTiO3-sc333.290.2.${ITER}
fix aveP all ave/time 1 500 1000 v_efield v_Pz v_pe f_born file Pz.BaTiO3-E0.BaTiO3-sc333.290.2.4

thermo_style custom step time temp press pe f_born v_efield v_Pz spcpu cpuremain

# dump 4a all custom 1000 dump.hyst.${MODEL}.${STRUCTURE}.${TEMP}.$L.${ITER}.bin id type xu yu zu fx fy fz
# dump_modify 4a sort id

fix nvt all nvt temp ${TEMP} ${TEMP} $(100*dt)
fix nvt all nvt temp 290 ${TEMP} $(100*dt)
fix nvt all nvt temp 290 290 $(100*dt)
fix nvt all nvt temp 290 290 0.2000000000000000111

run $(v_PERIOD)
run 100000
WARNING: non-constant efield is experimental, strongly distrust scalar/vector output (src/fix_addbornforce.cpp:193)
Per MPI rank memory allocation (min/avg/max) = 3.516 | 3.516 | 3.516 Mbytes
   Step          Time           Temp          Press          PotEng         f_born        v_efield         v_Pz          S/CPU         CPULeft    
         0   0              291.47513      127035.83     -807639.83     -295.47812      0.3636         0.055571097    0              0            
        10   0.02           312.07376      133134.93     -807632.73     -305.57962      0.36359993     0.057470916    29.244429      3419.1316    
        20   0.04           299.61603      142855.57     -807621.68     -314.92359      0.36359971     0.059228287    29.316245      3414.5903    
        30   0.06           289.03245      144652.02     -807618.01     -317.24632      0.36359935     0.059665187    29.283155      3414.1368    
        40   0.08           290.16792      144568.97     -807619.04     -316.38306      0.36359885     0.059502914    29.291758      3413.4877    
        50   0.1            307.15847      134684.22     -807630.78     -307.22619      0.36359821     0.057780861    29.282443      3413.1784    
        60   0.12           294.56935      128383.95     -807638.73     -297.48853      0.36359742     0.055949595    29.278102      3412.943     
        70   0.14           281.93361      121820.24     -807646.33     -288.24426      0.36359649     0.054211135    29.319529      3411.9882    
        80   0.16           272.52358      123559.82     -807643.81     -289.54639      0.36359541     0.054456194    29.287899      3411.6469    
        90   0.18           292.93024      126495.76     -807640.52     -295.92297      0.36359419     0.055655649    29.304275      3411.0937    
       100   0.2            309.34704      134537.13     -807631.88     -306.9496       0.36359283     0.057729697    29.30373       3410.5898    
       110   0.22           297.18113      141185.9      -807623.42     -313.9415       0.36359132     0.059044946    29.329565      3409.8416    
       120   0.24           288.06628      146026.69     -807617.65     -318.60137      0.36358968     0.05992163     29.31079       3409.3434    
       130   0.26           287.88651      141667.37     -807621.65     -314.86138      0.36358788     0.059218514    29.321336      3408.7749    
       140   0.28           297.80523      134914.56     -807631.82     -306.23868      0.36358595     0.057597081    29.322567      3408.2292    
       150   0.3            285.80615      125812.93     -807641.89     -294.65086      0.36358387     0.055417971    29.255011      3408.2347    
       160   0.32           270.96736      122765.29     -807645.04     -289.51876      0.36358165     0.054453059    29.24775       3408.2498    
       170   0.34           275.31677      122354.36     -807645.19     -290.19853      0.36357928     0.054581266    29.316545      3407.7517    
       180   0.36           293.35109      128319.6      -807640.23     -297.84744      0.36357677     0.056020278    29.304257      3407.3504    
       190   0.38           296.63906      135617.33     -807631.63     -307.11036      0.36357412     0.057762906    29.290955      3407.0368    
       200   0.4            289.82476      141791.06     -807622.35     -315.66142      0.36357132     0.059371689    29.313136      3406.5915    
       210   0.42           277.81108      145130.68     -807618.28     -318.15573      0.36356838     0.05984132     29.314469      3406.1487    
       220   0.44           289.46344      139035.24     -807625.4      -312.81664      0.3635653      0.058837599    29.251604      3406.0478    
       230   0.46           293.59676      133176.49     -807634.24     -304.63847      0.36356207     0.057299877    29.227034      3406.0505    
       240   0.48           284.72208      125055.08     -807643.01     -294.77878      0.3635587      0.055445868    29.221403      3406.0521    
       250   0.5            273.5145       123128.71     -807645.31     -290.92136      0.36355519     0.054720843    29.242536      3405.9271    
       260   0.52           265.6718       122730.9      -807644.83     -290.42975      0.36355153     0.054628923    29.297758      3405.5384    
       270   0.54           295.50752      129698.1      -807639.75     -299.69689      0.36354773     0.056372631    29.29964       3405.1451    
       280   0.56           287.04972      135890.02     -807629.58     -308.86672      0.36354379     0.058098097    29.310448      3404.7108    
       290   0.58           284.05774      143918.85     -807620.66     -317.33053      0.3635397      0.059690817    29.296319      3404.3392    
       300   0.6            280.98466      142416.49     -807622.05     -315.54928      0.36353547     0.05935645     29.341904      3403.7936    
       310   0.62           288.58242      138982.94     -807626.88     -311.70413      0.3635311      0.058633862    29.310184      3403.3799    
       320   0.64           296.61537      130318.06     -807636.64     -303.05673      0.36352658     0.05700793     29.31196       3402.964     
       330   0.66           276.6769       125749.46     -807641.52     -295.23449      0.36352192     0.055537203    29.301097      3402.5911    
       340   0.68           263.78951      122162.43     -807646.06     -288.81553      0.36351712     0.054330436    29.288163      3402.2639    
       350   0.7            273.30868      124889.8      -807643.96     -292.10202      0.36351217     0.054949421    29.312254      3401.8564    
       360   0.72           291.52271      130087.84     -807636.3      -302.21086      0.36350708     0.056851864    29.352502      3401.3229    
       370   0.74           300.47695      137529.66     -807627.78     -311.63659      0.36350185     0.058625875    29.342367      3400.8315    
       380   0.76           278.96528      143284.19     -807620.2      -315.88963      0.36349647     0.059426847    29.328712      3400.3897    
       390   0.78           286.66972      143122.95     -807622.02     -314.79789      0.36349095     0.059222363    29.296643      3400.0482    
       400   0.8            300.18285      138957.88     -807626.38     -312.00042      0.36348529     0.058696995    29.357167      3399.5318    
       410   0.82           295.89476      130288.56     -807635.96     -301.5245       0.36347948     0.056727052    29.342174      3399.0661    
       420   0.84           289.66934      124711.39     -807644.44     -291.73956      0.36347353     0.054887071    29.300593      3398.7211    
       430   0.86           276.24834      121489.47     -807646.83     -287.20641      0.36346744     0.054035121    29.270632      3398.457     
       440   0.88           281.80553      125853.07     -807640.15     -294.46349      0.3634612      0.055401422    29.318298      3398.0638    
       450   0.9            301.75742      131138.9      -807634.49     -302.73934      0.36345482     0.056959471    29.352683      3397.5845    
       460   0.92           291.68726      139773.65     -807624.65     -310.97497      0.3634483      0.058510029    29.330099      3397.168     
       470   0.94           287.74473      143941.53     -807619.09     -315.79832      0.36344163     0.059418634    29.271362      3396.8995    
       480   0.96           284.10381      144390.55     -807616.34     -317.87729      0.36343482     0.05981092     29.240195      3396.7036    
       490   0.98           305.51404      137701.2      -807626.42     -310.7122       0.36342786     0.058463875    29.203809      3396.5882    
       500   1              305.59981      129996.04     -807637.96     -298.9242       0.36342077     0.056246933    29.234523      3396.3921    
       510   1.02           285.8678       124345.02     -807642.66     -9322.0748      0.36341353     0.054816214    29.18394       3396.306     
       520   1.04           288.01793      122305.3      -807643.86     -9292.1898      0.36340614     0.054641592    29.200164      3396.1736    
       530   1.06           289.84198      127129.62     -807638.82     -9459.1118      0.36339862     0.055624309    29.220091      3395.9895    
       540   1.08           307.75152      132453.38     -807634.83     -9667.77        0.36339095     0.056852523    29.236804      3395.7633    
       550   1.1            295.62355      141643.93     -807622.95     -9990.8129      0.36338313     0.058753481    29.211662      3395.5863    
       560   1.12           289.93561      143963.95     -807617.63     -10139.202      0.36337518     0.059627423    29.143221      3395.5461    
       570   1.14           297.10397      143296.66     -807620.1      -10090.468      0.36336707     0.059342152    29.132774      3395.5167    
       580   1.16           311.29129      134749.95     -807631.63     -9787.354       0.36335883     0.057560839    29.183946      3395.3734    
       590   1.18           298.27851      129528.48     -807636.71     -9565.5593      0.36335044     0.056257731    29.200772      3395.19      
       600   1.2            279.66258      123694.25     -807641.76     -9323.3226      0.36334191     0.054834357    29.219954      3394.964     
       610   1.22           286.49705      124796.4      -807643.51     -9295.9962      0.36333324     0.054674943    29.24784       3394.6811    
       620   1.24           301.19267      125915.14     -807641.71     -9425.2715      0.36332442     0.055436629    29.215614      3394.4569    
       630   1.26           307.08615      135116.74     -807631.63     -9779.0133      0.36331546     0.057518651    29.183726      3394.2877    
       640   1.28           289.07359      140551.81     -807621.74     -10022.24       0.36330636     0.058950752    29.146538      3394.181     
       650   1.3            293.1931       144643.08     -807619.54     -10112.43       0.36329711     0.059482761    29.138506      3394.0816    
       660   1.32           302.21406      140253.64     -807624.18     -10010.915      0.36328772     0.058887159    29.157393      3393.9412    
       670   1.34           294.62967      135088.25     -807628.85     -9832.7132      0.36327819     0.05784044     29.207485      3393.7076    
       680   1.36           293.72488      128266.77     -807638.87     -9515.3252      0.36326851     0.055974912    29.210303      3393.4661    
       690   1.38           273.43529      124380.67     -807643.1      -9291.9743      0.36325869     0.054662504    29.209118      3393.2235    
       700   1.4            280.91612      124027.65     -807644.49     -9287.5566      0.36324873     0.054638014    29.179896      3393.0268    
       710   1.42           289.64875      127658.83     -807639.19     -9505.3502      0.36323863     0.055920834    29.204893      3392.7849    
       720   1.44           292.72578      135227.35     -807630.06     -9816.3691      0.36322838     0.057752216    29.213957      3392.5256    
       730   1.46           286.1274       140853.83     -807623.31     -10008.497      0.36321798     0.05888424     29.19061       3392.3013    
       740   1.48           286.44009      143369.18     -807620.62     -10101.082      0.36320745     0.059430681    29.225125      3392.0195    
       750   1.5            290.77049      140960.43     -807624.11     -10012.401      0.36319677     0.058910647    29.258963      3391.6837    
       760   1.52           291.50878      135112.87     -807630.9      -9801.9848      0.36318595     0.057674326    29.277204      3391.32      
       770   1.54           286.92318      127046.41     -807640.84     -9466.2109      0.36317498     0.055700334    29.239843      3391.013     
       780   1.56           280.05008      123645.52     -807645.2      -9296.9997      0.36316387     0.054706347    29.206222      3390.7552    
       790   1.58           276.7035       123422.74     -807643.4      -9343.8386      0.36315262     0.054983665    29.17728       3390.538     
       800   1.6            294.08225      127943.61     -807639.31     -9556.794       0.36314122     0.056238562    29.175716      3390.3199    
       810   1.62           284.47128      134893.99     -807631.36     -9770.7818      0.36312968     0.057499637    29.193538      3390.073     
       820   1.64           291.24331      141035.22     -807624.48     -10020.625      0.363118       0.058971825    29.207836      3389.8036    
       830   1.66           272.50132      143519.19     -807618.96     -10115.721      0.36310618     0.059533405    29.243927      3389.4819    
       840   1.68           289.92757      139677        -807625.16     -9994.9994      0.36309421     0.058824872    29.254611      3389.1451    
       850   1.7            298.20733      132805.48     -807635.09     -9712.1222      0.3630821      0.057161924    29.25543       3388.8069    
       860   1.72           287.98357      126303.68     -807641.77     -9451.3463      0.36306984     0.055628972    29.279515      3388.4363    
       870   1.74           275.36738      124049.86     -807643.7      -9330.188       0.36305745     0.054917731    29.272302      3388.0759    
       880   1.76           281.81765      124669.97     -807643.16     -9374.6507      0.3630449      0.055181346    29.240159      3387.7583    
       890   1.78           287.68851      129398.65     -807637.62     -9575.8634      0.36303222     0.0563677      29.222799      3387.4627    
       900   1.8            297.70886      135782.96     -807630.73     -9839.6413      0.36301939     0.057922457    29.186141      3387.2135    
       910   1.82           284.20909      141814.48     -807621.36     -10076.537      0.36300642     0.0593191      29.228818      3386.9076    
       920   1.84           280.05353      142276.41     -807620.92     -10067.25       0.36299331     0.059266567    29.210649      3386.624     
       930   1.86           288.90436      137993.7      -807627.45     -9891.7478      0.36298005     0.058235501    29.221564      3386.3254    
       940   1.88           292.9783       130904.56     -807635.63     -9643.3541      0.36296665     0.056775233    29.180134      3386.0771    
       950   1.9            293.19855      126753.93     -807641.07     -9459.5843      0.36295311     0.055695367    29.199242      3385.8036    
       960   1.92           281.46564      123056.11     -807644.46     -9291.4244      0.36293942     0.054707352    29.227147      3385.4947    
       970   1.94           285.97705      126687.31     -807642.5      -9360.8389      0.36292559     0.05511816     29.189533      3385.2302    
       980   1.96           295.08233      130155.55     -807635.75     -9607.9808      0.36291162     0.056575551    29.176596      3384.9794    
       990   1.98           308.5241       137893.76     -807627.25     -9926.9164      0.3628975      0.058455842    29.230047      3384.6642    
      1000   2              291.61187      142737.16     -807620.93     -10043.509      0.36288325     0.059144735    29.132323      3384.462     
      1010   2.02           289.35685      142725.89     -807620.18     -313.83514      0.36286884     0.059142463    29.340425      3384.0184    
      1020   2.04           302.97465      137166.79     -807627.17     -308.45084      0.3628543      0.058130117    29.319367      3383.6005    
      1030   2.06           300.04701      131672.95     -807633.62     -301.34923      0.36283961     0.05679406     29.312572      3383.1917    
      1040   2.08           292.83438      126080.67     -807640.22     -293.48239      0.36282478     0.05531369     29.312296      3382.7846    
      1050   2.1            278.85338      124080.03     -807642.86     -288.71851      0.3628098      0.054418069    29.276755      3382.4177    
      1060   2.12           291.92032      127152.74     -807639.71     -293.61393      0.36279469     0.055343072    29.222471      3382.1106    
      1070   2.14           302.54682      132207.61     -807632.7      -302.12069      0.36277943     0.0569489      29.206025      3381.8206    
      1080   2.16           309.60457      138474.3      -807625.83     -309.93682      0.36276402     0.058424699    29.279862      3381.4505    
      1090   2.18           302.24948      142337.5      -807621.91     -312.86764      0.36274848     0.058979701    29.342403      3381.0149    
      1100   2.2            295.5243       142245.9      -807620.49     -313.33878      0.36273279     0.059071072    29.278138      3380.6483    
      1110   2.22           314.07757      137274.39     -807628.59     -307.92873      0.36271695     0.058053696    29.27785       3380.2824    
      1120   2.24           297.55769      130830.05     -807634.17     -300.03667      0.36270098     0.0565683      29.266719      3379.9285    
      1130   2.26           299.80449      124221.53     -807642.77     -291.8018       0.36268486     0.055018159    29.255262      3379.5865    
      1140   2.28           281.55877      124861.11     -807642.53     -289.52807      0.3626686      0.054591904    29.215673      3379.2846    
      1150   2.3            303.50198      127187.03     -807640.44     -294.85921      0.36265219     0.055599631    29.224469      3378.9732    
      1160   2.32           304.58693      132178.47     -807633.14     -302.45186      0.36263564     0.057033928    29.258622      3378.6272    
      1170   2.34           306.1497       138391.43     -807627.31     -308.66938      0.36261895     0.058209057    29.293352      3378.2471    
      1180   2.36           282.707        142525.86     -807619.65     -313.1824       0.36260212     0.059062867    29.285372      3377.8754    
      1190   2.38           301.64036      141283.19     -807622.64     -312.97212      0.36258514     0.059025975    29.240016      3377.5482    
      1200   2.4            303.16147      136345.87     -807628.66     -307.32802      0.36256802     0.057964245    29.197818      3377.2614    
      1210   2.42           288.43993      130945.6      -807635.7      -298.36646      0.36255076     0.05627671     29.191604      3376.9797    
      1220   2.44           290.09752      124701.54     -807642.82     -291.60428      0.36253335     0.055003895    29.223372      3376.6668    
      1230   2.46           282.07869      124808.91     -807642.04     -291.38242      0.3625158      0.054964708    29.254395      3376.3243    
      1240   2.48           297.5253       126397.89     -807640.69     -295.06831      0.36249811     0.055662709    29.276288      3375.9615    
      1250   2.5            298.74758      133267.65     -807633.36     -302.78895      0.36248028     0.057121968    29.276048      3375.5992    
      1260   2.52           299.35558      138719.35     -807627.32     -309.13715      0.3624623      0.058322465    29.333086      3375.1852    
      1270   2.54           284.378        143142.64     -807620.22     -314.27398      0.36244418     0.059294555    29.321366      3374.783     
      1280   2.56           286.47516      140026.97     -807623.45     -311.45051      0.36242592     0.058764807    29.307388      3374.3942    
      1290   2.58           292.90429      134905.36     -807630.69     -305.26458      0.36240751     0.057600565    29.297146      3374.0154    
      1300   2.6            284.66553      128472.29     -807636.96     -297.93481      0.36238896     0.056220384    29.291512      3373.642     
      1310   2.62           283.88952      125789.9      -807641.64     -293.19803      0.36237027     0.055329407    29.316497      3373.2472    
      1320   2.64           275.13387      124341.03     -807642.73     -290.95599      0.36235143     0.054909165    29.301679      3372.8662    
      1330   2.66           294.49478      128858.65     -807639.75     -296.62216      0.36233245     0.055981415    29.280587      3372.504     
      1340   2.68           294.91804      133149.53     -807632.76     -303.92124      0.36231333     0.057361997    29.263908      3372.1564    
      1350   2.7            299.85267      140197.14     -807625.92     -311.43709      0.36229407     0.05878366     29.221499      3371.8452    
      1360   2.72           278.2724       141348.7      -807622.08     -312.33141      0.36227466     0.058955621    29.240846      3371.5171    
      1370   2.74           287.95865      139694.98     -807625.86     -309.92823      0.36225511     0.058505154    29.246108      3371.1843    
      1380   2.76           298.21715      133166.46     -807633.17     -304.08914      0.36223542     0.057406031    29.146146      3370.9352    
      1390   2.78           293.63469      128172.57     -807638.72     -297.83213      0.36221558     0.056227909    29.17926       3370.6572    
      1400   2.8            285.91763      123788.06     -807644.25     -291.22983      0.3621956      0.054984489    29.231915      3370.3347    
      1410   2.82           276.27569      125076.74     -807643.07     -291.03817      0.36217548     0.054951358    29.242739      3370.0031    
      1420   2.84           283.94075      128119.16     -807638.93     -296.33824      0.36215522     0.055955201    29.27997       3369.6412    
      1430   2.86           287.7293       135266.09     -807630        -305.77742      0.36213481     0.057740781    29.292435      3369.2695    
      1440   2.88           281.46042      139781.18     -807623.98     -310.88312      0.36211426     0.058708235    29.30977       3368.8845    
      1450   2.9            280.69759      141933.82     -807622.52     -312.13413      0.36209357     0.058947849    29.331523      3368.4828    
      1460   2.92           298.90561      139345.19     -807626.8      -310.27671      0.36207273     0.05860044     29.324723      3368.0874    
      1470   2.94           304.52109      133535.38     -807632.91     -304.88541      0.36205176     0.057585548    29.33475       3367.6848    
      1480   2.96           282.79579      128215.31     -807638.43     -296.2006       0.36203064     0.05594846     29.319703      3367.2947    
      1490   2.98           283.03449      123901.67     -807644.72     -289.79023      0.36200937     0.054740838    29.315225      3366.9088    
      1500   3              276.20631      125247.6      -807641.6      -291.88404      0.36198796     0.055139616    29.262437      3366.5638    
      1510   3.02           285.61862      128872.74     -807637.15     -9522.606       0.36196642     0.056219254    29.175621      3366.2852    
      1520   3.04           295.22822      135366.25     -807631.3      -9744.4502      0.36194472     0.057532419    29.200974      3365.9865    
      1530   3.06           297.53448      139543.85     -807626.39     -9904.6321      0.36192289     0.05848168     29.206746      3365.6828    
      1540   3.08           302.45037      142418.56     -807622.96     -10025.999      0.36190091     0.05920188     29.210899      3365.3756    
      1550   3.1            297.65487      138683.5      -807625.38     -9917.7353      0.36187879     0.058566183    29.221295      3365.0602    
      1560   3.12           304.60883      133697.79     -807633.97     -9660.6613      0.36185653     0.05705162     29.196459      3364.7627    
      1570   3.14           289.87918      127740.75     -807639.8      -9396.145       0.36183412     0.05549294     29.242606      3364.4308    
      1580   3.16           287.29295      125335.1      -807641.09     -9331.2559      0.36181157     0.055113144    29.243227      3364.0984    
      1590   3.18           287.10141      125623.08     -807640.5      -9338.7987      0.36178888     0.055161153    29.19796       3363.7986    
      1600   3.2            299.72997      130915.44     -807635.71     -9537.4877      0.36176605     0.056338298    29.193554      3363.5015    
      1610   3.22           310.61034      135459.28     -807630.21     -9756.0379      0.36174307     0.057632943    29.204398      3363.196     
      1620   3.24           292.70096      142167.24     -807620.14     -9989.511       0.36171995     0.059015937    29.214891      3362.8826    
      1630   3.26           297.70617      141923.99     -807620.73     -9987.2588      0.36169669     0.059006425    29.217586      3362.567     
      1640   3.28           308.60596      138969.02     -807626.41     -9849.529       0.36167329     0.05819646     29.171203      3362.2836    
      1650   3.3            315.48294      131630.7      -807634.4      -9619.9631      0.36164974     0.056843759    29.236951      3361.9536    
      1660   3.32           299.62454      126951.4      -807638.31     -9420.767       0.36162605     0.055670368    29.230248      3361.6281    
      1670   3.34           299.46073      124198.95     -807642.52     -9286.0701      0.36160222     0.054878017    29.251035      3361.2881    
      1680   3.36           290.95628      125631.58     -807640.2      -9323.7074      0.36157824     0.055104096    29.230213      3360.9624    
      1690   3.38           303.3493       131874.54     -807634.56     -9560.5005      0.36155413     0.056507338    29.261         3360.6154    
      1700   3.4            303.58448      136888.58     -807626.75     -9815.4023      0.36152987     0.058017828    29.218701      3360.2972    
      1710   3.42           296.18461      142335.47     -807620.21     -9993.0559      0.36150546     0.059071907    29.243215      3359.9621    
      1720   3.44           302.1673       141126.88     -807623.02     -9933.4542      0.36148092     0.058723571    29.247558      3359.6241    
      1730   3.46           308.11095      138609.21     -807627.25     -9825.8214      0.36145623     0.058091246    29.260504      3359.2775    
      1740   3.48           302.35561      131447.11     -807633.98     -9590.591       0.3614314      0.056704435    29.260833      3358.9307    
      1750   3.5            295.042        127807.47     -807639.24     -9390.9993      0.36140643     0.055528185    29.242062      3358.5963    
      1760   3.52           289.48111      123308.02     -807643.34     -9241.3607      0.36138131     0.054647182    29.206179      3358.2852    
      1770   3.54           298.66319      127971.39     -807640.11     -9389.5842      0.36135605     0.055527557    29.205053      3357.9745    
      1780   3.56           295.37159      131406.64     -807634.05     -9577.8164      0.36133065     0.056644695    29.219118      3357.6544    
      1790   3.58           307.46067      138324.65     -807628.12     -9824.8306      0.36130511     0.058109683    29.157303      3357.3738    
      1800   3.6            300.00418      140107.19     -807624.75     -9905.3806      0.36127942     0.058590267    29.161946      3357.0896    
      1810   3.62           293.09273      141370.36     -807622.4      -9953.0825      0.3612536      0.058876633    29.222082      3356.7664    
      1820   3.64           297.3599       135007.61     -807629.33     -9756.409       0.36122763     0.057717376    29.24975       3356.4256    
      1830   3.66           293.87188      130951.31     -807635.12     -9557.559       0.36120151     0.056545099    29.253563      3356.0823    
      1840   3.68           280.09363      126210.28     -807639.98     -9344.9927      0.36117526     0.055291518    29.243078      3355.7456    
      1850   3.7            284.78002      126141.27     -807641.68     -9310.6627      0.36114886     0.055092424    29.246249      3355.4069    
      1860   3.72           297.83016      127195.93     -807640.64     -9407.6591      0.36112232     0.055670456    29.229688      3355.0784    
      1870   3.74           296.60812      133860.21     -807632.85     -9653.7656      0.36109564     0.057131029    29.24665       3354.7393    
      1880   3.76           291.36981      138043.63     -807626.76     -9830.9507      0.36106881     0.058183934    29.247546      3354.3996    
      1890   3.78           301.08937      140967.26     -807624.91     -9934.5468      0.36104184     0.058801453    29.250581      3354.0581    
      1900   3.8            284.38526      140096.59     -807623.74     -9901.2229      0.36101474     0.058608614    29.242791      3353.7212    
      1910   3.82           291.85076      135203.98     -807630.48     -9720.9169      0.36098748     0.057545667    29.23802       3353.3873    
      1920   3.84           293.78222      129512.47     -807637.06     -9518.1364      0.36096009     0.056349528    29.256408      3353.0421    
      1930   3.86           281.60765      124924.88     -807641.27     -9331.8519      0.36093255     0.055250896    29.29036       3352.677     
      1940   3.88           277.92697      126174.15     -807641.43     -9310.2501      0.36090487     0.055127227    29.208913      3352.3601    
      1950   3.9            293.95702      127743.31     -807639.79     -9436.8083      0.36087705     0.055880902    29.215499      3352.0392    
      1960   3.92           292.67642      133966.11     -807631.54     -9696.1878      0.36084909     0.05742129     29.182345      3351.7375    
      1970   3.94           294.45271      138036.89     -807627.53     -9834.0942      0.36082098     0.058242515    29.224229      3351.4109    
      1980   3.96           283.80596      141815.72     -807623.08     -9929.0284      0.36079273     0.058809368    29.190061      3351.104     
      1990   3.98           294.41426      137664.22     -807626.88     -9853.6928      0.36076434     0.05836775     29.219231      3350.7799    
      2000   4              299.01567      134426.15     -807632.09     -9706.3782      0.36073581     0.057499689    29.223859      3350.4529    
      2010   4.02           283.66393      128578.91     -807637.68     -295.67614      0.36070713     0.056054317    29.295556      3350.085     
      2020   4.04           284.83897      126268.59     -807641.89     -291.57032      0.36067831     0.055280352    29.249834      3349.7432    
      2030   4.06           279.27803      125084.21     -807641.63     -291.09603      0.36064935     0.055194861    29.23257       3349.4111    
      2040   4.08           287.36591      129652.39     -807637.07     -296.76063      0.36062025     0.056273469    29.325989      3349.0267    
      2050   4.1            285.14243      134363.14     -807630.85     -302.71853      0.36059101     0.057407895    29.329167      3348.6409    
      2060   4.12           291.04444      138770.57     -807626.32     -307.99859      0.36056162     0.058413973    29.312361      3348.2648    
      2070   4.14           280.40663      140022.08     -807623.46     -309.32286      0.36053209     0.058669935    29.296431      3347.8978    
      2080   4.16           291.067        138314.64     -807626.75     -307.49384      0.36050242     0.058327821    29.276125      3347.5423    
      2090   4.18           297.32829      132909.18     -807633.57     -301.47547      0.36047261     0.057190939    29.278831      3347.1853    
      2100   4.2            287.20187      128680.58     -807638.85     -294.67965      0.36044265     0.055906394    29.263739      3346.8368    
      2110   4.22           278.21127      125531.84     -807641.61     -290.5864       0.36041256     0.05513443     29.213139      3346.5157    
      2120   4.24           289.39015      126787.5      -807641.06     -292.60995      0.36038232     0.055523028    29.276328      3346.1604    
      2130   4.26           290.77137      129756.77     -807636.82     -297.00453      0.36035193     0.056361654    29.37879       3345.7504    
      2140   4.28           293.77693      134517.95     -807630.64     -303.48559      0.36032141     0.057596424    29.394392      3345.3329    
      2150   4.3            289.5435       138633.84     -807625.83     -307.55305      0.36029075     0.058373328    29.342335      3344.9435    
      2160   4.32           283.54035      140496.36     -807623.37     -309.01945      0.36025994     0.058656665    29.307015      3344.5732    
      2170   4.34           293.24466      137613.48     -807627.76     -305.76472      0.36022899     0.058043854    29.329058      3344.1916    
      2180   4.36           303.65551      131901.9      -807635.22     -299.46841      0.36019789     0.056853521    29.355811      3343.7964    
      2190   4.38           295.35459      128268.01     -807638.8      -294.41164      0.36016666     0.05589835     29.269219      3343.4467    
      2200   4.4            276.81889      126144.95     -807639.52     -290.80238      0.36013528     0.05521789     29.249296      3343.1074    
      2210   4.42           294.44717      127384.64     -807639.4      -293.03316      0.36010377     0.055646341    29.285873      3342.7492    
      2220   4.44           302.80492      130272.26     -807636.39     -296.93295      0.36007211     0.056391862    29.337646      3342.3647    
      2230   4.46           289.49486      136528.66     -807627.03     -304.11562      0.3600403      0.057761056    29.268913      3342.0156    
      2240   4.48           296.83702      138369.83     -807624.41     -307.50913      0.36000836     0.058410773    29.196858      3341.7034    
      2250   4.5            303.99829      139557.06     -807624.52     -308.09846      0.35997627     0.05852793     29.227558      3341.3753    
      2260   4.52           296.94032      136403.57     -807626.78     -304.62935      0.35994404     0.057874103    29.184724      3341.0687    
      2270   4.54           298.86814      132700.3      -807632.24     -299.24252      0.35991167     0.056855815    29.205547      3340.7514    
      2280   4.56           305.90279      127143.43     -807639.12     -293.20891      0.35987916     0.055714466    29.257723      3340.4076    
      2290   4.58           285.61224      127154.63     -807638.18     -291.12437      0.35984651     0.055323391    29.305935      3340.0399    
      2300   4.6            297.19985      127077.58     -807639.4      -291.49884      0.35981371     0.0553996      29.331588      3339.6597    
      2310   4.62           301.78156      131536.03     -807633.12     -298.36288      0.35978077     0.056709309    29.342714      3339.2744    
      2320   4.64           303.30058      135568.57     -807628.17     -303.55063      0.35974769     0.05770064     29.315463      3338.9029    
      2330   4.66           303.12661      140603.14     -807624.3      -307.35116      0.35971447     0.058428463    29.28001       3338.5489    
      2340   4.68           297.21979      139077.38     -807623.88     -307.05217      0.35968111     0.058377038    29.272348      3338.1987    
      2350   4.7            299.91166      137627.09     -807627.37     -303.97192      0.3596476      0.057796803    29.283268      3337.8433    
      2360   4.72           302.58839      131083.1      -807633.57     -298.22907      0.35961396     0.056710172    29.30437       3337.4779    
      2370   4.74           293.71924      128132.57     -807637.92     -292.71056      0.35958017     0.05566602     29.287341      3337.1208    
      2380   4.76           296.28624      125850.08     -807640.76     -290.36071      0.35954624     0.055224351    29.247588      3336.7829    
      2390   4.78           304.76052      127718.48     -807639.1      -293.34809      0.35951216     0.055797815    29.272761      3336.433     
      2400   4.8            299.47371      131228.17     -807633.97     -298.01491      0.35947795     0.056690887    29.327815      3336.057     
      2410   4.82           300.3633       137169.89     -807628.1      -304.17919      0.35944359     0.05786904     29.343327      3335.6741    
      2420   4.84           293.02813      138720.86     -807625.09     -306.47407      0.35940909     0.058311229    29.29359       3335.3148    
      2430   4.86           294.7557       139389.04     -807625.13     -306.8834       0.35937446     0.058394738    29.299878      3334.9527    
      2440   4.88           290.3995       135448.01     -807628.93     -302.7132       0.35933967     0.057606794    29.307003      3334.5875    
      2450   4.9            295.54521      131012.29     -807635.27     -297.20342      0.35930475     0.056563771    29.276675      3334.2365    
      2460   4.92           288.88238      127048.33     -807639.77     -291.91109      0.35926969     0.055561958    29.285053      3333.8818    
      2470   4.94           288.60676      126942.55     -807641        -290.79031      0.35923448     0.055354054    29.333126      3333.5051    
      2480   4.96           283.51155      128343.37     -807637.48     -293.70576      0.35919913     0.055914534    29.308305      3333.14      
      2490   4.98           293.33438      133196.22     -807634.04     -298.61999      0.35916364     0.056855702    29.313135      3332.7729    
      2500   5              298.47965      135841.82     -807630.27     -303.22638      0.35912801     0.057738463    29.297312      3332.4132    
[...]
     98740   197.48         271.67181      135443.32     -807630.43     -9763.836       0.36236891     0.057579393    29.334375      44.266951    
     98750   197.5          277.05672      133387.26     -807632.28     -9736.9501      0.36238762     0.057417878    29.31278       43.915497    
     98760   197.52         277.47019      134501.91     -807632.8      -9722.6975      0.36240618     0.057330895    29.312407      43.564045    
     98770   197.54         285.01665      132414.63     -807635.51     -9674.2519      0.36242459     0.057042332    29.325645      43.212594    
     98780   197.56         283.97428      133023.17     -807633.71     -9729.3649      0.36244287     0.057364403    29.324894      42.861145    
     98790   197.58         275.72012      131978.97     -807634.24     -9677.5589      0.362461       0.0570561      29.316333      42.509699    
     98800   197.6          282.06973      131843.18     -807636.98     -9618.6504      0.36247899     0.056705978    29.263469      42.158262    
     98810   197.62         275.06928      132289.46     -807634.9      -9652.8212      0.36249683     0.056904628    29.236938      41.806832    
     98820   197.64         273.77262      133616.82     -807632.46     -9723.5779      0.36251453     0.057318948    29.255277      41.4554      
     98830   197.66         280.42209      133482.77     -807633.13     -9729.7779      0.36253209     0.057352718    29.295051      41.103965    
     98840   197.68         274.12782      133510.26     -807632.84     -9707.4247      0.36254951     0.057218208    29.296208      40.752532    
     98850   197.7          280.6107       133944.6      -807633.44     -9715.4947      0.36256678     0.057263046    29.302509      40.401101    
     98860   197.72         282.77828      133526.29     -807632.51     -9750.029       0.36258391     0.057463876    29.28259       40.049673    
     98870   197.74         284.84512      131922.9      -807634.61     -9688.7136      0.3626009      0.057099825    29.213769      39.698258    
     98880   197.76         288.60538      131602.4      -807636.44     -9642.5025      0.36261774     0.056824843    29.224591      39.346842    
     98890   197.78         278.55205      131303.55     -807634.17     -9668.7835      0.36263445     0.056977097    29.205194      38.995431    
     98900   197.8          286.67641      131378.39     -807634.34     -9695.9008      0.362651       0.057134288    29.205129      38.644022    
     98910   197.82         277.71329      133105        -807632.97     -9697.0159      0.36266742     0.057138272    29.208787      38.292614    
     98920   197.84         290.5228       133050.27     -807634.45     -9701.6615      0.36268369     0.057163081    29.211361      37.941208    
     98930   197.86         288.61238      133693.2      -807632.87     -9739.9911      0.36269982     0.057386371    29.262404      37.589797    
     98940   197.88         279.26153      134334.28     -807630.82     -9761.5066      0.36271581     0.057510601    29.273346      37.238386    
     98950   197.9          286.08444      133571.12     -807632.91     -9719.0343      0.36273165     0.057257872    29.248028      36.886981    
     98960   197.92         282.53004      131997.97     -807634.13     -9659.1542      0.36274735     0.056902636    29.254225      36.535577    
     98970   197.94         285.7227       132101.07     -807634.57     -9655.8748      0.36276291     0.056880878    29.277452      36.184172    
     98980   197.96         277.77404      132574.54     -807632.5      -9681.5476      0.36277832     0.057029688    29.297845      35.832766    
     98990   197.98         295.47896      132479.02     -807634.71     -9684.6012      0.36279359     0.057045275    29.289089      35.481364    
     99000   198            287.27959      133287.11     -807634.06     -9664.7795      0.36280872     0.056926145    29.302275      35.129962    
     99010   198.02         291.28839      133913.18     -807632.5      -304.01575      0.3628237      0.05729912     29.335895      34.778558    
     99020   198.04         283.78103      134211.1      -807630        -305.34658      0.36283855     0.057547593    29.360589      34.427153    
     99030   198.06         286.16329      133821.97     -807631.23     -304.30054      0.36285324     0.057348126    29.382273      34.075749    
     99040   198.08         288.59473      133203.09     -807632.89     -302.87805      0.3628678      0.057077756    29.359246      33.724349    
     99050   198.1          291.39256      133079.83     -807633.05     -302.9824       0.36288221     0.057095152    29.275746      33.37296     
     99060   198.12         287.84138      132850.27     -807632.1      -303.37784      0.36289648     0.057167423    29.26476       33.021575    
     99070   198.14         291.57453      132393.63     -807633.94     -301.89434      0.36291061     0.056885664    29.306773      32.670187    
     99080   198.16         290.16211      132110.16     -807634.18     -301.34331      0.36292459     0.056779646    29.292007      32.318803    
     99090   198.18         291.22097      132731.63     -807631.8      -303.7898       0.36293843     0.057238435    29.310583      31.967418    
     99100   198.2          298.23458      133160.24     -807631.9      -304.57902      0.36295213     0.05738497     29.369707      31.61603     
     99110   198.22         286.04401      133839.51     -807630.95     -303.78586      0.36296568     0.057233395    29.33137       31.264648    
     99120   198.24         291.44739      134148.87     -807632.02     -303.29862      0.36297909     0.057139488    29.282769      30.913273    
     99130   198.26         296.32652      133592.21     -807631.83     -304.15066      0.36299236     0.057297912    29.31704       30.561896    
     99140   198.28         297.81081      132915.68     -807631.99     -304.13692      0.36300548     0.057293253    29.325999      30.210521    
     99150   198.3          298.85197      132223.34     -807634.83     -301.37537      0.36301846     0.056771002    29.3153        29.859148    
     99160   198.32         295.207        132022.1      -807634.97     -300.70168      0.3630313      0.056642095    29.255444      29.507784    
     99170   198.34         289.65654      132478.35     -807632.23     -302.6715       0.36304399     0.057011148    29.278913      29.156419    
     99180   198.36         293.17564      134060.7      -807631.33     -304.08188      0.36305655     0.057274828    29.312311      28.805054    
     99190   198.38         295.8175       133598.45     -807633.1      -302.7147       0.36306895     0.057015367    29.321405      28.453689    
     99200   198.4          295.39603      136293.91     -807630.56     -305.10876      0.36308122     0.057464338    29.293349      28.102329    
     99210   198.42         280.20135      133978.58     -807629        -304.6857       0.36309334     0.057382744    29.29462       27.750971    
     99220   198.44         297.94664      134956.93     -807631.06     -305.0306       0.36310532     0.057445805    29.323038      27.399612    
     99230   198.46         289.04702      131219.18     -807633.95     -300.95624      0.36311715     0.056676641    29.359445      27.048252    
     99240   198.48         299.69935      132955.33     -807633.86     -302.43754      0.36312885     0.056953769    29.34892       26.696895    
     99250   198.5          296.50144      130824.26     -807633.81     -302.20302      0.3631404      0.056907795    29.342075      26.345541    
     99260   198.52         301.24765      133683.56     -807632.89     -303.71611      0.3631518      0.057190928    29.325242      25.994191    
     99270   198.54         295.80833      132474.38     -807634.21     -301.84603      0.36316306     0.056837023    29.326203      25.642842    
     99280   198.56         294.5073       135839.83     -807630.62     -305.33042      0.36317418     0.057491366    29.307943      25.291498    
     99290   198.58         290.30856      134301.42     -807629.94     -305.7155       0.36318516     0.057562134    29.297904      24.940156    
     99300   198.6          285.95343      135317        -807629.33     -305.80733      0.36319599     0.057577706    29.307001      24.588815    
     99310   198.62         288.09391      132458.1      -807633.67     -302.03042      0.36320668     0.056864913    29.343188      24.237473    
     99320   198.64         285.86431      133212.01     -807632.68     -302.9732       0.36321723     0.057040759    29.328072      23.886135    
     99330   198.66         292.18042      131357.73     -807633.88     -302.97031      0.36322763     0.05703858     29.377781      23.534795    
     99340   198.68         281.91112      131999.19     -807633.83     -301.85301      0.36323789     0.056826628    29.343061      23.18346     
     99350   198.7          297.73504      131615.89     -807636.85     -301.31655      0.36324801     0.056724054    29.33012       22.832128    
     99360   198.72         287.24151      133233.74     -807633.46     -303.62952      0.36325798     0.057157911    29.337043      22.480797    
     99370   198.74         280.17913      134994.09     -807630.08     -306.33231      0.36326781     0.057665148    29.339796      22.129469    
     99380   198.76         284.98645      133581.74     -807632.87     -304.4623       0.3632775      0.057311601    29.35333       21.778141    
     99390   198.78         283.76841      134097.02     -807633.46     -303.88774      0.36328704     0.057201945    29.330361      21.426818    
     99400   198.8          282.18566      131429.99     -807633.9      -303.46453      0.36329644     0.057120804    29.308219      21.075498    
     99410   198.82         282.46738      133166.67     -807633        -304.52695      0.3633057      0.057319322    29.359361      20.724176    
     99420   198.84         271.86329      130699.42     -807634.55     -301.65279      0.36331481     0.056776912    29.302671      20.372861    
     99430   198.86         282.25832      132578.66     -807635.64     -301.97364      0.36332378     0.056835898    29.272909      20.021549    
     99440   198.88         281.59631      130754.88     -807635.18     -302.50338      0.36333261     0.056934219    29.25006       19.670241    
     99450   198.9          284.28264      134987.21     -807631.26     -306.73141      0.36334129     0.057728599    29.213465      19.318937    
     99460   198.92         283.85572      132557.16     -807633.72     -304.28249      0.36334983     0.057266351    29.210884      18.967636    
     99470   198.94         287.40814      135053.82     -807633.22     -305.16061      0.36335823     0.057430288    29.29109       18.616331    
     99480   198.96         275.23646      132205.86     -807633.06     -303.65853      0.36336648     0.057146302    29.308051      18.265027    
     99490   198.98         287.21317      134566.75     -807632.42     -305.80909      0.3633746      0.057549738    29.29215       17.913725    
     99500   199            278.27466      130042.8      -807635.67     -301.32658      0.36338256     0.056704938    29.318583      17.562425    
     99510   199.02         280.36356      132903.16     -807635.36     -9652.9906      0.36339039     0.056765699    29.277231      17.211129    
     99520   199.04         277.99946      130168.43     -807635.08     -9651.4633      0.36339807     0.056755518    29.295531      16.859833    
     99530   199.06         287.68082      134918.39     -807632.23     -9777.4863      0.3634056      0.057495404    29.331346      16.508538    
     99540   199.08         289.07278      132478.86     -807634.55     -9706.7102      0.363413       0.057078052    29.289694      16.157247    
     99550   199.1          286.15559      135525.25     -807632.24     -9758.0727      0.36342025     0.057378933    29.227085      15.805962    
     99560   199.12         295.163        132258.07     -807633.38     -9759.0958      0.36342736     0.057383826    29.257172      15.454676    
     99570   199.14         285.31404      135007.11     -807629.91     -9817.1357      0.36343432     0.057723997    29.305418      15.10339     
     99580   199.16         281.26987      132504.05     -807633.2      -9688.9391      0.36344114     0.056969142    29.320649      14.752106    
     99590   199.18         291.06495      132847.12     -807635        -9666.4748      0.36344782     0.056836012    29.273322      14.400826    
     99600   199.2          285.31194      131691.17     -807633.79     -9676.6426      0.36345435     0.056894773    29.270892      14.049547    
     99610   199.22         287.62522      133255.66     -807632.31     -9727.2328      0.36346074     0.057191217    29.262147      13.698271    
     99620   199.24         291.95716      132503.92     -807633.69     -9697.7696      0.36346699     0.057017008    29.251022      13.346998    
     99630   199.26         292.16889      134023.57     -807632.54     -9730.995       0.3634731      0.057211392    29.205474      12.995728    
     99640   199.28         293.67443      134327.77     -807631.11     -9782.5283      0.36347906     0.057513429    29.228254      12.64446     
     99650   199.3          290.5394       135308.27     -807630.58     -9781.9373      0.36348487     0.057509034    29.266064      12.293191    
     99660   199.32         291.77518      134404.01     -807632.13     -9734.3714      0.36349055     0.057228495    29.293834      11.941923    
     99670   199.34         292.70305      131722.55     -807634.52     -9660.681       0.36349608     0.056794405    29.226476      11.59066     
     99680   199.36         298.12857      133434.48     -807633.62     -9709.5256      0.36350147     0.057080713    29.22406       11.239399    
     99690   199.38         286.40696      132137.89     -807633.26     -9671.11        0.36350671     0.056854053    29.210622      10.88814     
     99700   199.4          298.25911      133612.26     -807634.36     -9683.9857      0.36351181     0.056928948    29.22829       10.536883    
     99710   199.42         291.35909      131790.69     -807634.07     -9663.4223      0.36351677     0.056807287    29.236454      10.185626    
     99720   199.44         294.55663      135359.61     -807630.03     -9805.2913      0.36352158     0.057640513    29.22826       9.8343724    
     99730   199.46         287.73896      133299.8      -807630.61     -9760.4641      0.36352625     0.057376259    29.221197      9.4831204    
     99740   199.48         290.30177      136162.36     -807629.58     -9799.4742      0.36353078     0.05760486     29.284626      9.1318683    
     99750   199.5          294.92225      131648.99     -807633.86     -9687.6465      0.36353516     0.05694681     29.273119      8.7806185    
     99760   199.52         290.59938      135120.3      -807630.31     -9778.2107      0.3635394      0.057478502    29.247568      8.4293713    
     99770   199.54         292.76144      130475.83     -807633.76     -9682.4798      0.3635435      0.056915133    29.217828      8.0781269    
     99780   199.56         291.76126      133265.11     -807632.97     -9699.4458      0.36354745     0.057014242    29.226166      7.726884     
     99790   199.58         283.25709      131094.14     -807633.28     -9656.4168      0.36355126     0.056760718    29.210926      7.3756433    
     99800   199.6          288.02344      134534.46     -807630.01     -9779.5544      0.36355493     0.057483946    29.219015      7.0244042    
     99810   199.62         292.94025      132687.31     -807631.52     -9756.9813      0.36355845     0.057350705    29.250454      6.6731662    
     99820   199.64         294.85738      134947.4      -807630.84     -9785.3621      0.36356183     0.057516991    29.308723      6.3219288    
     99830   199.66         292.17593      133228.05     -807631.41     -9758.6724      0.36356507     0.057359601    29.324768      5.9706932    
     99840   199.68         288.91714      134623.37     -807630.14     -9784.9348      0.36356816     0.057513477    29.263947      5.6194607    
     99850   199.7          298.02861      131770.51     -807634.04     -9702.1886      0.36357111     0.057026653    29.234329      5.2682307    
     99860   199.72         291.29217      131475.39     -807634.64     -9653.4002      0.36357392     0.056739451    29.250681      4.9170022    
     99870   199.74         289.63907      132490        -807633.76     -9676.0256      0.36357658     0.056872019    29.228546      4.5657759    
     99880   199.76         284.45625      132319.65     -807632.15     -9707.3958      0.3635791      0.057056005    29.206999      4.2145518    
     99890   199.78         293.57608      134128.99     -807632.1      -9751.4803      0.36358148     0.057314741    29.210288      3.8633294    
     99900   199.8          296.76134      133761.78     -807633.1      -9738.1667      0.36358371     0.057236139    29.310223      3.5121076    
     99910   199.82         282.74329      136304.48     -807629.36     -9794.7701      0.3635858      0.057568494    29.29893       3.1608879    
     99920   199.84         295.36265      132164.81     -807633.31     -9730.6823      0.36358775     0.057191514    29.273208      2.8096704    
     99930   199.86         294.50214      134859.89     -807632.09     -9765.9203      0.36358955     0.057398338    29.255391      2.4584551    
     99940   199.88         287.21475      131530.42     -807634.25     -9671.2919      0.36359121     0.056841909    29.263115      2.1072415    
     99950   199.9          279.66465      134819.54     -807631.92     -9713.2829      0.36359273     0.057088468    29.251147      1.7560299    
     99960   199.92         288.93608      130374.49     -807635.53     -9648.4668      0.3635941      0.056707307    29.247747      1.4048202    
     99970   199.94         285.01791      134918.63     -807631.57     -9759.8683      0.36359533     0.057361857    29.263044      1.0536123    
     99980   199.96         287.18086      131662.03     -807633.76     -9709.0404      0.36359641     0.057062955    29.328961      0.70240616   
     99990   199.98         279.8819       136279.82     -807629.72     -9808.1847      0.36359736     0.057645507    29.300926      0.35120209   
    100000   200            287.10939      131832.18     -807634.17     -9711.3949      0.36359816     0.05707652     29.290485      0            
Loop time of 3512.01 on 32 procs for 100000 steps with 1080 atoms

Performance: 4.920 ns/day, 4.878 hours/ns, 28.474 timesteps/s, 30.752 katom-step/s
67.0% CPU use with 32 MPI tasks x 1 OpenMP threads

MPI task timing breakdown:
Section |  min time  |  avg time  |  max time  |%varavg| %total
---------------------------------------------------------------
Pair    | 2430.4     | 2803       | 3081.7     | 293.5 | 79.81
Neigh   | 0.00081634 | 0.00089656 | 0.001082   |   0.0 |  0.00
Comm    | 356.93     | 635.49     | 1008.3     | 616.4 | 18.09
Output  | 2.3463     | 2.3521     | 2.3596     |   0.2 |  0.07
Modify  | 64.365     | 64.965     | 65.393     |   2.8 |  1.85
Other   |            | 6.165      |            |       |  0.18

Nlocal:          33.75 ave          42 max          26 min
Histogram: 1 1 1 8 6 7 4 2 0 2
Nghost:        1034.47 ave        1048 max        1018 min
Histogram: 1 2 2 5 3 3 7 3 2 4
Neighs:              0 ave           0 max           0 min
Histogram: 32 0 0 0 0 0 0 0 0 0
FullNghs:      5363.38 ave        6710 max        4105 min
Histogram: 1 1 2 8 5 7 3 3 0 2

Total # of neighbors = 171628
Ave neighs/atom = 158.91481
Neighbor list builds = 2
Dangerous builds = 0

Total wall time: 1:02:04
