
units		metal
atom_style	atomic

read_data ${STRUCTURE}.data
read_data BaTiO3-sc333.data
Reading data file ...
  orthogonal box = (0 0 0) to (11.898253 11.898253 12.912076)
  2 by 4 by 4 MPI processor grid
  reading atoms ...
  135 atoms
  read_data CPU = 0.005 seconds
replicate $L $L $L
replicate 2 $L $L
replicate 2 2 $L
replicate 2 2 2
Replication is creating a 2x2x2 = 8 times larger system...
  orthogonal box = (0 0 0) to (23.796507 23.796507 25.824152)
  2 by 4 by 4 MPI processor grid
  1080 atoms
  replicate CPU = 0.003 seconds

pair_style allegro
pair_coeff	* * ${MODEL}.pth Ba Ti O
pair_coeff	* * BaTiO3-E0.pth Ba Ti O
mass 1 137.3
mass 2 47.9
mass 3 15.9994

timestep 0.002
compute polarization all allegro polarization 3
compute allegro will evaluate the quantity polarization of length 3 (src/compute_allegro.cpp:53)
compute polarizability all allegro polarizability 9
compute allegro will evaluate the quantity polarizability of length 9 (src/compute_allegro.cpp:53)

thermo_style custom pe fmax fnorm spcpu cpuremain

variable efield equal 1e-2*36.36
fix born all addbornforce 0.0 0.0 ${efield}
fix born all addbornforce 0.0 0.0 0.3636

thermo 10
min_style fire
#minimize 0.0 1e-6 100 100
velocity all create ${TEMP} ${SEED} dist gaussian rot yes mom yes
velocity all create 280 ${SEED} dist gaussian rot yes mom yes
velocity all create 280 29392 dist gaussian rot yes mom yes
fix nvt all nvt temp ${TEMP} ${TEMP} $(100*dt)
fix nvt all nvt temp 280 ${TEMP} $(100*dt)
fix nvt all nvt temp 280 280 $(100*dt)
fix nvt all nvt temp 280 280 0.2000000000000000111
run 5000
Neighbor list info ...
  update: every = 1 steps, delay = 0 steps, check = yes
  max neighbors/atom: 2000, page size: 100000
  master list distance cutoff = 8
  ghost atom cutoff = 8
  binsize = 8, bins = 3 3 4
  1 neighbor lists, perpetual/occasional/extra = 1 0 0
  (1) pair allegro/kk, perpetual
      attributes: full, newton on, kokkos_device
      pair build: full/bin/kk/device
      stencil: full/bin/3d
      bin: kk/device
Per MPI rank memory allocation (min/avg/max) = 3.516 | 3.516 | 3.516 Mbytes
    PotEng          Fmax          Fnorm          S/CPU         CPULeft    
-807708.29      1.5969865      37.044094      0              0            
-807650.14      3.6258863      43.949764      2.1852718      2283.4691    
-807638.27      2.5903053      34.485234      25.919619      1235.5127    
-807611.09      3.4717845      36.035712      25.928324      885.91527    
-807606.42      4.2904391      48.967964      25.902558      710.97129    
-807571.6       3.6396474      39.395717      25.839884      605.94317    
-807604.56      2.698657       37.864669      25.921316      535.69533    
-807648.86      3.3283213      33.142799      25.927748      485.40133    
-807686.03      2.3729275      32.533709      25.901334      447.6086     
-807669.84      3.2812138      33.689916      25.875078      418.14983    
-807655.24      3.4744436      33.935623      25.930413      394.46512    
-807664.85      2.6963549      26.286029      25.918433      375.02451    
-807629.53      3.3186103      29.876569      25.92227       358.75739    
-807589.43      3.5857067      40.159064      25.897977      344.9471     
-807571.47      3.5938551      37.390546      25.949869      333.02774    
-807635.61      3.3190981      33.822356      25.97449       322.63445    
-807654.1       3.1739062      31.328585      25.922044      313.51575    
-807667.51      2.6364004      34.070077      25.893087      305.43671    
-807648.76      4.4710978      44.835841      25.92346       298.20032    
-807682.5       2.7307966      35.630829      25.904425      291.69222    
-807644.29      4.0047404      38.780344      25.906342      285.79564    
-807619.63      3.0213223      37.95061       25.941026      280.41211    
-807565.27      4.9454993      44.683419      25.941565      275.48277    
-807609.18      4.7026051      47.841969      25.910766      270.95805    
-807617.49      4.6862603      37.213728      25.912305      266.77777    
-807645.86      3.0988733      33.885316      25.9354        262.89452    
-807647.84      4.5345548      42.716819      25.920898      259.28425    
-807685.93      2.7298529      35.63207       25.881562      255.9231     
-807666.66      3.0636865      32.768161      25.856183      252.78083    
-807641.05      2.7288323      30.324468      25.937776      249.80883    
-807612.46      3.4263663      31.533924      25.954184      247.00545    
-807606.85      3.9890268      40.219498      25.914767      244.36694    
-807602.76      3.2723822      34.916048      25.835894      241.88644    
-807613.38      3.0613902      31.992883      25.91495       239.51612    
-807648.89      2.9066777      28.253031      25.925579      237.26035    
-807676.12      2.3593743      30.540382      25.916025      235.11334    
-807679.8       2.5271345      31.70033       25.852395      233.0764     
-807647.94      4.1644717      37.771353      25.920861      231.11588    
-807652.45      3.0654488      29.413942      25.926299      229.23726    
-807622.46      3.8538089      33.266199      25.919436      227.4364     
-807605.05      3.8025294      42.436124      25.911161      225.70771    
-807575.92      4.2735007      39.750602      25.903906      224.04573    
-807631.08      3.0210897      33.689889      25.964671      222.43466    
-807653.59      3.678108       34.279828      25.879258      220.89412    
-807677.51      2.9288044      33.390628      25.917406      219.40014    
-807646.27      5.1898506      44.784116      25.942247      217.95168    
-807670.44      2.7959859      33.205537      25.911286      216.55398    
-807648.28      3.865807       34.075138      25.923285      215.19762    
-807624.82      3.1493128      36.571061      25.927299      213.88113    
-807570.46      3.9464898      41.387076      25.96414       212.5976     
-807607.36      4.0412782      41.710573      25.932524      211.35423    
-807631.1       4.4524426      33.810035      25.918607      210.14632    
-807658.71      3.1920045      31.134108      25.932465      208.96825    
-807648.57      4.5109554      39.218545      25.953544      207.81745    
-807676.44      2.6176384      32.688188      25.953807      206.69496    
-807670.66      2.6416524      30.564913      25.891958      205.60673    
-807643.7       3.1338562      29.113318      25.928302      204.53928    
-807603.47      3.2021967      32.719776      25.930851      203.49545    
-807602.47      3.7651655      36.649527      25.924643      202.47502    
-807612.92      3.6542201      36.501487      25.875597      201.48158    
-807626.2       2.9833686      30.273488      25.905837      200.50506    
-807644.99      3.5069337      30.487906      25.931842      199.54511    
-807669.48      3.7631569      31.818931      25.90462       198.60656    
-807679.33      2.5064473      33.340011      25.845056      197.69171    
-807649.01      4.233111       36.105626      25.918616      196.78588    
-807637.01      2.852381       31.600139      25.924147      195.8955     
-807614.46      3.7426794      34.691914      25.91382       195.02143    
-807607.68      3.6600708      43.533567      25.858486      194.16726    
-807587.09      4.0824738      39.168071      25.899909      193.32291    
-807624.39      3.0298672      33.811911      25.96609       192.4857     
-807652.28      4.1652469      35.049208      25.95023       191.66285    
-807678.35      2.9428303      35.043408      25.900081      190.85683    
-807652.19      4.7462101      40.411798      25.917853      190.0609     
-807656.62      3.1961984      32.952174      25.952699      189.27318    
-807644.31      3.9342492      31.665989      25.958268      188.49586    
-807625.43      3.3781558      36.390781      25.87392       187.73611    
-807578.47      3.476923       37.094849      25.925806      186.98187    
-807599.55      3.2760353      37.476309      25.933193      186.2366     
-807636.23      3.3612386      29.71132       25.901402      185.50311    
-807664.7       2.6260696      30.590822      25.829828      184.78411    
-807654.1       4.1854921      35.887098      25.919492      184.06638    
-807664.35      2.645315       33.482302      25.851867      183.36207    
-807667.59      2.9988794      30.870887      25.889038      182.66267    
-807643.59      3.0802426      29.95389       25.938192      181.96714    
-807601.85      2.8281094      34.46668       25.948692      181.27821    
-807589.29      3.2246639      37.224069      25.975979      180.59445    
-807615.46      4.1360219      36.778745      25.919092      179.92171    
-807635.97      2.913659       30.51327       25.928111      179.25493    
-807647.29      4.7436523      32.566763      25.942452      178.59353    
-807659.75      3.9282842      34.576246      25.935825      177.93879    
-807677.38      3.0756741      33.61591       25.892696      177.29297    
-807653.67      5.8501339      34.205434      25.887474      176.65319    
-807629.87      2.9523911      31.773991      25.935463      176.01576    
-807605.17      3.784449       34.427377      25.951761      175.38268    
-807608.28      3.6152263      42.526102      25.913484      174.75733    
-807602.12      4.0056585      35.961605      25.896594      174.1381     
-807627.07      3.2347736      33.342712      25.962842      173.51958    
-807647.83      4.1072373      35.819347      25.988135      172.90431    
-807676.22      2.8137883      34.700541      25.90195       172.29899    
-807659.04      3.2792448      36.129096      25.9244        171.69675    
-807647.98      3.0805731      33.22403       25.955061      171.09702    
-807634.91      4.3548625      32.438762      25.967306      170.50082    
-807623.29      3.5843854      36.94173       25.947917      169.90988    
-807592.53      4.5895003      36.994469      25.894017      169.32602    
-807601.73      3.202777       36.056041      25.966411      168.74186    
-807636.42      4.7182428      31.019451      25.957796      168.16198    
-807664.91      2.9560201      31.856394      25.90417       167.58873    
-807662.64      4.3080952      33.386613      25.90827       167.01876    
-807654.94      3.4584039      34.167889      25.928834      166.45108    
-807660.05      3.5176984      30.391824      25.930524      165.88666    
-807642.23      3.431571       30.367878      25.93738       165.32512    
-807608.03      3.3486856      34.686287      25.927992      164.76724    
-807586.19      3.7035261      37.672042      25.977444      164.20989    
-807619.25      3.1513622      34.803191      25.911548      163.65895    
-807643.16      3.8737349      31.492559      25.927165      163.11012    
-807654.08      3.6351439      32.784764      25.941003      162.56343    
-807652.67      3.8430354      37.578617      25.919585      162.02058    
-807671.29      2.9745371      33.410429      25.917186      161.48053    
-807651.71      3.5168798      34.0004        25.924919      160.94272    
-807630.05      3.4188118      32.6712        25.906891      160.40833    
-807596.39      4.4870147      37.554556      25.917957      159.87588    
-807609.62      4.4423694      39.773287      25.948026      159.34446    
-807615.04      4.0284531      34.920197      25.896136      158.81783    
-807635.51      2.9749402      32.328362      25.905253      158.29307    
-807646.96      3.5472959      35.34215       25.946998      157.76865    
-807672.58      2.4505293      32.952899      25.952943      157.2462     
-807662.15      2.763505       32.935722      25.883509      156.729      
-807645.06      3.0617555      31.47022       25.943851      156.21121    
-807625.04      3.2180963      30.827522      25.944667      155.69546    
-807618.66      2.9789589      35.337691      25.924428      155.18259    
-807602.28      2.9913567      36.343039      25.814835      154.67634    
-807610.76      2.6640122      33.722543      25.913902      154.16774    
-807635.19      3.2376487      31.757288      25.931002      153.66028    
-807663.18      3.0984114      32.204153      25.943959      153.15412    
-807665.91      3.6862925      33.084945      25.85612       152.65334    
-807652.03      4.6815622      34.896715      25.896848      152.15261    
-807648.01      3.2662036      31.49382       25.888036      151.65391    
-807634.31      3.3948906      31.657361      25.956105      151.15417    
-807610.81      3.8682578      36.267337      25.88198       150.65899    
-807589.15      4.046838       37.081785      25.849291      150.16664    
-807618.63      3.155365       33.744243      25.916198      149.67322    
-807645.35      3.5371226      31.805633      25.876044      149.18286    
-807662.35      3.213111       32.386409      25.832586      148.6956     
-807651.17      4.0488981      37.287898      25.929486      148.20613    
-807662.99      2.6390434      32.476743      25.871254      147.72025    
-807650.32      3.3293573      32.169693      25.821853      147.23755    
-807631.07      3.2792542      32.362501      25.914153      146.75281    
-807591.54      3.5646208      37.58762       25.933507      146.26872    
-807605.97      3.2665861      37.282231      25.878192      145.78793    
-807622.66      3.6901233      34.011492      25.868194      145.30875    
-807645.05      2.7233631      31.989817      25.886169      144.83018    
-807647.48      3.8870221      35.453311      25.906205      144.35214    
-807665.92      3.0052542      33.331302      25.911453      143.87514    
-807661.58      3.915286       32.81677       25.915889      143.39918    
-807645.35      3.3928845      31.779456      25.902404      142.92483    
-807615.62      4.5659736      33.311065      25.954771      142.4499     
-807606.86      3.3200319      36.625801      25.935486      141.97674    
-807607.98      3.7192594      37.038267      25.938069      141.50462    
-807619.75      2.8786759      33.447506      25.909905      141.0345     
-807637.38      3.0890998      32.244714      25.922366      140.56504    
-807660.77      3.4395963      32.105413      25.926814      140.09648    
-807668.74      2.253114       32.614235      25.919721      139.62918    
-807653.01      3.1715927      32.900194      25.929091      139.16259    
-807639.12      3.1020541      31.042461      25.903045      138.6978     
-807624.92      3.0224394      31.747523      25.905405      138.23389    
-807610.25      4.0014646      37.124205      25.873783      137.77189    
-807597.1       3.3541288      35.815954      25.871436      137.31087    
-807620.53      3.0846347      32.859122      25.902014      136.84983    
-807647.48      3.8996547      31.962296      25.923545      136.38904    
-807664.43      2.7172925      32.477737      25.883441      135.93032    
-807656.11      3.7230049      34.933811      25.889834      135.47226    
-807653.66      2.7153569      32.699025      25.939139      135.01364    
-807645.19      3.6547633      31.175126      25.911483      134.55664    
-807628.72      3.1093225      32.234603      25.985201      134.0984     
-807595.67      3.4434049      35.750669      26.022814      133.63996    
-807604.51      2.991896       35.153266      26.015175      133.18257    
-807629.78      3.1300614      31.59683       25.93671       132.72816    
-807653         3.010931       30.724299      25.966856      132.27371    
-807653.44      3.4135936      33.832415      25.974042      131.81984    
-807658.14      3.2052617      33.676814      26.002148      131.366      
-807659.53      3.0225311      32.648545      25.991742      130.9132     
-807643.36      2.7018172      31.873388      25.967375      130.46179    
-807614.35      2.8991738      33.500877      25.996318      130.01036    
-807600.92      3.2502967      36.129787      26.000841      129.55954    
-807614.96      3.1358731      34.932379      25.961983      129.11043    
-807631.95      3.3546238      31.494972      25.997865      128.66111    
-807643.11      3.100167       31.622988      26.031597      128.21164    
-807657.53      3.3457596      31.9761        26.035136      127.76278    
-807666.3       2.6086748      32.322224      25.987007      127.31579    
-807653.98      3.4661662      31.562202      25.918278      126.87114    
-807633.17      2.7242657      31.098807      25.927398      126.42688    
-807616.48      3.3368029      32.885588      25.94486       125.98282    
-807611.22      3.5088101      36.830392      26.007294      125.53789    
-807610.25      3.5433728      34.801465      25.96558       125.09456    
-807626.89      2.8904735      32.083734      25.975366      124.65161    
-807647.4       4.1957953      32.195203      25.946536      124.20992    
-807663.84      3.2046919      32.271512      25.948025      123.76877    
-807656.89      3.492719       33.561771      25.897299      123.32934    
-807646.51      3.6412247      32.356203      25.902651      122.89034    
-807635.31      3.4584697      31.070689      25.904968      122.45181    
-807623.04      3.5155442      33.932903      25.962255      122.01253    
-807602.83      3.5392381      35.848451      25.948557      121.57409    
-807606.6       3.2632768      35.144648      25.970986      121.13569    
-807633.11      3.6896505      31.467989      25.969947      120.69783    
-807654.06      3.2034783      32.007748      26.008006      120.25967    
-807656.13      4.2029568      33.707545      25.923444      119.82385    
-807649.57      4.4917068      35.150812      25.923952      119.38849    
-807651.45      3.0599508      31.729049      25.926844      118.95356    
-807637.14      3.6399785      31.717303      25.931131      118.51901    
-807613.77      2.9331399      33.48734       25.923746      118.08508    
-807598.32      3.6646979      35.667378      25.964255      117.65078    
-807615.31      3.550258       34.132389      25.967868      117.21687    
-807638.1       3.1105051      31.981873      25.992003      116.78293    
-807648.45      2.7219587      32.642571      25.980499      116.34969    
-807652.4       3.8455361      34.992202      25.990165      115.91671    
-807658.71      3.0491302      33.607485      25.998279      115.48402    
-807649.9       2.9897941      34.03071       25.922837      115.05324    
-807630.2       2.7987542      32.577427      25.922652      114.62288    
-807607.95      4.2651991      35.282833      25.990661      114.19163    
-807606.33      3.5929107      36.980336      26.007494      113.76048    
-807618.29      3.5820705      34.849643      25.93445       113.33113    
-807633.26      4.2041975      31.966045      25.9189        112.90247    
-807646.41      3.3081333      32.455423      25.909063      112.47439    
-807661.39      3.0705579      32.308226      25.861912      112.04755    
-807658.97      2.8505677      32.4603        25.805143      111.62212    
-807645.7       3.1305657      31.187712      25.890702      111.19546    
-807626.92      3.0125355      31.201871      25.88743       110.76922    
-807614.74      3.0764977      34.626242      25.891615      110.34325    
-807607.58      3.5710216      35.750412      25.890934      109.91765    
-807613.97      3.2236418      34.345255      25.882093      109.49254    
-807633.55      3.2697354      32.553104      25.964923      109.06633    
-807654.43      3.2339482      32.603412      25.990162      108.64003    
-807661.03      3.0525406      33.008466      25.916975      108.21535    
-807651.68      4.2859962      33.723825      25.915627      107.79103    
-807642.51      3.2992475      31.920057      25.929402      107.3668     
-807633.22      3.2925843      31.773796      25.986746      106.94194    
-807614.21      2.8275053      34.821793      25.981021      106.51751    
-807601.09      2.8555987      35.148139      25.96669       106.09366    
-807618.38      3.112643       33.194581      25.989774      105.66975    
-807642.47      2.9048762      31.052324      25.97415       105.24642    
-807656         3.8656432      32.007467      25.96544       104.82355    
-807653.07      3.3100025      34.259909      25.968825      104.40094    
-807652.68      3.7472736      33.318497      25.980881      103.97845    
-807647.91      2.522513       31.211708      25.959995      103.5566     
-807629.05      2.7897888      32.421169      25.964624      103.13498    
-807605.33      2.8147492      34.694222      25.981405      102.71339    
-807606.97      2.9727794      35.695603      26.00131       102.2918     
-807625.19      3.4608415      32.986513      25.95681       101.87118    
-807642.71      2.7020712      31.503678      26.003379      101.45015    
-807647.33      4.3273007      34.029696      25.955168      101.03013    
-807658         3.4082885      33.553659      25.919351      100.61092    
-807655.72      3.3972377      32.714728      25.888558      100.19244    
-807644.37      4.0654854      31.311941      25.922893      99.7737      
-807618.93      4.0510063      32.474969      25.969211      99.354554    
-807610.42      3.5006872      34.146941      25.947625      98.935986    
-807612.38      3.1065115      34.940332      25.967225      98.517399    
-807625.45      3.1199147      31.403592      26.005565      98.098533    
-807636.45      2.695031       31.599686      26.01386       97.679818    
-807654.31      2.8284563      32.014108      25.959649      97.262121    
-807660.75      2.8855777      33.109697      25.938374      96.844969    
-807651.95      2.8529027      32.724528      25.965838      96.427685    
-807635.3       2.9520488      32.873183      25.988018      96.010345    
-807623.78      2.9725193      33.268635      25.962425      95.593599    
-807613.05      3.5018015      35.735313      25.927878      95.177555    
-807607.95      3.0251634      34.732096      25.978918      94.761064    
-807621.39      3.0539073      32.061146      25.9856        94.344724    
-807642.92      3.6638043      31.574236      25.950569      93.929077    
-807656.55      3.2766506      31.724775      25.91883       93.514069    
-807653.73      3.5918359      33.425867      25.918404      93.099285    
-807646.45      2.7249318      32.860237      25.933499      92.684522    
-807638.99      4.0132191      32.169283      25.973126      92.269475    
-807626.31      3.1053163      33.611188      25.983555      91.854519    
-807603.44      2.8906871      36.01735       25.930799      91.44044     
-807605.86      3.1441959      35.626744      25.981435      91.025945    
-807628.01      3.1289474      33.045297      26.002488      90.611409    
-807646.94      3.1154794      32.220169      25.932889      90.197935    
-807648.75      3.6230757      33.874147      25.939716      89.78458     
-807650.05      3.2822762      34.501559      25.95835       89.371205    
-807650.42      2.3777515      32.868813      25.924316      88.958435    
-807639.22      3.1276334      32.121717      25.935502      88.545727    
-807616.15      2.897033       33.709313      25.923095      88.133358    
-807603.44      2.9542965      36.07047       25.915682      87.721265    
-807615.52      3.0570938      35.319903      25.877903      87.309793    
-807631.47      3.5373897      33.272397      25.90475       86.898191    
-807640.41      2.8189407      33.182034      25.883968      86.487004    
-807650.61      4.4234675      34.34276       25.905282      86.075753    
-807657.72      3.0497671      33.592816      25.91752       85.664541    
-807649.01      4.0553686      33.590319      25.888861      85.253823    
-807631.5       3.1094585      31.746319      25.948756      84.842619    
-807616.1       4.0366789      34.350805      25.963326      84.431435    
-807611.63      3.241426       35.047049      25.976553      84.020289    
-807616.4       3.4183372      34.552022      25.980957      83.609276    
-807626.92      3.3487885      32.397071      26.007623      83.198161    
-807644.98      3.0825218      31.87347       25.98829       82.787429    
-807657.02      2.9362049      32.96105       25.93132       82.377467    
-807655.89      3.0049735      32.480709      25.921186      81.967774    
-807643.31      2.7875376      31.88962       25.932064      81.558131    
-807632.85      3.0095644      31.581535      25.962052      81.148345    
-807620.19      3.2850536      33.566579      25.957458      80.738771    
-807612.09      3.0521767      34.559712      25.928293      80.329651    
-807612.52      3.5168687      33.587161      25.96245       79.920348    
-807633.61      2.6029014      31.532788      26.027082      79.510574    
-807650.54      3.1914608      32.993609      25.983981      79.101387    
-807655.22      2.6987079      32.938009      25.937614      78.692808    
-807649.45      3.4954506      33.800863      25.939348      78.284364    
-807645.51      3.6590093      32.271169      25.952772      77.875942    
-807635.29      3.496074       32.061323      25.96372       77.467569    
-807616.34      3.6410933      34.021208      25.964627      77.059338    
-807605.6       3.4098835      35.207029      25.960099      76.651299    
-807619.98      3.8138988      33.085356      25.963197      76.24338     
-807640.26      3.089318       31.411588      25.964288      75.835598    
-807648.62      2.8311037      31.321978      25.890349      75.428629    
-807651.87      3.3813464      32.553559      25.91281       75.021592    
-807653.11      3.111083       31.918946      25.91512       74.614669    
-807648.71      2.6288845      31.10693       25.91968       74.20784     
-807626.56      2.813025       32.912272      25.902917      73.801291    
-807611.47      2.916143       34.512327      25.936009      73.394585    
-807612.89      2.834778       34.174654      25.999692      72.987467    
-807624.77      2.9373539      33.133294      26.020092      72.580318    
-807636.39      3.2459186      31.917913      25.961557      72.173804    
-807646.92      3.1417632      32.435804      25.994146      71.767152    
-807656.45      2.9405201      32.084027      26.002519      71.360567    
-807654.59      2.7052369      31.858406      25.979007      70.954311    
-807638.71      3.2746084      32.209167      26.026234      70.547805    
-807623.55      2.6166727      32.3859        25.993216      70.141701    
-807616.42      2.8175598      33.827425      25.981268      69.735824    
-807613.67      2.734186       34.225048      25.998838      69.329937    
-807620.66      2.4884528      32.681993      26.019141      68.924022    
-807636.24      2.6705075      31.696782      25.992748      68.518442    
-807651.15      3.4348543      32.162503      25.930931      68.113466    
-807655.09      2.7840261      33.014542      25.965674      67.708341    
-807647.18      3.3470987      32.56733       25.939473      67.303536    
-807636.38      3.8652651      31.972384      25.92751       66.898937    
-807627.91      2.8321485      32.266472      25.917867      66.494524    
-807614.98      2.9100254      33.41709       25.929396      66.090136    
-807608.71      3.1884556      34.656448      25.929115      65.685863    
-807621.42      2.6214119      32.113147      25.938817      65.28163     
-807643.35      3.3846804      31.286266      25.953962      64.877399    
-807649.52      3.0649368      32.437303      25.934867      64.473416    
-807650.7       3.0133782      32.636952      25.917439      64.069664    
-807645.89      2.898175       32.971224      25.934999      63.665895    
-807641.43      2.8808308      32.17775       25.942415      63.262182    
-807624.18      3.0838726      32.969728      25.926132      62.858687    
-807609.35      2.9643263      34.295631      25.952221      62.455118    
-807611.11      2.9564594      34.374895      25.979112      62.051474    
-807628.25      2.8938014      32.962814      25.96702       61.64802     
-807643.08      2.9505637      31.509189      25.965897      61.244679    
-807647.34      2.8852732      32.39331       25.929132      60.841683    
-807651.97      3.4505267      32.364184      25.918225      60.438859    
-807649.98      2.5832875      31.230843      25.892289      60.036298    
-807638.49      3.0153386      30.775043      25.927472      59.633607    
-807618.16      2.5292357      32.143762      25.93798       59.230946    
-807611.28      3.0626         33.542484      25.923917      58.82847     
-807617.88      2.8405522      33.881514      25.960735      58.425862    
-807630.06      2.7049378      31.738103      25.982096      58.023221    
-807639.04      3.2112784      32.41687       26.008252      57.620522    
-807650.8       4.2530262      32.490728      25.985143      57.218064    
-807655.15      2.6595448      32.378687      25.949779      56.815914    
-807646.24      2.6038187      32.179497      25.920784      56.414029    
-807632.13      4.0976503      32.17687       25.975299      56.011916    
-807620.41      2.6220864      32.978601      25.945237      55.610072    
-807615.66      3.3072905      34.136653      25.942997      55.208331    
-807617.66      2.9716591      33.344158      25.955588      54.806609    
-807627.06      2.6479597      31.479724      25.983603      54.404821    
-807644.99      4.3680534      31.013995      25.973878      54.003179    
-807653.71      2.7659017      31.380289      25.917657      53.601938    
-807651.77      2.9623251      31.701423      25.929781      53.200715    
-807640.91      3.8681303      32.381167      25.961391      52.799407    
-807635.37      2.950766       30.575563      25.944392      52.398276    
-807621.45      3.4065129      32.861155      25.922219      51.997348    
-807612.44      2.8130294      33.545381      25.951631      51.596348    
-807615.8       2.8855358      32.640048      25.98261       51.195273    
-807636.24      3.4960584      31.327051      25.998343      50.794205    
-807646.08      2.6232996      32.226826      25.989371      50.39327     
-807651.3       3.4971367      32.049899      25.947293      49.992631    
-807647.38      3.1064799      32.947262      25.917979      49.59222     
-807646.72      4.444754       31.473035      25.8634        49.192154    
-807630.47      3.7588354      32.343403      25.848088      48.792234    
-807617.51      3.958663       32.732522      25.866574      48.392294    
-807612.23      2.9473574      33.303136      25.981387      47.991879    
-807621.93      3.383668       33.525361      25.97135       47.591593    
-807637.37      2.4328986      31.208429      25.921464      47.191618    
-807645.17      3.2576619      32.207072      25.962966      46.791527    
-807650.16      3.193104       32.636801      25.990518      46.39139     
-807650.96      3.3101942      32.449464      25.965961      45.991442    
-807644.3       2.8249552      32.311889      25.967548      45.591564    
-807627.2       3.1985002      32.219093      25.946541      45.191855    
-807616.96      2.8723152      33.333335      25.969707      44.792119    
-807615.39      3.1789702      33.969739      25.984122      44.392398    
-807624.65      2.6793864      33.059285      25.946891      43.99291     
-807634.09      4.3103044      32.223252      25.930562      43.593563    
-807647.15      3.0265426      31.775686      25.988752      43.194046    
-807652.51      3.2267117      32.61315       25.919524      42.794887    
-807651.5       3.1025594      31.589367      25.907222      42.395845    
-807637.62      3.6805149      32.045159      25.919806      41.99682     
-807627.01      3.3658843      32.94853       25.929429      41.597823    
-807617.4       3.221844       33.424547      25.879591      41.199089    
-807615.66      3.0551095      35.103462      25.929386      40.800224    
-807622.06      4.1697657      33.67662       25.967635      40.40128     
-807639.03      2.5635163      31.861764      25.933678      40.002534    
-807648.14      3.0182508      32.876434      25.920125      39.603903    
-807653.11      2.9180644      33.197289      25.925043      39.205318    
-807645.25      3.0717878      33.085526      25.942318      38.806735    
-807639         3.7424392      32.259676      26.065122      38.407779    
-807626.57      3.0282568      32.442327      26.073146      38.008871    
-807616.4       3.2954909      34.333054      26.056089      37.610098    
-807614.18      3.1123844      34.066306      26.084101      37.211304    
-807625.32      2.6901326      32.59027       26.113691      36.812486    
-807641.05      2.8525287      31.491125      26.075907      36.413871    
-807648.7       2.6274446      32.144815      26.173725      36.01501     
-807648.39      4.1124158      33.247714      26.141502      35.616336    
-807645.93      2.996819       32.514261      26.063854      35.217986    
-807637.82      2.7898866      31.427721      26.116059      34.819544    
-807624.56      2.6065215      32.276657      26.146944      34.421082    
-807612.93      2.941579       33.878122      26.176305      34.022608    
-807617.58      3.1692338      32.628062      26.079038      33.624506    
-807629.25      2.3865365      32.177789      26.110453      33.22638     
-807639.57      3.3714244      31.181205      26.139469      32.828243    
-807646.48      4.6394199      32.534792      26.156842      32.43013     
-807649.11      3.0860688      32.766207      26.122696      32.032189    
-807648.08      3.1740048      31.769695      26.066823      31.634477    
-807632.18      3.2320542      32.79888       26.092778      31.23676     
-807623.1       2.8984082      32.579465      26.072458      30.839166    
-807614.59      3.0396692      34.570263      26.056301      30.441683    
-807619.44      2.8225868      34.184933      26.110652      30.04412     
-807627.29      3.1217575      33.056962      26.098146      29.646659    
-807640.87      3.1254226      31.733697      26.103914      29.24925     
-807649.42      3.3596243      31.943397      26.079775      28.851969    
-807652.42      2.6239399      32.231086      26.09788       28.454708    
-807643.97      2.7834668      31.35127       26.076348      28.057565    
-807633.25      2.7516241      32.338993      26.0618        27.66052     
-807623.28      2.6666529      32.680493      26.067794      27.263523    
-807618.34      2.5500723      33.950108      26.039973      26.866653    
-807617.61      3.2979836      33.185872      26.091429      26.469724    
-807630.11      3.0650007      32.035273      26.069963      26.072907    
-807643.43      2.7693375      31.960695      26.16738       25.675937    
-807650.94      3.95243        32.25252       26.191645      25.278983    
-807649.54      3.0359661      32.376179      26.125092      24.882239    
-807642.27      3.2182433      32.254793      26.10167       24.485607    
-807636.19      2.8114632      31.132009      26.162003      24.088913    
-807623.31      3.7235041      33.790647      26.134047      23.692342    
-807617.09      2.6233235      33.168444      26.138234      23.295825    
-807619.56      3.0216906      33.130722      26.174397      22.899302    
-807635.8       2.6249942      31.14801       26.201529      22.502793    
-807644.82      2.8199557      31.746607      26.146134      22.106454    
-807648.47      3.1500324      31.833258      26.144013      21.71018     
-807648.15      2.7809607      31.66546       26.117597      21.314015    
-807643.99      2.6754667      31.173932      26.183792      20.917795    
-807632.05      2.8953191      32.132584      26.131968      20.521726    
-807621.78      3.3252428      32.51641       26.116549      20.125743    
-807616.52      2.9397009      33.42332       26.147902      19.729767    
-807625.12      3.6573451      33.031387      26.110497      19.333911    
-807636.44      3.4588791      32.082881      26.055814      18.938196    
-807644.13      3.248627       32.285601      26.057708      18.542532    
-807647.19      3.4268802      32.960128      26.059888      18.146917    
-807648.96      3.1204858      31.924734      26.061163      17.751352    
-807640.08      2.5704804      32.138463      26.05721       17.355845    
-807627.66      3.2303148      32.382994      26.06142       16.960383    
-807620.25      3.5725061      33.072728      26.072411      16.564958    
-807620.41      2.5299104      33.743604      26.068805      16.169589    
-807625.87      2.7345305      32.625509      26.115072      15.774212    
-807636.03      2.4956504      32.293526      26.12448       15.378878    
-807645.38      2.6418621      32.109129      26.203427      14.983503    
-807649.02      3.3420989      32.558285      26.128036      14.588275    
-807645.46      2.9253825      32.253628      26.130325      14.193099    
-807637.43      3.5837759      32.018825      26.126438      13.797981    
-807626.59      2.7671031      32.060088      26.136421      13.402905    
-807621.22      2.6774972      33.077889      26.194169      13.007823    
-807617.72      3.2586954      34.005585      26.12589       12.612866    
-807626.51      2.987044       32.74055       26.100658      12.217986    
-807636.34      2.9526416      32.324847      26.225938      11.823038    
-807646.31      3.4662665      32.746562      26.19762       11.428174    
-807646.86      2.5444728      32.648415      26.197153      11.033367    
-807643.72      3.156922       31.876212      26.129418      10.638671    
-807635.07      3.0933506      32.699127      26.162772      10.243998    
-807629.49      3.3937411      31.963604      26.103231      9.8494244    
-807617.93      2.9445131      33.28515       26.053087      9.4549359    
-807619.51      2.6837838      32.102374      26.12311       9.0604425    
-807629.7       3.2091892      31.701648      26.097936      8.6660149    
-807638.61      2.9017606      32.406091      26.085932      8.2716421    
-807645.06      4.0100409      32.408332      26.066088      7.8773274    
-807647.26      3.4615245      32.146398      26.078459      7.4830499    
-807643.11      2.8510954      31.99692       26.10327       7.0888037    
-807635.65      3.0858141      31.797212      26.066121      6.6946229    
-807626.2       2.5958542      32.308882      26.133811      6.3004528    
-807617.27      2.8634732      33.284133      26.168986      5.9063143    
-807622         3.2134823      33.445056      26.165982      5.5122264    
-807630.95      3.1037417      31.822666      26.185207      5.11818      
-807638.62      3.1942512      32.339832      26.136163      4.7242011    
-807645.22      3.0119438      32.095375      26.195684      4.330249     
-807647.63      3.0443969      31.870291      26.146279      3.9363616    
-807642.04      3.5642579      32.383166      26.119905      3.5425277    
-807633.19      3.4616168      31.744135      26.121371      3.1487381    
-807622.85      3.8912649      32.744133      26.129251      2.7549914    
-807621.03      2.9737856      32.660082      26.118385      2.3612912    
-807621.45      2.9832432      33.38319       26.061655      1.9676433    
-807631.59      2.5672646      31.639415      26.071618      1.5740342    
-807639.85      3.90995        32.334385      26.091393      1.1804639    
-807647.5       2.6930351      32.021834      26.156371      0.78693103   
-807647.29      3.0875732      31.530727      26.127671      0.39344402   
-807640.05      3.0286873      32.032011      26.16422       0            
Loop time of 196.711 on 32 procs for 5000 steps with 1080 atoms

Performance: 4.392 ns/day, 5.464 hours/ns, 25.418 timesteps/s, 27.451 katom-step/s
74.6% CPU use with 32 MPI tasks x 1 OpenMP threads

MPI task timing breakdown:
Section |  min time  |  avg time  |  max time  |%varavg| %total
---------------------------------------------------------------
Pair    | 101.38     | 146.15     | 192.54     | 313.0 | 74.30
Neigh   | 0          | 0          | 0          |   0.0 |  0.00
Comm    | 1.9075     | 48.294     | 93.065     | 544.4 | 24.55
Output  | 0.026076   | 0.026969   | 0.028269   |   0.3 |  0.01
Modify  | 1.9215     | 1.9289     | 1.939      |   0.3 |  0.98
Other   |            | 0.3097     |            |       |  0.16

Nlocal:          33.75 ave          48 max          21 min
Histogram: 8 8 0 0 0 0 0 8 0 8
Nghost:        1106.25 ave        1119 max        1092 min
Histogram: 8 0 8 0 0 0 0 0 8 8
Neighs:              0 ave           0 max           0 min
Histogram: 32 0 0 0 0 0 0 0 0 0
FullNghs:       5494.5 ave        7896 max        3378 min
Histogram: 8 8 0 0 0 0 0 8 0 8

Total # of neighbors = 175824
Ave neighs/atom = 162.8
Neighbor list builds = 0
Dangerous builds = 0

reset_timestep 0


variable interval equal 1000
thermo 10

variable nintervals equal $(v_PERIOD/v_interval)
variable nintervals equal 100
variable efield equal 1e-2*36.36*cos((step/${PERIOD})*2*3.14)
variable efield equal 1e-2*36.36*cos((step/100000)*2*3.14)
fix born all addbornforce 0.0 0.0 v_efield

variable Px equal f_born[1]+c_polarization[1]
variable Py equal f_born[2]+c_polarization[2]
variable Pz equal (f_born[3]+c_polarization[3])/vol
variable pe equal pe

fix aveP all ave/time 1 $(v_interval/2) ${interval} v_efield v_Pz v_pe f_born file Pz.${MODEL}.${STRUCTURE}.${TEMP}.$L.${ITER}
fix aveP all ave/time 1 500 ${interval} v_efield v_Pz v_pe f_born file Pz.${MODEL}.${STRUCTURE}.${TEMP}.$L.${ITER}
fix aveP all ave/time 1 500 1000 v_efield v_Pz v_pe f_born file Pz.${MODEL}.${STRUCTURE}.${TEMP}.$L.${ITER}
fix aveP all ave/time 1 500 1000 v_efield v_Pz v_pe f_born file Pz.BaTiO3-E0.${STRUCTURE}.${TEMP}.$L.${ITER}
fix aveP all ave/time 1 500 1000 v_efield v_Pz v_pe f_born file Pz.BaTiO3-E0.BaTiO3-sc333.${TEMP}.$L.${ITER}
fix aveP all ave/time 1 500 1000 v_efield v_Pz v_pe f_born file Pz.BaTiO3-E0.BaTiO3-sc333.280.$L.${ITER}
fix aveP all ave/time 1 500 1000 v_efield v_Pz v_pe f_born file Pz.BaTiO3-E0.BaTiO3-sc333.280.2.${ITER}
fix aveP all ave/time 1 500 1000 v_efield v_Pz v_pe f_born file Pz.BaTiO3-E0.BaTiO3-sc333.280.2.3

thermo_style custom step time temp press pe f_born v_efield v_Pz spcpu cpuremain

# dump 4a all custom 1000 dump.hyst.${MODEL}.${STRUCTURE}.${TEMP}.$L.${ITER}.bin id type xu yu zu fx fy fz
# dump_modify 4a sort id

fix nvt all nvt temp ${TEMP} ${TEMP} $(100*dt)
fix nvt all nvt temp 280 ${TEMP} $(100*dt)
fix nvt all nvt temp 280 280 $(100*dt)
fix nvt all nvt temp 280 280 0.2000000000000000111

run $(v_PERIOD)
run 100000
WARNING: non-constant efield is experimental, strongly distrust scalar/vector output (src/fix_addbornforce.cpp:193)
Per MPI rank memory allocation (min/avg/max) = 3.516 | 3.516 | 3.516 Mbytes
   Step          Time           Temp          Press          PotEng         f_born        v_efield         v_Pz          S/CPU         CPULeft    
         0   0              271.55625      127024.43     -807640.05     -296.83229      0.3636         0.055825779    0              0            
        10   0.02           295.66966      134181.52     -807633.38     -306.9026       0.36359993     0.057719731    28.70068       3483.8974    
        20   0.04           275.10133      140488.39     -807624.25     -313.25057      0.36359971     0.05891364     28.738074      3481.2783    
        30   0.06           270.81128      144545.29     -807619.38     -317.56185      0.36359935     0.059724529    28.728513      3480.5594    
        40   0.08           278.33249      140933.55     -807622.54     -315.47924      0.36359885     0.05933293     28.71815       3480.34      
        50   0.1            283.8015       134341.97     -807632.83     -305.90186      0.36359821     0.057531792    28.754016      3479.2007    
        60   0.12           279.17037      127069.84     -807641.46     -296.56692      0.36359742     0.055776266    28.753726      3478.3309    
        70   0.14           275.63348      121587.06     -807646.96     -290.55979      0.36359649     0.054646625    28.738428      3477.8747    
        80   0.16           258.38462      123522.89     -807642.75     -292.3571       0.36359541     0.054984816    28.737756      3477.4558    
        90   0.18           286.83529      126989.25     -807641.57     -297.55184      0.36359419     0.055962       28.70797       3477.4535    
       100   0.2            283.22405      135530.45     -807631.38     -307.2397       0.36359283     0.057784258    28.6715        3477.8244    
       110   0.22           275.93933      141398.17     -807622.54     -315.10837      0.36359132     0.059264407    28.710453      3477.6349    
       120   0.24           273.33488      144121.85     -807620.05     -317.17046      0.36358968     0.059652509    28.73924       3477.1284    
       130   0.26           272.06953      139496.45     -807624.32     -312.76519      0.36358788     0.058824267    28.672196      3477.2715    
       140   0.28           284.25993      133201.24     -807633.56     -305.11891      0.36358595     0.057386475    28.658794      3477.4605    
       150   0.3            282.28207      126109.46     -807641.61     -296.76434      0.36358387     0.055815475    28.655646      3477.6034    
       160   0.32           271.49387      122869.25     -807644.91     -291.81372      0.36358165     0.054884697    28.681326      3477.4899    
       170   0.34           269.21676      124032.95     -807644.55     -291.80252      0.36357928     0.054882948    28.709486      3477.1478    
       180   0.36           285.42431      128809.13     -807639.48     -299.12377      0.36357677     0.056260335    28.685946      3476.9636    
       190   0.38           290.24072      135501.79     -807630.52     -308.70164      0.36357412     0.058062201    28.690259      3476.7345    
       200   0.4            287.29518      141112.11     -807623.41     -315.28986      0.36357132     0.059301803    28.717858      3476.3263    
       210   0.42           278.71078      142719.63     -807621.83     -315.52049      0.36356838     0.059345662    28.730985      3475.8483    
       220   0.44           282.92218      138576.95     -807626.6      -311.24764      0.3635653      0.058542486    28.695174      3475.579     
       230   0.46           288.21328      132527.52     -807633.92     -304.46674      0.36356207     0.057267577    28.700755      3475.2736    
       240   0.48           274.5192       126725.39     -807640.24     -296.0259       0.3635587      0.055680442    28.689919      3475.0191    
       250   0.5            279.59501      123015.21     -807646.51     -290.25944      0.36355519     0.054596339    28.665682      3474.8748    
       260   0.52           271.77228      125111.2      -807642.81     -292.69391      0.36355153     0.055054805    28.64343       3474.8187    
       270   0.54           283.08877      130313.85     -807635.57     -301.44479      0.36354773     0.056701411    28.668437      3474.6283    
       280   0.56           279.5075       138127.45     -807626.48     -309.8853       0.36354379     0.058289693    28.653944      3474.4896    
       290   0.58           291.2472       142014.84     -807623.8      -313.99648      0.3635397      0.059063673    28.68164       3474.2204    
       300   0.6            285.45077      142641.16     -807621.54     -315.26659      0.36353547     0.059303275    28.692079      3473.9038    
       310   0.62           295.86474      138761.48     -807626.58     -311.5663       0.3635311      0.058607935    28.688567      3473.5989    
       320   0.64           288.97789      131880.58     -807634.42     -302.63615      0.36352658     0.056928816    28.667243      3473.3719    
       330   0.66           278.90477      126730.91     -807641.51     -293.95754      0.36352192     0.055296992    28.669911      3473.1278    
       340   0.68           274.74358      123398.33     -807644.52     -290.30671      0.36351712     0.054610948    28.668335      3472.8832    
       350   0.7            281.81615      125973.11     -807640.94     -294.80747      0.36351217     0.055458363    28.660074      3472.6613    
       360   0.72           297.21121      130392.96     -807636.85     -301.1207       0.36350708     0.056646783    28.657781      3472.44      
       370   0.74           288.60819      138028.62     -807626.87     -309.82117      0.36350185     0.058284353    28.621584      3472.3306    
       380   0.76           295.16055      141349.47     -807623.23     -314.43189      0.36349647     0.05915261     28.657724      3472.0931    
       390   0.78           287.7141       143076.92     -807620.42     -316.15362      0.36349095     0.059477414    28.746599      3471.5743    
       400   0.8            299.63829      136583.09     -807629.06     -309.28047      0.36348529     0.058185287    28.71022       3471.1739    
       410   0.82           290.75873      132074.79     -807635.64     -301.46257      0.36347948     0.056715402    28.703962      3470.7944    
       420   0.84           274.61861      125265.47     -807641.4      -293.55062      0.36347353     0.055227797    28.704261      3470.4155    
       430   0.86           283.52037      124952.64     -807643.62     -292.62739      0.36346744     0.055055028    28.745371      3469.9227    
       440   0.88           282.30621      125882.12     -807641.71     -294.64253      0.3634612      0.055435107    28.7497        3469.4247    
       450   0.9            286.21886      132927.42     -807634.01     -302.98318      0.36345482     0.057005349    28.709569      3469.0408    
       460   0.92           283.69049      136923.28     -807627.8      -309.18263      0.3634483      0.058172801    28.708564      3468.6612    
       470   0.94           289.00661      142363.59     -807622.17     -315.70762      0.36344163     0.059401568    28.731057      3468.2251    
       480   0.96           281.50846      139372.9      -807624.53     -312.6758       0.36343482     0.058832222    28.725308      3467.8071    
       490   0.98           281.69434      137486.06     -807629.02     -308.38096      0.36342786     0.058025227    28.748555      3467.3349    
       500   1              278.4301       128069.75     -807637.5      -299.75512      0.36342077     0.056403283    28.757494      3466.846     
       510   1.02           285.13734      126012.02     -807643.11     -9445.7301      0.36341353     0.055543339    28.646398      3466.6258    
       520   1.04           267.72087      124102.67     -807643.96     -9349.7641      0.36340614     0.054980151    28.635399      3466.4263    
       530   1.06           282.04554      127929.77     -807641.44     -9501.8535      0.36339862     0.055875652    28.584161      3466.3387    
       540   1.08           270.98662      132483.59     -807633.5      -9713.2842      0.36339095     0.057120176    28.5661        3466.282     
       550   1.1            288.46254      137871.18     -807628.27     -9962.7907      0.36338313     0.058588689    28.548919      3466.2528    
       560   1.12           279.54368      140456.58     -807623.84     -10069.63       0.36337518     0.059218281    28.546296      3466.2178    
       570   1.14           275.47893      139790.68     -807625.6      -9998.027       0.36336707     0.058798503    28.535285      3466.1954    
       580   1.16           276.95152      135527.03     -807631.17     -9827.687       0.36335883     0.057798043    28.574766      3466.0786    
       590   1.18           277.29934      129236.49     -807638.92     -9582.7407      0.36335044     0.05635878     28.576551      3465.9503    
       600   1.2            274.7217       125521.21     -807643.57     -9421.1608      0.36334191     0.055409784    28.595166      3465.7768    
       610   1.22           265.19535      123970.76     -807644.41     -9353.2562      0.36333324     0.055011722    28.604461      3465.579     
       620   1.24           272.08191      128614.89     -807640.44     -9509.5043      0.36332442     0.055932061    28.613527      3465.3586    
       630   1.26           276.03261      132228.25     -807633.85     -9740.7679      0.36331546     0.057293698    28.564067      3465.2295    
       640   1.28           281.85338      139869.08     -807626.84     -9990.4099      0.36330636     0.058763526    28.598933      3465.0273    
       650   1.3            279.17022      140478.63     -807625.12     -10033.581      0.36329711     0.05901896     28.634377      3464.7543    
       660   1.32           277.39526      141103.75     -807625.33     -10013.636      0.36328772     0.058903161    28.629395      3464.4882    
       670   1.34           270.2057       133740.62     -807631.37     -9790.4362      0.36327819     0.057591747    28.631667      3464.2155    
       680   1.36           280.46547      130045.87     -807638.44     -9604.6968      0.36326851     0.05650065     28.64901       3463.9097    
       690   1.38           270.98212      123296.58     -807644.25     -9375.6441      0.36325869     0.055154714    28.676132      3463.5551    
       700   1.4            263.51474      126403.76     -807641.93     -9409.4684      0.36324873     0.055355213    28.678979      3463.1958    
       710   1.42           275.96263      127560.7      -807640.67     -9509.6126      0.36323863     0.05594591     28.675334      3462.843     
       720   1.44           280.17524      136069.4      -807631.18     -9826.0379      0.36322838     0.0578091      28.616016      3462.5899    
       730   1.46           285.46706      137548.4      -807627.67     -9960.5778      0.36321798     0.058602309    28.654999      3462.2696    
       740   1.48           276.13679      142920.64     -807622.76     -10068.305      0.36320745     0.059237832    28.687346      3461.8957    
       750   1.5            280.6327       137355.63     -807627.81     -9928.2729      0.36319677     0.058415658    28.662834      3461.5619    
       760   1.52           283.28209      134169.43     -807631.79     -9804.4682      0.36318595     0.057688939    28.640242      3461.2637    
       770   1.54           290.7797       126125.88     -807642.17     -9504.1428      0.36317498     0.05592353     28.644153      3460.958     
       780   1.56           267.67105      126464.93     -807642.29     -9390.485       0.36316387     0.055256443    28.65036       3460.6416    
       790   1.58           277.97015      125476.86     -807644.32     -9370.9121      0.36315262     0.055142979    28.649269      3460.326     
       800   1.6            273.73376      129685.38     -807636.64     -9594.3536      0.36314122     0.056459588    28.589526      3460.1       
       810   1.62           289.87679      134755.84     -807631.91     -9814.3407      0.36312968     0.057755975    28.609269      3459.8414    
       820   1.64           284.69911      139169.34     -807626.75     -9952.3218      0.363118       0.058569857    28.592475      3459.6055    
       830   1.66           274.77555      141695.01     -807622.29     -10044.874      0.36310618     0.059116457    28.565292      3459.4065    
       840   1.68           287.43827      137531.01     -807627.2      -9941.8429      0.36309421     0.058512023    28.591233      3459.1665    
       850   1.7            290.96383      133966.68     -807633.13     -9759.8012      0.3630821      0.057442545    28.587403      3458.9293    
       860   1.72           285.50175      126259.02     -807641.22     -9473.1123      0.36306984     0.055757083    28.56736       3458.7178    
       870   1.74           281.93499      126149        -807642.55     -9404.1948      0.36305745     0.055353337    28.586589      3458.4763    
       880   1.76           276.83934      123938.52     -807641.98     -9401.2582      0.3630449      0.055337964    28.601733      3458.2115    
       890   1.78           283.19427      131695.85     -807636.07     -9610.2046      0.36303222     0.056569847    28.574702      3457.9816    
       900   1.8            286.66767      134224.61     -807632.15     -9750.8738      0.36301939     0.057399915    28.618795      3457.6896    
       910   1.82           285.69308      142177.33     -807623.37     -10019.248      0.36300642     0.058981847    28.645412      3457.3611    
       920   1.84           283.5441       139873.35     -807623.75     -9996.1485      0.36299331     0.058847988    28.678262      3456.989     
       930   1.86           288.95224      139606.28     -807626.15     -9932.1968      0.36298005     0.058473636    28.671006      3456.6268    
       940   1.88           285.31887      131116.85     -807634.58     -9641.8161      0.36296665     0.056766178    28.620925      3456.3293    
       950   1.9            288.488        129112.04     -807638.11     -9530.8683      0.36295311     0.056115067    28.626236      3456.0239    
       960   1.92           281.01829      123846.12     -807642.42     -9355.6724      0.36293942     0.05508564     28.646673      3455.6918    
       970   1.94           284.93751      129022.38     -807639.64     -9448.2871      0.36292559     0.05563307     28.590012      3455.4301    
       980   1.96           300.18733      129865.3      -807637.74     -9572.0658      0.36291162     0.056364069    28.567071      3455.1949    
       990   1.98           298.87692      139007.06     -807627.22     -9888.7124      0.3628975      0.058230873    28.576656      3454.9456    
      1000   2              297.47429      139415.71     -807623.76     -9987.9032      0.36288325     0.058817282    28.487023      3454.8034    
      1010   2.02           299.83264      141692.68     -807623.52     -312.29469      0.36286884     0.058852164    28.672759      3454.4341    
      1020   2.04           299.64663      135852.23     -807628.5      -307.10864      0.3628543      0.05787717     28.718911      3454.0109    
      1030   2.06           300.3232       133212.06     -807632.91     -302.57562      0.36283961     0.057025191    28.717608      3453.5906    
      1040   2.08           289.5277       127288.99     -807638.14     -295.67885      0.36282478     0.055727664    28.754962      3453.1287    
      1050   2.1            291.12088      126234.7      -807641.21     -292.67095      0.3628098      0.05516303     28.698032      3452.734     
      1060   2.12           293.34257      127852.13     -807639.01     -295.23915      0.36279469     0.055649407    28.70284       3452.3347    
      1070   2.14           296.82716      132303.69     -807631.82     -302.9589       0.36277943     0.0571069      28.711741      3451.9263    
      1080   2.16           302.23338      137239.13     -807628.18     -307.36404      0.36276402     0.057939717    28.698526      3451.5338    
      1090   2.18           297.26867      139961.8      -807624.1      -310.88045      0.36274848     0.058605089    28.668899      3451.1747    
      1100   2.2            299.77775      140379.64     -807624.15     -311.35686      0.36273279     0.058697437    28.671788      3450.8127    
      1110   2.22           292.13117      137195.71     -807626.9      -307.79282      0.36271695     0.058028073    28.671255      3450.4515    
      1120   2.24           295.78807      131929.03     -807634.1      -301.29812      0.36270098     0.056806131    28.638854      3450.1253    
      1130   2.26           291.47972      126387.74     -807640.7      -294.37896      0.36268486     0.055504074    28.602117      3449.838     
      1140   2.28           288.05482      126610.65     -807640.23     -294.60725      0.3626686      0.055549608    28.648048      3449.501     
      1150   2.3            279.19409      127480.26     -807637.12     -296.85709      0.36265219     0.055976358    28.666977      3449.1439    
      1160   2.32           290.24454      133652.3      -807633.02     -302.7136       0.36263564     0.057083285    28.647946      3448.8068    
      1170   2.34           289.92001      137121.36     -807628.88     -307.12658      0.36261895     0.057918116    28.654226      3448.4629    
      1180   2.36           288.97009      141526.89     -807624.1      -311.94724      0.36260212     0.058829929    28.681837      3448.0909    
      1190   2.38           292.39611      138116.48     -807626.51     -310.28054      0.36258514     0.058518348    28.683572      3447.7175    
      1200   2.4            287.78214      136711.14     -807629.88     -306.34174      0.36256802     0.057778224    28.704198      3447.3239    
      1210   2.42           286.43091      129487.63     -807638.16     -298.05324      0.36255076     0.056217631    28.706458      3446.9288    
      1220   2.44           284.90572      127701        -807639.97     -296.04393      0.36253335     0.055841324    28.69723       3446.5435    
      1230   2.46           281.82461      125630.56     -807640.9      -294.89779      0.3625158      0.055627826    28.727724      3446.1291    
      1240   2.48           274.56875      130446.25     -807636.87     -297.98046      0.36249811     0.056212066    28.708794      3445.7341    
      1250   2.5            290.74669      132946.83     -807635.75     -301.51514      0.36248028     0.05688166     28.733082      3445.3166    
      1260   2.52           284.8467       138418.6      -807627.36     -309.16166      0.3624623      0.05832709     28.771039      3444.8641    
      1270   2.54           286.24798      139536.28     -807625.13     -311.74264      0.36244418     0.058816962    28.737095      3444.4453    
      1280   2.56           286.00357      137956.98     -807628.12     -308.75397      0.36242592     0.058256022    28.705862      3444.0567    
      1290   2.58           285.97078      133777.83     -807633.46     -303.52152      0.36240751     0.057271666    28.722966      3443.6529    
      1300   2.6            281.62535      130045.83     -807637.12     -299.36107      0.36238896     0.056489519    28.709423      3443.2625    
      1310   2.62           269.14466      127308.9      -807638.59     -296.25684      0.36237027     0.055906634    28.696083      3442.8848    
      1320   2.64           280.70996      126744.39     -807641.48     -295.05793      0.36235143     0.055683283    28.691758      3442.5116    
      1330   2.66           275.89664      129377.36     -807637.4      -298.53586      0.36233245     0.056342587    28.710286      3442.122     
      1340   2.68           280.64829      134028.49     -807632.29     -304.45892      0.36231333     0.057463478    28.740908      3441.7057    
      1350   2.7            282.24946      138337.3      -807627.47     -309.62009      0.36229407     0.058440703    28.797264      3441.2407    
      1360   2.72           288.63842      138428.13     -807628.34     -309.72757      0.36227466     0.058464121    28.730386      3440.836     
      1370   2.74           279.32247      137742.77     -807629.31     -307.49495      0.36225511     0.058045825    28.699748      3440.4589    
      1380   2.76           287.73212      132761.47     -807634.89     -303.25606      0.36223542     0.057248761    28.71606       3440.0681    
      1390   2.78           266.33573      130446.14     -807634.93     -300.28956      0.36221558     0.056691849    28.674771      3439.7135    
      1400   2.8            270.65662      126730.04     -807641.42     -294.50665      0.3621956      0.055603157    28.658092      3439.3733    
      1410   2.82           267.49335      127684.84     -807640.66     -294.86182      0.36217548     0.055673306    28.617498      3439.0675    
      1420   2.84           274.39262      129543.41     -807636.96     -299.66413      0.36215522     0.056583204    28.618378      3438.7604    
      1430   2.86           277.82624      134611.56     -807630.79     -306.29341      0.36213481     0.057838217    28.648793      3438.4271    
      1440   2.88           290.32246      136825.17     -807630.4      -308.49135      0.36211426     0.058256565    28.688155      3438.0608    
      1450   2.9            281.31666      138759.89     -807628.39     -309.24468      0.36209357     0.058402165    28.717004      3437.6709    
      1460   2.92           282.27818      136711.68     -807630.39     -307.4457       0.36207273     0.05806576     28.724053      3437.2759    
      1470   2.94           276.31726      133359.26     -807633.41     -303.58593      0.36205176     0.057340106    28.698069      3436.9026    
      1480   2.96           274.8862       128924.71     -807639.76     -297.05844      0.36203064     0.056110495    28.715648      3436.5155    
      1490   2.98           269.56671      126683.52     -807641.76     -294.29802      0.36200937     0.055592351    28.674883      3436.1616    
      1500   3              270.79797      127706.34     -807640.18     -296.06139      0.36198796     0.055928756    28.739373      3435.7564    
      1510   3.02           274.72394      130601.75     -807635.84     -9631.7952      0.36196642     0.056863882    28.68485       3435.3951    
      1520   3.04           279.60347      135005.87     -807632.73     -9752.2773      0.36194472     0.057578631    28.672511      3435.0437    
      1530   3.06           276.89045      137527.31     -807629.24     -9851.0842      0.36192289     0.058165507    28.648037      3434.7114    
      1540   3.08           277.62054      138695.4      -807627.4      -9910.3462      0.36190091     0.058518972    28.649528      3434.3778    
      1550   3.1            279.35149      135727.04     -807630.34     -9821.6225      0.36187879     0.057998618    28.647557      3434.0456    
      1560   3.12           273.05279      132110.15     -807634.36     -9658.2762      0.36185653     0.057037535    28.636639      3433.7215    
      1570   3.14           286.57641      127461.28     -807642.25     -9461.8181      0.36183412     0.0558808      28.629187      3433.4028    
      1580   3.16           281.96489      127445.56     -807641.49     -9460.8824      0.36181157     0.055878756    28.670383      3433.0524    
      1590   3.18           273.59364      128012.46     -807639.18     -9493.0578      0.36178888     0.05607231     28.630332      3432.7323    
      1600   3.2            273.31967      133097.54     -807635.06     -9616.1152      0.36176605     0.056802754    28.638196      3432.4059    
      1610   3.22           281.7088       134024.38     -807632.64     -9726.4211      0.36174307     0.057457984    28.640419      3432.0776    
      1620   3.24           285.03968      138843.02     -807627.12     -9907.2125      0.36171995     0.058529734    28.638738      3431.7502    
      1630   3.26           277.647        136908.8      -807627.08     -9870.2194      0.36169669     0.058314937    28.6541        3431.4113    
      1640   3.28           283.16854      137129.77     -807629.81     -9793.2508      0.36167329     0.057863937    28.684998      3431.0497    
      1650   3.3            292.26215      130687.46     -807637.91     -9567.5817      0.36164974     0.05653424     28.642254      3430.7193    
      1660   3.32           285.68314      129504.37     -807638.07     -9522.2648      0.36162605     0.056270152    28.673702      3430.366     
      1670   3.34           280.62868      126597.74     -807640.25     -9423.7435      0.36160222     0.055691628    28.649915      3430.0297    
      1680   3.36           278.36912      129399.24     -807637.55     -9490.0126      0.36157824     0.056086977    28.608707      3429.7228    
      1690   3.38           286.66219      130015.26     -807636.2      -9567.5196      0.36155413     0.056548824    28.608026      3429.4158    
      1700   3.4            290.09708      137432.9      -807628.39     -9824.2273      0.36152987     0.058069991    28.618411      3429.101     
      1710   3.42           288.46384      137890.7      -807626.13     -9887.2714      0.36150546     0.058446584    28.55446       3428.8308    
      1720   3.44           293.20333      138918.63     -807627.5      -9858.5753      0.36148092     0.05828091     28.5813        3428.5408    
      1730   3.46           293.1747       133649.56     -807632.1      -9709.1272      0.36145623     0.057401338    28.588298      3428.2453    
      1740   3.48           293.20128      132091.96     -807634.32     -9634.997       0.3614314      0.056966986    28.544262      3427.9796    
      1750   3.5            285.66927      127194.74     -807638.59     -9465.6221      0.36140643     0.055969423    28.578395      3427.6895    
      1760   3.52           283.5619       127667.82     -807639.7      -9416.1935      0.36138131     0.055681025    28.571461      3427.4035    
      1770   3.54           291.87912      128160.87     -807639.88     -9449.7466      0.36135605     0.055883341    28.617718      3427.0853    
      1780   3.56           288.02896      134023.06     -807631.8      -9691.2337      0.36133065     0.057315463    28.614075      3426.7692    
      1790   3.58           290.13865      136363.3      -807628.42     -9812.7643      0.36130511     0.058038316    28.64855       3426.4297    
      1800   3.6            293.46641      138717.38     -807627.92     -9844.6227      0.36127942     0.058230885    28.622821      3426.1072    
      1810   3.62           275.91983      137260.68     -807626.56     -9811.5318      0.3612536      0.058039301    28.623115      3425.7842    
      1820   3.64           286.1463       134503.43     -807629.99     -9750.9499      0.36122763     0.057685081    28.643455      3425.4475    
      1830   3.66           286.10575      130356.24     -807635.14     -9590.3651      0.36120151     0.056739188    28.643272      3425.1108    
      1840   3.68           289.60945      127314.86     -807641.34     -9407.9389      0.36117526     0.055663952    28.668151      3424.7578    
      1850   3.7            284.64772      127112.18     -807640.79     -9407.6643      0.36114886     0.055666395    28.637361      3424.4248    
      1860   3.72           292.49424      129220.75     -807637.86     -9541.9445      0.36112232     0.056465099    28.660471      3424.0767    
      1870   3.74           292.75076      133213.63     -807633.66     -9681.7187      0.36109564     0.057296456    28.687667      3423.7113    
      1880   3.76           281.89183      136401.05     -807629.71     -9765.1742      0.36106881     0.057794639    28.70402       3423.3356    
      1890   3.78           290.6948       137623.54     -807628.78     -9839.0453      0.36104184     0.058236191    28.694205      3422.9665    
      1900   3.8            278.82702      136976.52     -807627.58     -9829.83        0.36101474     0.058186016    28.694989      3422.597     
      1910   3.82           278.7632       134042.81     -807631.87     -9695.8907      0.36098748     0.057397517    28.623189      3422.2727    
      1920   3.84           281.11977      129782.78     -807637.81     -9517.8781      0.36096009     0.056347999    28.659647      3421.9255    
      1930   3.86           285.84592      127279.58     -807641.76     -9414.7423      0.36093255     0.055741663    28.641421      3421.5894    
      1940   3.88           275.94999      127805.52     -807638.54     -9475.3135      0.36090487     0.056104589    28.647312      3421.2497    
      1950   3.9            282.91948      129471.46     -807637.54     -9541.8397      0.36087705     0.056502855    28.617475      3420.9281    
      1960   3.92           293.50361      133651.09     -807635.11     -9666.7319      0.36084909     0.057246851    28.620622      3420.6043    
      1970   3.94           280.12857      136015.89     -807630.11     -9771.5945      0.36082098     0.05787236     28.644874      3420.2655    
      1980   3.96           272.74426      139127.99     -807625.91     -9872.8807      0.36079273     0.058476807    28.650006      3419.9236    
      1990   3.98           285.3651       134799.16     -807630.53     -9783.7738      0.36076434     0.057953589    28.635041      3419.5905    
      2000   4              283.87692      133057.33     -807635.16     -9626.6107      0.36073581     0.057027154    28.56964       3419.2965    
      2010   4.02           274.20586      129103.66     -807638.78     -295.86866      0.36070713     0.056090815    28.638713      3418.9608    
      2020   4.04           281.52259      127505.99     -807640.78     -294.84138      0.36067831     0.05590053     28.660475      3418.612     
      2030   4.06           281.65853      127714.52     -807640.27     -295.37052      0.36064935     0.05600535     28.69301       3418.2442    
      2040   4.08           280.19569      130732.8      -807638.01     -297.38518      0.36062025     0.0563919      28.67197       3417.8888    
      2050   4.1            280.05008      133905.63     -807633.45     -301.9077       0.36059101     0.057254128    28.673063      3417.5329    
      2060   4.12           276.00419      136535.97     -807627.83     -306.95923      0.36056162     0.058216852    28.654617      3417.1877    
      2070   4.14           286.07688      137025.98     -807628.87     -307.2741       0.36053209     0.058281343    28.702843      3416.8147    
      2080   4.16           274.62436      136036.09     -807630.68     -303.85191      0.36050242     0.057636991    28.726497      3416.4285    
      2090   4.18           271.47436      133473.35     -807632.96     -301.01703      0.36047261     0.057103971    28.684746      3416.0663    
      2100   4.2            287.95707      128864.87     -807638.85     -297.42117      0.36044265     0.056426513    28.685886      3415.7037    
      2110   4.22           275.46421      128011.03     -807640.28     -294.17399      0.36041256     0.055815121    28.724915      3415.3192    
      2120   4.24           279.19003      126967.16     -807641.4      -293.48502      0.36038232     0.055689073    28.748818      3414.9216    
      2130   4.26           287.67773      130318.43     -807637.53     -298.5318       0.36035193     0.05665148     28.760338      3414.5182    
      2140   4.28           277.06031      134101.32     -807631.69     -302.91019      0.36032141     0.057487223    28.713738      3414.1411    
      2150   4.3            276.54649      137687.33     -807627.75     -306.66056      0.36029075     0.058203933    28.747902      3413.7454    
      2160   4.32           283.70934      136107.48     -807630.13     -305.26083      0.36025994     0.05794322     28.784239      3413.3302    
      2170   4.34           281.78926      135439.62     -807630.47     -304.55421      0.36022899     0.057814059    28.795377      3412.9096    
      2180   4.36           281.65675      131582.24     -807634.48     -300.50959      0.36019789     0.057051187    28.776297      3412.5001    
      2190   4.38           275.80946      129812.51     -807637.87     -296.15642      0.36016666     0.056229622    28.761931      3412.0988    
      2200   4.4            274.55918      126718.78     -807641.37     -292.43444      0.36013528     0.055527786    28.750538      3411.7042    
      2210   4.42           281.26944      129184.6      -807639.39     -295.21431      0.36010377     0.056060538    28.72918       3411.3214    
      2220   4.44           279.80577      130810.12     -807635.3      -299.09267      0.36007211     0.056802024    28.740404      3410.9329    
      2230   4.46           284.00611      134729.14     -807631.39     -303.4177       0.3600403      0.057628499    28.717771      3410.5569    
      2240   4.48           292.60959      136050.72     -807631.39     -304.58807      0.36000836     0.057855923    28.753711      3410.1621    
      2250   4.5            285.05601      138304.91     -807627.66     -307.17119      0.35997627     0.058351781    28.759052      3409.7649    
      2260   4.52           275.07277      135396.77     -807629.42     -303.94539      0.35994404     0.057744162    28.724542      3409.3862    
      2270   4.54           283.24385      132069.77     -807635.63     -298.66298      0.35991167     0.056745703    28.688435      3409.0266    
      2280   4.56           282.4562       128400.76     -807639.85     -294.28206      0.35987916     0.055918383    28.65145       3408.6864    
      2290   4.58           271.83687      128327.14     -807638.65     -293.85773      0.35984651     0.055842821    28.672791      3408.3351    
      2300   4.6            279.21027      128392.06     -807637.99     -295.39855      0.35981371     0.056140745    28.73756       3407.9504    
      2310   4.62           279.91649      131741.39     -807634.69     -298.60463      0.35978077     0.056755258    28.757307      3407.5559    
      2320   4.64           286.66742      134628.98     -807631.84     -302.27278      0.35974769     0.05745774     28.7009        3407.1906    
      2330   4.66           288.99369      136732.14     -807628.34     -305.84934      0.35971447     0.058142962    28.679944      3406.836     
      2340   4.68           285.17766      138101.05     -807627.17     -306.26887      0.35968111     0.058228118    28.765315      3406.4384    
      2350   4.7            288.49357      135003.04     -807631.71     -301.95544      0.3596476      0.057413392    28.745812      3406.051     
      2360   4.72           281.01949      131374.96     -807634.71     -297.68184      0.35961396     0.056606112    28.714998      3405.6794    
      2370   4.74           297.86426      126860.46     -807640.7      -293.86017      0.35958017     0.055884647    28.726511      3405.3022    
      2380   4.76           283.92409      128118.05     -807638.22     -294.13049      0.35954624     0.055941333    28.76419       3404.9065    
      2390   4.78           280.93708      128293.52     -807637.64     -294.21962      0.35951216     0.05596359     28.721724      3404.5323    
      2400   4.8            281.02616      133319.86     -807632.63     -298.98119      0.35947795     0.056874702    28.708405      3404.1648    
      2410   4.82           290.20056      134522.05     -807630.21     -302.58978      0.35944359     0.057566658    28.698701      3403.8023    
      2420   4.84           294.31771      138589.81     -807626.39     -306.80893      0.35940909     0.05837494     28.736836      3403.4212    
      2430   4.86           284.96065      137219.62     -807627.81     -303.98225      0.35937446     0.057842698    28.757993      3403.0301    
      2440   4.88           290.75919      135163.31     -807631.34     -301.12349      0.35933967     0.057304269    28.759744      3402.6386    
      2450   4.9            298.05649      129871.63     -807636.75     -296.68324      0.35930475     0.056464771    28.755686      3402.2493    
      2460   4.92           290.10698      129066.62     -807638.12     -294.16309      0.35926969     0.0559906      28.754804      3401.8608    
      2470   4.94           286.39884      127960.52     -807639.12     -292.61469      0.35923448     0.055701338    28.75688       3401.4717    
      2480   4.96           291.81972      129070.67     -807638.1      -294.41647      0.35919913     0.056049836    28.747932      3401.0871    
      2490   4.98           287.29143      132882.25     -807632.62     -299.30674      0.35916364     0.056986456    28.705089      3400.7232    
      2500   5              302.14871      135365.7      -807630.75     -303.36476      0.35912801     0.057764813    28.723083      3400.3508    
[...]
     98740   197.48         282.93647      131565.25     -807632.95     -9699.797       0.36236891     0.057201741    30.300284      44.384572    
     98750   197.5          286.76927      133874.26     -807631.88     -9745.5014      0.36238762     0.057468304    30.295394      44.032033    
     98760   197.52         273.77146      132123.02     -807633.04     -9648.858       0.36240618     0.056895493    30.253695      43.679504    
     98770   197.54         287.0184       133324.91     -807633.53     -9686.0117      0.36242459     0.057111671    30.207468      43.326986    
     98780   197.56         285.4181       131658.76     -807633.29     -9688.1011      0.36244287     0.057121111    30.243844      42.974467    
     98790   197.58         280.5725       133503.26     -807632.03     -9701.3025      0.362461       0.057196085    30.275955      42.621948    
     98800   197.6          288.54886      131155.94     -807635.65     -9618.1562      0.36247899     0.056703065    30.274602      42.269434    
     98810   197.62         287.55102      132652.56     -807633.7      -9674.7715      0.36249683     0.057034028    30.237023      41.91693     
     98820   197.64         287.34215      133283.38     -807632.17     -9723.1181      0.36251453     0.057316238    30.214806      41.564433    
     98830   197.66         289.77274      133635.96     -807632.42     -9724.443       0.36253209     0.057321271    30.207181      41.211941    
     98840   197.68         276.19572      133695.54     -807631.96     -9678.6029      0.36254951     0.057048324    30.201559      40.859454    
     98850   197.7          281.34407      133671.47     -807632.13     -9697.7227      0.36256678     0.057158298    30.160695      40.506977    
     98860   197.72         286.76414      132414.46     -807632.15     -9724.5553      0.36258391     0.057313741    30.212746      40.154497    
     98870   197.74         290.54103      132523.04     -807633.92     -9685.4152      0.3626009      0.057080386    30.223733      39.802021    
     98880   197.76         286.10058      131419.46     -807634.99     -9632.8078      0.36261774     0.056767711    30.180636      39.449554    
     98890   197.78         291.16546      131895.01     -807634.54     -9674.108       0.36263445     0.057008474    30.218388      39.097086    
     98900   197.8          283.07623      133650.08     -807631.53     -9744.9005      0.362651       0.057423024    30.242798      38.744621    
     98910   197.82         284.90464      134268.37     -807632.69     -9722.4942      0.36266742     0.0572884      30.243266      38.392159    
     98920   197.84         285.2481       133236.26     -807635.19     -9650.3353      0.36268369     0.056860662    30.224912      38.039704    
     98930   197.86         274.23431      133482.73     -807632.97     -9682.4954      0.36269982     0.057047616    30.228929      37.687253    
     98940   197.88         282.04         132593.42     -807632.38     -9747.5733      0.36271581     0.057428513    30.234192      37.334806    
     98950   197.9          286.59156      131265.86     -807635.65     -9672.9321      0.36273165     0.056986269    30.228789      36.982363    
     98960   197.92         283.24411      131903.83     -807636.74     -9633.3459      0.36274735     0.056750598    30.177604      36.629931    
     98970   197.94         271.80171      132385.64     -807633.94     -9684.4265      0.36276291     0.057049071    30.214562      36.277499    
     98980   197.96         277.83242      133129.37     -807632.7      -9761.4414      0.36277832     0.057500307    30.24529       35.925068    
     98990   197.98         272.31895      133190.43     -807633.62     -9714.5773      0.36279359     0.057221843    30.243739      35.572642    
     99000   198            277.18702      133622.28     -807635.69     -9676.9554      0.36280872     0.056997862    30.205983      35.220224    
     99010   198.02         269.85153      132888.47     -807634.05     -303.19797      0.3628237      0.057144989    30.298465      34.8678      
     99020   198.04         275.93         132265.05     -807633.49     -304.74974      0.36283855     0.057435109    30.303104      34.51538     
     99030   198.06         273.03327      131510.76     -807635.68     -302.29154      0.36285324     0.056969511    30.298797      34.162966    
     99040   198.08         282.20448      131957.45     -807637.46     -301.80444      0.3628678      0.056875432    30.296388      33.810556    
     99050   198.1          264.94007      132601.91     -807633.82     -303.1437       0.36288221     0.057125549    30.290814      33.458151    
     99060   198.12         263.86357      133123.67     -807631.78     -305.03309      0.36289648     0.057479332    30.311441      33.105748    
     99070   198.14         276.5987       132659.78     -807634.98     -303.59445      0.36291061     0.057206014    30.354657      32.753346    
     99080   198.16         278.0313       132522.38     -807636.15     -302.56407      0.36292459     0.057009663    30.358637      32.400948    
     99090   198.18         274.72862      132994.86     -807633.94     -304.30579      0.36293843     0.057335655    30.358743      32.048554    
     99100   198.2          278.48692      131968.95     -807634.25     -304.52731      0.36295213     0.057375227    30.294996      31.696172    
     99110   198.22         272.89352      132709.81     -807634.98     -302.9029       0.36296568     0.057067044    30.234654      31.3438      
     99120   198.24         273.98709      131601.61     -807635.92     -302.07074      0.36297909     0.056908163    30.251623      30.99143     
     99130   198.26         269.63399      132460.06     -807632.93     -304.41609      0.36299236     0.057347916    30.285792      30.639062    
     99140   198.28         276.00281      132341.35     -807633.62     -304.4994       0.36300548     0.057361536    30.356985      30.286691    
     99150   198.3          266.01045      133415.48     -807633.76     -302.80789      0.36301846     0.057040851    30.313563      29.934329    
     99160   198.32         284.52201      132422.75     -807636.98     -302.06946      0.3630313      0.056899738    30.262525      29.581977    
     99170   198.34         283.38787      133306.85     -807633.9      -304.79234      0.36304399     0.057410629    30.27617       29.229627    
     99180   198.36         278.61494      131954.14     -807633.73     -304.17735      0.36305655     0.05729281     30.236266      28.877286    
     99190   198.38         282.27856      133109.24     -807635.5      -302.67004      0.36306895     0.057006955    30.227237      28.52495     
     99200   198.4          276.11333      131756.05     -807635.47     -301.78667      0.36308122     0.056838655    30.228748      28.172618    
     99210   198.42         275.56995      133999.47     -807632.18     -304.79314      0.36309334     0.057402977    30.253817      27.820288    
     99220   198.44         284.33785      131756.53     -807634.97     -303.13054      0.36310532     0.05708797     30.312085      27.467957    
     99230   198.46         276.33812      133943        -807633.56     -303.14871      0.36311715     0.057089532    30.340545      27.115629    
     99240   198.48         287.57984      131208.44     -807636.81     -301.39132      0.36312885     0.056756748    30.346522      26.763305    
     99250   198.5          290.80414      133612.95     -807633.59     -304.84734      0.3631404      0.057405745    30.362336      26.410984    
     99260   198.52         278.66268      132043.79     -807633.13     -303.53796      0.3631518      0.057157382    30.324863      26.05867     
     99270   198.54         277.98911      134201.75     -807632.86     -303.51546      0.36316306     0.057151372    30.308512      25.706363    
     99280   198.56         278.9401       131580        -807634.57     -301.94476      0.36317418     0.056853872    30.309153      25.35406     
     99290   198.58         285.97359      134011.68     -807632.02     -305.321        0.36318516     0.057487855    30.313715      25.001761    
     99300   198.6          280.39982      132514.98     -807632.74     -303.86812      0.36319599     0.057212591    30.324807      24.649466    
     99310   198.62         290.16163      133454.36     -807634.7      -303.08973      0.36320668     0.057064355    30.344287      24.297174    
     99320   198.64         288.44916      131300.42     -807635.54     -302.00006      0.36321723     0.056857546    30.387585      23.944883    
     99330   198.66         294.27776      133204.09     -807634.08     -304.27699      0.36322763     0.057284582    30.324931      23.592601    
     99340   198.68         282.20556      132818.06     -807632.75     -303.89878      0.36323789     0.057211762    30.285947      23.240327    
     99350   198.7          287.00007      131290.52     -807634.64     -302.65377      0.36324801     0.056975791    30.271331      22.888058    
     99360   198.72         284.75229      133463.53     -807634.29     -302.71024      0.36325798     0.056984857    30.291845      22.535793    
     99370   198.74         279.03562      133013.09     -807631.32     -304.99743      0.36326781     0.057413864    30.300145      22.183531    
     99380   198.76         288.1063       133893.75     -807631.62     -305.93105      0.3632775      0.057588077    30.334727      21.831271    
     99390   198.78         285.33235      132120.44     -807635.54     -301.702        0.36328704     0.056790513    30.360272      21.479014    
     99400   198.8          281.70395      133535.87     -807633.4      -303.31018      0.36329644     0.057091751    30.352999      21.126763    
     99410   198.82         281.50645      131795.17     -807634.14     -302.72951      0.3633057      0.056981       30.377813      20.774514    
     99420   198.84         285.59053      134006.66     -807632.89     -304.45741      0.36331481     0.057304794    30.289593      20.422275    
     99430   198.86         287.89709      131090.3      -807636.17     -301.62953      0.36332378     0.056771131    30.27553       20.070042    
     99440   198.88         285.62537      134229.02     -807633.54     -303.95209      0.36333261     0.057206881    30.298744      19.717812    
     99450   198.9          283.27637      132680.23     -807632.97     -304.34449      0.36334129     0.057279367    30.276649      19.365587    
     99460   198.92         294.22667      134300.8      -807632.92     -305.91605      0.36334983     0.05757379     30.314489      19.013365    
     99470   198.94         276.01209      131175.83     -807633.86     -302.53673      0.36335823     0.056936481    30.317824      18.661147    
     99480   198.96         275.65327      134711.72     -807632.74     -303.60506      0.36336648     0.05713624     30.292052      18.308935    
     99490   198.98         282.27353      131223.01     -807634.42     -303.03565      0.3633746      0.057027808    30.315752      17.956726    
     99500   199            283.02567      134373.13     -807632.89     -304.5952       0.36338256     0.05732004     30.346878      17.60452     
     99510   199.02         289.42683      130497.88     -807637.6      -9630.3395      0.36339039     0.056632496    30.227456      17.252325    
     99520   199.04         286.34235      134477.63     -807633.63     -9741.7664      0.36339807     0.057286546    30.224982      16.900134    
     99530   199.06         273.99876      133447.27     -807631.55     -9759.7373      0.3634056      0.057391033    30.224003      16.547948    
     99540   199.08         281.80765      135645.84     -807631.3      -9801.872       0.363413       0.057637629    30.215516      16.195766    
     99550   199.1          278.7598       131706.62     -807634.28     -9695.2658      0.36342025     0.057009619    30.24273       15.843588    
     99560   199.12         285.36228      134084.68     -807634.12     -9727.5885      0.36342736     0.057198562    30.283848      15.491411    
     99570   199.14         279.48238      132086.99     -807633.7      -9718.8428      0.36343432     0.057146043    30.284075      15.139239    
     99580   199.16         284.10502      131903.78     -807634.72     -9704.5655      0.36344114     0.057061022    30.291185      14.787071    
     99590   199.18         287.82863      130664.25     -807637.01     -9648.6036      0.36344782     0.056730934    30.253003      14.43491     
     99600   199.2          281.18279      132827.52     -807634.39     -9705.6215      0.36345435     0.057065157    30.246486      14.082753    
     99610   199.22         281.22635      134162.25     -807632.35     -9773.3569      0.36346074     0.057462403    30.235024      13.7306      
     99620   199.24         274.83685      133813.09     -807631.3      -9779.3396      0.36346699     0.057496591    30.261519      13.378451    
     99630   199.26         283.73792      133486        -807634.63     -9712.196       0.3634731      0.057100868    30.276972      13.026306    
     99640   199.28         286.02549      132527.24     -807635        -9711.7143      0.36347906     0.057097099    30.27215       12.674165    
     99650   199.3          281.7679       133197.29     -807632.11     -9784.9832      0.36348487     0.057526941    30.285881      12.322028    
     99660   199.32         290.13571      130627.33     -807636.01     -9699.9323      0.36349055     0.057026028    30.306967      11.969895    
     99670   199.34         280.22413      132325.51     -807635.37     -9674.912       0.36349608     0.056878067    30.272332      11.617767    
     99680   199.36         273.8514       131127.34     -807634.87     -9667.0785      0.36350147     0.056831173    30.265248      11.265644    
     99690   199.38         272.68481      135008.56     -807631.08     -9781.6321      0.36350671     0.057503785    30.252099      10.913526    
     99700   199.4          283.14294      131731.14     -807635        -9707.2586      0.36351181     0.057065761    30.259282      10.561412    
     99710   199.42         273.60312      134392        -807632.9      -9728.1969      0.36351677     0.057188071    30.294969      10.209301    
     99720   199.44         286.54151      130846.96     -807635.07     -9719.7035      0.36352158     0.057137385    30.267448      9.857195     
     99730   199.46         279.78792      134247.34     -807631.36     -9807.5616      0.36352625     0.057653119    30.2945        9.5050929    
     99740   199.48         271.40665      131701.14     -807633.99     -9689.8607      0.36353078     0.056960512    30.263449      9.1529961    
     99750   199.5          287.56413      133589.8      -807635.77     -9702.3357      0.36353516     0.057033157    30.243492      8.8009042    
     99760   199.52         270.83073      130653.82     -807634.22     -9681.3428      0.3635394      0.056909091    30.234753      8.4488168    
     99770   199.54         281.9192       133947.8      -807632.7      -9775.4282      0.3635435      0.057461498    30.248502      8.0967334    
     99780   199.56         278.96386      131088.78     -807635.09     -9689.8114      0.36354745     0.05695761     30.209802      7.7446551    
     99790   199.58         281.55822      133409.12     -807634.82     -9707.4776      0.36355126     0.057060855    30.233241      7.3925806    
     99800   199.6          282.45801      132116.13     -807634.51     -9723.7863      0.36355493     0.057156142    30.243474      7.0405101    
     99810   199.62         279.27797      134277.83     -807631.46     -9807.9219      0.36355845     0.05765013     30.295254      6.6884428    
     99820   199.64         282.17325      132730.04     -807634.22     -9732.0365      0.36356183     0.05720355     30.292229      6.33638      
     99830   199.66         278.77761      132920.67     -807634.72     -9700.077       0.36356507     0.057015189    30.256028      5.9843223    
     99840   199.68         272.22329      133515.72     -807632.83     -9733.7565      0.36356816     0.057212664    30.262117      5.6322688    
     99850   199.7          279.0989       132806.68     -807632.59     -9773.7819      0.36357111     0.057447458    30.303244      5.2802189    
     99860   199.72         284.02053      131897.41     -807635.21     -9711.3973      0.36357392     0.057080338    30.308702      4.9281733    
     99870   199.74         269.99872      131605.69     -807634.68     -9666.7198      0.36357658     0.056817323    30.28558       4.5761326    
     99880   199.76         271.45096      132770.57     -807632.29     -9750.4855      0.3635791      0.057309269    30.273846      4.2240963    
     99890   199.78         277.38813      132871.85     -807632.24     -9782.3145      0.36358148     0.057495971    30.287086      3.8720642    
     99900   199.8          280.77067      133332.33     -807633.73     -9746.5831      0.36358371     0.057285606    30.291323      3.5200365    
     99910   199.82         273.90917      132618.47     -807633.77     -9714.899       0.3635858      0.057099054    30.290932      3.1680131    
     99920   199.84         279.113        133908.77     -807632.66     -9773.0754      0.36358775     0.057440677    30.258568      2.8159945    
     99930   199.86         273.91095      132543.53     -807632.36     -9761.0817      0.36358955     0.0573699      30.250211      2.4639801    
     99940   199.88         274.32236      132860.65     -807634.47     -9693.7143      0.36359121     0.056973694    30.216335      2.1119703    
     99950   199.9          283.01231      130878.64     -807637.15     -9648.3204      0.36359273     0.05670666     30.215121      1.7599648    
     99960   199.92         277.39501      132958.58     -807632.62     -9767.0933      0.3635941      0.057404514    30.211669      1.4079634    
     99970   199.94         282.37233      131349.05     -807634.76     -9720.4075      0.36359533     0.057129933    30.243231      1.0559662    
     99980   199.96         283.16471      132724.75     -807635.21     -9706.0439      0.36359641     0.057045344    30.222798      0.70397321   
     99990   199.98         277.52718      132438.32     -807634.94     -9690.6898      0.36359736     0.056954955    30.219052      0.3519845    
    100000   200            283.49814      133561.53     -807632.96     -9778.5091      0.36359816     0.057470968    30.194355      0            
Loop time of 3519.82 on 32 procs for 100000 steps with 1080 atoms

Performance: 4.909 ns/day, 4.889 hours/ns, 28.411 timesteps/s, 30.683 katom-step/s
71.5% CPU use with 32 MPI tasks x 1 OpenMP threads

MPI task timing breakdown:
Section |  min time  |  avg time  |  max time  |%varavg| %total
---------------------------------------------------------------
Pair    | 2582       | 2810.3     | 3086.5     | 225.2 | 79.84
Neigh   | 0.0012271  | 0.0013439  | 0.0014945  |   0.2 |  0.00
Comm    | 355.52     | 631.67     | 860.22     | 475.2 | 17.95
Output  | 2.3245     | 2.3365     | 2.3454     |   0.3 |  0.07
Modify  | 68.021     | 68.95      | 69.699     |   4.9 |  1.96
Other   |            | 6.607      |            |       |  0.19

Nlocal:          33.75 ave          40 max          26 min
Histogram: 1 0 4 3 2 10 3 5 0 4
Nghost:        1031.47 ave        1046 max        1017 min
Histogram: 1 2 4 4 7 3 6 2 0 3
Neighs:              0 ave           0 max           0 min
Histogram: 32 0 0 0 0 0 0 0 0 0
FullNghs:      5389.56 ave        6430 max        4131 min
Histogram: 1 0 3 4 3 10 4 3 0 4

Total # of neighbors = 172466
Ave neighs/atom = 159.69074
Neighbor list builds = 3
Dangerous builds = 0

Total wall time: 1:02:13
