
units		metal
atom_style	atomic

read_data ${STRUCTURE}.data
read_data BaTiO3-sc333.data
Reading data file ...
  orthogonal box = (0 0 0) to (11.898253 11.898253 12.912076)
  2 by 4 by 4 MPI processor grid
  reading atoms ...
  135 atoms
  read_data CPU = 0.004 seconds
replicate $L $L $L
replicate 2 $L $L
replicate 2 2 $L
replicate 2 2 2
Replication is creating a 2x2x2 = 8 times larger system...
  orthogonal box = (0 0 0) to (23.796507 23.796507 25.824152)
  2 by 4 by 4 MPI processor grid
  1080 atoms
  replicate CPU = 0.003 seconds

pair_style allegro
pair_coeff	* * ${MODEL}.pth Ba Ti O
pair_coeff	* * BaTiO3-E0.pth Ba Ti O
mass 1 137.3
mass 2 47.9
mass 3 15.9994

timestep 0.002
compute polarization all allegro polarization 3
compute allegro will evaluate the quantity polarization of length 3 (src/compute_allegro.cpp:53)
compute polarizability all allegro polarizability 9
compute allegro will evaluate the quantity polarizability of length 9 (src/compute_allegro.cpp:53)

thermo_style custom pe fmax fnorm spcpu cpuremain

variable efield equal 1e-2*36.36
fix born all addbornforce 0.0 0.0 ${efield}
fix born all addbornforce 0.0 0.0 0.3636

thermo 10
min_style fire
#minimize 0.0 1e-6 100 100
velocity all create ${TEMP} ${SEED} dist gaussian rot yes mom yes
velocity all create 350 ${SEED} dist gaussian rot yes mom yes
velocity all create 350 3079 dist gaussian rot yes mom yes
fix nvt all nvt temp ${TEMP} ${TEMP} $(100*dt)
fix nvt all nvt temp 350 ${TEMP} $(100*dt)
fix nvt all nvt temp 350 350 $(100*dt)
fix nvt all nvt temp 350 350 0.2000000000000000111
run 5000
Neighbor list info ...
  update: every = 1 steps, delay = 0 steps, check = yes
  max neighbors/atom: 2000, page size: 100000
  master list distance cutoff = 8
  ghost atom cutoff = 8
  binsize = 8, bins = 3 3 4
  1 neighbor lists, perpetual/occasional/extra = 1 0 0
  (1) pair allegro/kk, perpetual
      attributes: full, newton on, kokkos_device
      pair build: full/bin/kk/device
      stencil: full/bin/3d
      bin: kk/device
Per MPI rank memory allocation (min/avg/max) = 3.516 | 3.516 | 3.516 Mbytes
    PotEng          Fmax          Fnorm          S/CPU         CPULeft    
-807708.29      1.5956582      37.044325      0              0            
-807643.49      3.4149111      45.626384      2.683132       1859.7679    
-807632.41      2.4380056      35.967947      25.866707      1024.2833    
-807604.66      3.043513       37.856642      25.856594      745.55559    
-807599.66      4.2595338      50.805066      25.801688      606.10048    
-807566.97      3.8096843      40.361349      25.812251      522.25669    
-807600.8       3.1981566      39.422751      25.892711      466.13261    
-807646.25      4.700984       34.52883       25.87406       425.95316    
-807681.33      2.7001118      35.023688      25.838658      395.75456    
-807665.47      3.1478635      35.172498      25.822306      372.19412    
-807649.02      3.9662074      36.612224      25.894588      353.21536    
-807657.3       2.9112615      29.913182      25.87767       337.62828    
-807621.29      3.3509928      34.015064      25.843732      324.59529    
-807582.04      3.5375787      42.096136      25.849116      313.50481    
-807565.04      2.803528       39.353744      25.918062      303.90771    
-807631.25      3.9401286      35.507017      25.847016      295.57306    
-807650.84      3.0758666      32.421332      25.856954      288.22739    
-807662.3       2.9906511      35.572316      25.874504      281.69295    
-807642.1       5.2095054      46.642381      25.887486      275.83643    
-807678.58      2.8580969      37.237351      25.837096      270.57481    
-807638.45      4.2888743      40.461542      25.79755       265.81488    
-807613.11      3.0169514      40.452794      25.861479      261.4495     
-807558.3       4.601032       46.887403      25.902486      257.43252    
-807601.33      4.6876189      50.33126       25.868217      253.74188    
-807610.43      3.8584585      39.698088      25.818851      250.34124    
-807638.28      3.2840597      36.241434      25.889143      247.16169    
-807640.54      4.5829783      44.75383       25.886723      244.19766    
-807679.47      2.7312078      38.039524      25.839665      241.4369     
-807662.52      2.9917827      34.553055      25.795863      238.85677    
-807634.79      2.9880842      32.847896      25.873195      236.40902    
-807607.14      3.6175208      33.858707      25.913498      234.08928    
-807600.25      3.453909       42.403724      25.87658       231.90263    
-807594.28      3.4149793      38.314977      25.793507      229.84669    
-807603.78      3.7666857      35.019476      25.913949      227.86636    
-807640.95      3.3618446      31.10774       25.891784      225.98435    
-807668.83      3.0114755      33.562109      25.856501      224.19481    
-807675.22      2.5203621      34.134248      25.774971      222.49898    
-807640.19      4.4427716      41.239726      25.827975      220.86387    
-807645.67      2.8153219      33.265791      25.860494      219.28853    
-807618.34      4.2574327      36.300411      25.851604      217.77572    
-807598.56      4.2498462      44.95583       25.8209        216.32449    
-807565.09      4.4968182      43.654862      25.865852      214.91763    
-807619.88      3.2235496      37.445295      25.864553      213.55957    
-807646.24      4.0830805      36.785037      25.820285      212.25373    
-807669.8       3.0863959      36.159773      25.820183      210.98966    
-807639.99      4.5238059      46.56027       25.866002      209.75762    
-807664.34      2.8978531      35.676642      25.881992      208.55998    
-807643.61      3.5280242      36.18817       25.865712      207.39921    
-807620.96      3.4544334      37.682825      25.857785      206.27181    
-807563.94      4.1940635      43.185415      25.925163      205.16539    
-807596.93      3.8901944      43.648735      25.931689      204.08693    
-807619.97      3.889078       36.017519      25.867231      203.04409    
-807649.85      2.7861273      33.811618      25.895441      202.02287    
-807639.49      3.8350587      41.263499      25.900617      201.02496    
-807667.12      3.558863       36.029645      25.913794      200.04809    
-807663.92      3.0050032      35.167221      25.81981       199.10408    
-807638.18      3.4409618      33.266249      25.864002      198.1747     
-807597.84      3.6922255      37.183881      25.907281      197.25934    
-807591.36      3.7247013      39.378546      25.921591      196.36061    
-807601.7       3.9673037      42.251999      25.875528      195.48441    
-807612.7       3.7349364      35.299702      25.918822      194.61979    
-807633.71      2.8400367      34.166639      25.922426      193.77049    
-807655.6       3.5143859      36.749071      25.909105      192.93754    
-807671.55      2.9446453      37.617506      25.841792      192.12576    
-807641.86      5.650265       41.318399      25.845976      191.32682    
-807630.99      3.4654912      35.862972      25.922637      190.53291    
-807609         5.2131909      38.446673      25.923933      189.75123    
-807600.78      4.5672986      46.912133      25.846708      188.98883    
-807575.84      4.3004947      42.269992      25.911121      188.23136    
-807609.98      3.1752531      37.753788      25.92828       187.48306    
-807639.36      4.3989944      37.839975      25.908842      186.7469     
-807669.03      2.8949193      36.896703      25.882867      186.02294    
-807646.18      4.6355233      42.481014      25.907769      185.30616    
-807647.81      3.3350013      37.871773      25.921239      184.59726    
-807641.32      3.6102         35.10521       25.884992      183.90021    
-807620.27      3.320688       38.61195       25.895647      183.21054    
-807575.81      3.4469814      41.779444      25.911557      182.52754    
-807583.61      3.7525505      41.683242      25.953965      181.84879    
-807622.88      3.3423699      35.159408      25.91001       181.18109    
-807650.34      2.6988155      34.172164      25.924163      180.51941    
-807648.29      3.5081634      36.83112       25.926787      179.86443    
-807653.13      3.5187152      36.908013      25.789374      179.22672    
-807660.21      3.0505532      35.374016      25.803553      178.59402    
-807640.47      3.8804906      34.15648       25.842642      177.96429    
-807603.56      3.1063218      37.444094      25.890403      177.3368     
-807579.98      3.7114483      40.902589      25.932465      176.71192    
-807603.15      4.3948382      42.79571       25.883032      176.09616    
-807620.46      3.9437728      36.235571      25.875454      175.48621    
-807634.49      3.7107466      36.737976      25.920799      174.87817    
-807644.98      4.0400874      39.90231       25.926234      174.27476    
-807667.94      3.0159133      37.649916      25.864699      173.68036    
-807648.42      4.1373837      38.519912      25.837787      173.09234    
-807628.63      3.0196431      35.539069      25.897184      172.50475    
-807601.49      4.7489695      38.589443      25.938525      171.9188     
-807603.1       4.2992837      43.368217      25.899882      171.33959    
-807591.55      4.5081501      39.861343      25.906227      170.76405    
-807612.26      3.2687686      37.221872      25.935537      170.19063    
-807633.3       4.2226444      38.385583      25.959876      169.61957    
-807663.3       3.337112       37.060041      25.894608      169.05629    
-807656.09      4.4772399      38.576236      25.803525      168.50211    
-807642.79      4.0021909      37.466958      25.859145      167.94793    
-807632.43      5.8375909      35.777464      25.928436      167.39298    
-807619.16      4.1016666      37.34044       25.90791       166.84254    
-807592.68      4.1445812      41.150802      25.860355      166.29803    
-807584.5       4.0855685      39.743786      25.908182      165.75384    
-807620.63      3.2238803      34.584499      25.930103      165.21144    
-807649.03      4.0683372      35.311769      25.916694      164.67273    
-807658.49      3.5911946      35.467845      25.852828      164.14038    
-807645.8       4.8986023      40.235592      25.886387      163.60891    
-807654.72      3.2766382      35.452615      25.852543      163.08192    
-807638.41      4.3059916      36.221953      25.869872      162.55655    
-807611         3.0559267      37.542848      25.913513      162.0314     
-807577.52      3.8658666      41.023167      25.905074      161.50918    
-807601.06      3.9230925      40.768183      19.451022      161.42804    
-807625.9       4.5459333      36.502633      15.064823      161.84613    
-807644.9       3.2112281      34.757693      17.489491      161.93732    
-807643.12      4.9686318      39.761274      25.922573      161.40133    
-807660.93      3.0659259      36.794639      24.29944       160.95226    
-807651.13      3.6808866      37.148424      25.841634      160.42432    
-807631.17      2.9910336      35.108076      10.106179      161.82783    
-807597.49      3.9878697      38.906985      9.2428023      163.48415    
-807595.23      4.2041433      41.637454      25.914611      162.91505    
-807605.23      3.595519       38.79444       25.833419      162.35271    
-807621.15      3.5047788      35.382532      25.917988      161.78935    
-807635.41      3.9394555      36.076808      23.1016        161.37148    
-807657.46      3.6419146      36.37191       22.789474      160.97116    
-807658.53      2.7591013      36.551502      17.674425      160.94717    
-807642.43      3.8682301      36.27234       20.501702      160.68549    
-807623.23      3.6853092      36.000912      25.870933      160.12607    
-807610.6       3.6586166      37.430667      25.886135      159.56868    
-807596.39      4.0996881      42.018482      25.849225      159.01549    
-807592.86      4.2360689      40.043486      20.706849      158.73546    
-807617.29      3.3728516      36.344018      19.8919        158.50752    
-807643.42      4.4756631      36.482307      25.815501      157.95714    
-807658.22      3.3574431      37.042191      25.808158      157.40949    
-807647.37      5.2263929      39.213225      25.860831      156.86208    
-807640.2       3.7322782      37.020777      25.876427      156.31641    
-807630.76      4.5664219      35.62326       25.88313       155.7728     
-807612.55      3.6238449      38.046004      25.921395      155.22997    
-807581.94      3.7344281      40.852809      25.93022       154.68906    
-807595.96      3.8799333      39.991263      25.928671      154.15043    
-807624.96      4.1773437      36.564287      25.916314      153.61444    
-807649.62      3.0115877      35.697834      25.746019      153.087      
-807645.2       4.3608792      39.368736      25.782946      152.56011    
-807649.17      3.743229       37.295727      25.878962      152.03159    
-807648.49      2.9745424      35.765032      25.898641      151.50432    
-807630.65      3.4745025      35.581711      25.916956      150.97832    
-807594.7       3.8068703      38.885001      25.897573      150.45492    
-807588.86      3.664809       40.0784        25.921841      149.93251    
-807606.8       3.9818079      39.085787      25.866919      149.41387    
-807628.22      2.9999876      35.828447      25.833246      148.89816    
-807637.07      3.9711469      38.201766      25.794609      148.3855     
-807649.95      3.3163272      37.710594      25.880342      147.87154    
-807655.79      4.2095205      37.761535      25.857786      147.36001    
-807642.05      4.3187797      37.235099      25.856474      146.85015    
-807618.9       4.0534761      38.019345      25.915648      146.33991    
-807599.52      4.1697454      39.988563      25.919879      145.83113    
-807599.68      4.0058816      41.61504       25.875398      145.32536    
-807602.5       3.6571122      38.983068      25.829369      144.8226     
-807621.08      3.318116       36.985095      25.838444      144.32099    
-807641.55      4.1274776      36.425141      25.867054      143.81991    
-807657.41      2.7888129      36.043209      25.874271      143.32002    
-807648.45      3.3703598      37.751713      25.900749      142.82071    
-807637.36      3.8472789      35.918597      25.950114      142.32127    
-807622.94      4.2831159      36.022042      25.981187      141.82228    
-807611.31      3.2660637      38.42585       25.910278      141.32681    
-807594.12      3.5611183      40.435785      25.860247      140.83416    
-807599.05      3.7775448      39.436453      25.854714      140.34295    
-807628.21      3.1894391      35.543996      25.823597      139.85389    
-807649.62      3.90782        36.162581      25.876965      139.36448    
-807650.79      3.4984426      36.801565      25.836029      138.87747    
-807644.8       4.0614377      37.34995       25.899756      138.3898     
-807642.47      3.5212575      35.173139      25.890909      137.90356    
-807628.88      3.2604897      35.646166      25.825302      137.42033    
-807602.99      3.6359062      38.263485      25.848408      136.93755    
-807589.62      4.0133474      40.599005      25.922887      136.45381    
-807610.37      4.1303303      38.030854      25.817293      135.97408    
-807632.84      4.0115019      35.982751      25.857548      135.4943     
-807644.77      3.3115277      35.934751      25.868269      135.01528    
-807647.55      4.1974646      37.651956      25.90073       134.53641    
-807652.04      3.5383495      36.647008      25.915488      134.05819    
-807642         3.8991036      36.132577      25.884698      133.5818     
-807620.69      4.2720964      36.3511        25.913926      133.10564    
-807597         4.3489946      39.140586      25.916811      132.63038    
-807598.08      4.0641879      41.304655      25.916698      132.15611    
-807613.1       3.326523       37.101243      25.833852      131.68489    
-807629.32      3.9048548      36.115217      25.885826      131.21327    
-807640.13      3.3310166      36.890644      25.891344      130.74242    
-807651.79      3.1920453      37.561223      25.89821       130.2723     
-807649.61      4.0727248      37.35409       25.654318      129.80912    
-807633.86      4.3909238      36.513377      25.851637      129.34184    
-807615.07      3.6137823      37.241037      25.891087      128.87446    
-807604.63      4.1222241      39.187261      25.919579      128.40725    
-807598.01      4.5810696      39.776778      25.854177      127.94243    
-807607.05      3.6606561      37.356305      25.865507      127.47814    
-807627.39      3.1857553      36.110953      25.896561      127.01393    
-807647.87      2.9121686      35.785913      25.891368      126.55064    
-807648.76      4.2498229      37.771598      25.864288      126.08874    
-807643.29      3.762881       37.024279      25.915117      125.62646    
-807634.97      4.1638779      36.435708      25.906921      125.16512    
-807620.63      3.6794783      37.908504      25.918162      124.70429    
-807604.42      3.512246       40.085844      25.916117      124.24425    
-807591.75      3.3101578      41.00394       25.829048      123.78686    
-807608.72      3.3456253      38.444877      25.820081      123.33037    
-807630.12      4.4415263      37.188194      25.858379      122.87371    
-807644.15      3.7911433      36.371194      25.859192      122.41772    
-807644         4.3731404      37.804678      25.924291      121.96102    
-807643.82      3.0111961      37.068061      25.880057      121.50594    
-807636.89      3.6630823      35.955437      25.881334      121.05149    
-807620.25      3.1686657      36.232378      25.879682      120.59772    
-807597.11      3.4152211      38.773366      25.877727      120.14464    
-807597.27      3.3878142      40.002454      25.905956      119.69162    
-807613.51      3.3638891      37.275137      25.878878      119.23977    
-807631.71      3.4511469      36.582221      25.864961      118.78882    
-807639.69      3.7857513      37.743197      25.901808      118.33773    
-807647.97      4.0820569      37.485585      25.916839      117.88696    
-807647.83      3.1045605      36.919791      25.884674      117.43741    
-807633.56      4.3678449      37.045464      25.867288      116.98879    
-807615.1       3.6033625      36.954068      25.898346      116.54013    
-807600.26      4.4609552      39.367312      25.91614       116.09171    
-807602.04      3.8792074      39.917157      25.877059      115.6446     
-807612.62      4.5667957      38.153618      25.802921      115.19943    
-807629.33      3.9776311      36.528172      25.92239       114.75255    
-807645.58      3.3753033      36.390178      25.882344      114.30696    
-807650.02      2.9315053      36.745538      25.844358      113.8626     
-807644.27      3.37802        36.527519      25.836775      113.41889    
-807631.18      3.9363947      35.788337      25.911863      112.97432    
-807616.46      2.9271405      36.814022      25.884108      112.53076    
-807604.26      3.8451333      38.530164      25.89399       112.08753    
-807601.89      3.5099251      38.109809      25.875333      111.64513    
-807615.78      3.4697324      36.703262      25.870873      111.20329    
-807636.02      3.4146834      35.042079      25.927671      110.76094    
-807646.54      3.1795868      36.783185      25.915268      110.3193     
-807646.97      4.2604356      37.439773      25.896589      109.87845    
-807641.14      3.455381       37.314976      25.871275      109.4385     
-807631.61      5.215959       36.569724      25.917238      108.99823    
-807616.6       3.9799301      37.796863      25.884988      108.55897    
-807600.81      4.0950123      40.000371      25.877685      108.12026    
-807600.09      4.5124507      39.468651      25.899166      107.68165    
-807619.44      3.923061       37.098266      25.905496      107.24337    
-807635.6       3.4330012      36.175023      25.923507      106.80524    
-807643.83      3.695714       36.16303       25.859535      106.36857    
-807644.88      3.9759284      36.809175      25.875123      105.93206    
-807643.57      3.7205923      35.207227      25.838412      105.49654    
-807631.86      2.8305848      35.059362      25.877101      105.06082    
-807613.96      3.0152298      36.497299      25.898149      104.62517    
-807600.88      2.9543602      38.05958       25.888971      104.19006    
-807606.26      3.1351065      38.10755       25.856596      103.75584    
-807618.8       3.3108873      36.740411      25.904719      103.32128    
-807633.38      3.6583388      36.491627      25.884511      102.88741    
-807643.08      5.9467469      37.534895      25.860911      102.45428    
-807646.36      3.9439723      37.439776      25.892632      102.02104    
-807642.14      4.6305165      36.43343       25.874323      101.58845    
-807626.73      3.5526529      36.314171      25.870064      101.15628    
-807612.17      4.5093707      37.131487      25.800518      100.72548    
-807603.89      3.2252095      38.743353      25.914161      100.29339    
-807604.92      4.5970726      38.810668      25.839816      99.862715    
-807618.83      3.7218705      36.581254      25.846369      99.432288    
-807633.55      3.6400392      36.185995      25.883299      99.001681    
-807647.27      3.2332885      36.184477      25.856003      98.571796    
-807644.95      3.4308821      37.069307      25.848012      98.142352    
-807638.73      3.1945588      35.883936      25.879519      97.712803    
-807626.05      3.1932035      36.05574       25.854373      97.283925    
-807613.53      2.7702737      36.406699      25.856927      96.855333    
-807603.76      3.1829723      37.581102      25.893457      96.42657     
-807606.53      3.6122023      38.068806      25.87733       95.998342    
-807620.72      3.424069       35.900529      25.815348      95.571244    
-807637.09      3.6569206      35.916972      25.846691      95.144034    
-807645.54      3.3693971      36.718791      25.853608      94.717035    
-807641.15      4.6907123      38.538508      25.859024      94.290265    
-807637.04      3.6143614      36.256329      25.862966      93.863742    
-807626.71      3.9287402      36.115272      25.904072      93.436995    
-807611.14      3.7182366      36.956916      25.915076      93.010409    
-807600.49      3.9951128      38.559487      25.873585      92.584637    
-807608.5       2.9985907      37.319541      25.869275      92.159204    
-807623.76      3.1176659      35.769745      25.853472      91.734247    
-807637.52      3.6220322      36.151592      25.870172      91.309364    
-807641.22      3.695119       37.116928      25.882401      90.884611    
-807645.25      3.4802072      36.692658      25.876951      90.460199    
-807634.43      3.8764817      36.564192      25.910733      90.03566     
-807624.85      2.926085       36.342024      25.927098      89.611205    
-807606.66      3.3394101      37.559606      25.89407       89.187411    
-807603.82      3.2947548      38.418017      25.930798      88.763459    
-807609.2       4.7688205      39.045399      25.85407       88.340656    
-807625.1       3.3613056      36.207042      25.843053      87.918232    
-807636.89      3.1989442      35.795877      25.86448       87.495815    
-807642.95      3.6367938      36.825903      25.926516      87.072956    
-807643.54      3.0678753      36.375177      25.917459      86.650456    
-807635.71      3.2303543      35.201039      25.899082      86.228412    
-807621.21      2.9461425      36.348355      25.884801      85.806772    
-807609.95      3.2590019      38.284458      25.909912      85.385105    
-807605.67      3.0065049      38.873206      25.859444      84.964224    
-807609.22      3.0528958      38.657677      25.807698      84.544129    
-807623.96      2.9670139      36.677611      25.827977      84.124043    
-807638.26      3.7103996      36.875044      25.854149      83.703905    
-807643.21      3.0360914      37.030296      25.847209      83.284065    
-807639.83      4.0467089      37.287492      25.832035      82.864606    
-807632.39      3.6038207      36.339728      25.851251      82.445167    
-807622.72      3.7374541      35.400232      25.838515      82.026076    
-807610.87      3.1064055      37.647766      25.808521      81.607502    
-807604.43      3.0944335      37.195359      25.857823      81.188643    
-807613.43      2.9225414      36.743011      25.842172      80.770153    
-807628.31      3.3253275      35.323034      25.857348      80.351722    
-807640.29      3.30448        35.853734      25.854066      79.933532    
-807640.42      4.5110976      37.080518      25.87158       79.51538     
-807641.65      2.9561523      35.966766      25.917478      79.096998    
-807633.21      3.7708308      35.671813      25.912854      78.678872    
-807621.08      3.0611126      36.061658      25.872908      78.261331    
-807606.94      2.7149654      37.168117      25.870351      77.844015    
-807607.57      2.864386       37.015159      25.810169      77.427455    
-807616.72      3.1751737      36.704626      25.921936      77.010059    
-807631.44      2.7645356      34.798931      25.937756      76.592724    
-807635.33      3.3529016      36.60854       25.913515      76.17581     
-807643.71      3.9050101      35.778947      25.928794      75.758958    
-807642.48      2.8189441      35.333897      25.923607      75.34235     
-807630.83      3.8712651      36.07596       25.911526      74.926044    
-807619.58      3.1100744      35.88238       25.903543      74.51        
-807608.83      3.6088969      37.839079      25.88512       74.094303    
-807609.83      3.5411861      37.844125      25.904504      73.678626    
-807615.97      3.652533       36.396041      25.873988      73.263393    
-807630.99      3.4774756      35.603813      25.893589      72.848175    
-807639.23      5.035103       35.783442      25.887226      72.43319     
-807643.87      3.1497412      35.991878      25.874881      72.018486    
-807638.36      3.4719284      36.131248      25.884994      71.603874    
-807631.13      2.8638672      35.21718       25.857045      71.189663    
-807619.19      3.0467125      35.712919      25.861893      70.775582    
-807608.83      3.4353883      37.889968      25.87749       70.361545    
-807608.4       3.5207044      38.02806       25.895143      69.947538    
-807618.29      3.9691861      37.340679      25.88571       69.533774    
-807629.77      3.9324734      36.397498      25.862094      69.12036     
-807641.36      4.0107995      35.984045      25.898563      68.706828    
-807638.48      3.8965253      37.583289      25.858745      68.293765    
-807638.38      4.8731121      36.673789      25.874151      67.880744    
-807628.34      3.3659674      36.447362      25.872113      67.467898    
-807616.14      3.2081864      37.079527      25.871374      67.055215    
-807606.77      3.4324347      38.723012      25.904584      66.642444    
-807608.37      3.5404512      39.117268      25.902283      66.229849    
-807618.47      3.0529449      37.530154      25.886393      65.817526    
-807631.46      3.537968       36.354388      25.860109      65.405546    
-807636.67      4.2195347      37.282515      25.859511      64.993718    
-807639.29      3.587084       36.869728      25.841612      64.582165    
-807636.33      3.641749       36.336561      25.861519      64.170617    
-807627.33      3.3252498      36.08475       25.87518       63.759119    
-807615.47      2.9020593      36.532559      25.835122      63.348042    
-807606.25      3.2901428      38.349567      25.830559      62.937136    
-807610.94      3.2420878      37.651344      25.823436      62.526416    
-807618.36      4.6847569      38.470822      25.905132      62.115287    
-807630.03      3.8088838      38.103305      25.855429      61.70463     
-807636.32      3.7323763      38.507505      25.857003      61.294101    
-807639.29      3.831033       38.199323      25.85853       60.883698    
-807633.92      4.2098963      37.947853      25.791897      60.473858    
-807625.61      4.2159087      37.228513      25.824311      60.063938    
-807613.78      3.2187708      38.382332      25.845293      59.654015    
-807608.63      4.9324992      39.190964      25.840661      59.244251    
-807610.1       3.3848055      37.638524      25.816614      58.834764    
-807621.36      3.5820197      36.097526      25.840581      58.425255    
-807631.11      3.8448598      36.954956      25.786885      58.016199    
-807639.94      3.5759445      36.840288      25.811946      57.607111    
-807639.54      4.011888       36.907299      25.892615      57.197665    
-807634.54      3.754198       36.991244      25.895214      56.788334    
-807624.4       3.8631139      37.029242      25.919266      56.378991    
-807616.03      3.4374389      37.746066      25.938973      55.969667    
-807607.55      3.2655495      37.807445      25.950755      55.560407    
-807612.48      2.9897778      37.609652      25.925179      55.151422    
-807623.34      3.3365802      35.856628      25.888064      54.742772    
-807633.51      3.6421292      36.234023      25.919791      54.334069    
-807639.49      4.7125558      36.744974      25.902756      53.925585    
-807637.77      3.1460305      36.393411      25.929085      53.51708     
-807634.95      3.400584       36.321517      25.927104      53.108711    
-807622.86      3.168516       36.789425      25.926296      52.700468    
-807614.26      4.1799386      37.503882      25.917849      52.292391    
-807609.21      3.5879738      38.193385      25.886407      51.884598    
-807615.05      3.7679131      37.545102      25.890967      51.476896    
-807624.77      3.2713653      36.927079      25.862467      51.069454    
-807633.12      4.4678513      36.439775      25.848395      50.662195    
-807637.62      4.195891       37.335171      25.860132      50.254985    
-807639.62      4.2383215      36.528512      25.867518      49.847849    
-807631.52      3.1385274      37.075594      25.855201      49.440881    
-807622.72      4.1599882      36.508886      25.852348      49.034034    
-807613.75      3.5038133      37.153909      25.882238      48.627151    
-807611.81      3.126962       37.743379      25.848325      48.220535    
-807613.87      3.3081632      37.034403      25.794634      47.814274    
-807624.39      3.4623241      36.040295      25.832959      47.407933    
-807634.14      3.4069075      35.843169      25.863626      47.001553    
-807639.77      3.3062632      36.153127      25.892989      46.595142    
-807638.28      3.3698761      36.0082        25.914087      46.188743    
-807631.83      3.9113148      35.984405      25.903098      45.782499    
-807621.79      3.8534172      36.199713      25.93311       45.376228    
-807615.12      3.3977135      37.06342       25.926404      44.970092    
-807609.31      3.1352105      37.361884      25.916789      44.564103    
-807614.26      3.9940894      36.999829      25.893046      44.158316    
-807624.62      4.1882524      37.459516      25.887919      43.752651    
-807635.45      3.1502787      36.873787      25.935445      43.34689     
-807638.13      3.5292409      37.008268      25.920561      42.941292    
-807636.99      3.1098658      36.584356      25.931048      42.535752    
-807630.14      2.930418       36.738868      25.917802      42.130366    
-807621.87      3.1508029      36.832928      25.892221      41.725178    
-807612.25      2.9980402      37.137174      25.893785      41.32008     
-807610.2       5.4904621      37.859189      25.868883      40.915172    
-807616.08      3.490084       37.526279      25.862435      40.510381    
-807625.63      3.773362       36.867114      25.896815      40.105552    
-807634.09      3.6475379      36.248108      25.891032      39.700837    
-807635.28      3.3516937      36.806026      25.93397       39.296058    
-807635.7       3.5169883      36.980183      25.896755      38.891508    
-807630.66      3.9504473      36.847499      25.848055      38.487222    
-807619.75      3.5443996      36.697915      25.862911      38.08297     
-807612.2       3.3246938      37.21026       25.881083      37.678742    
-807611.17      4.0443972      37.706423      25.860433      37.274671    
-807617.98      3.4215593      37.433437      25.848278      36.870728    
-807625.34      3.6794312      35.955891      25.888602      36.466733    
-807631.23      3.9222541      36.902092      25.900342      36.062786    
-807636.69      3.4220707      36.078515      25.907203      35.658905    
-807634.87      2.9930713      36.468726      25.918688      35.255073    
-807627.24      3.8279469      36.267311      25.921396      34.85132     
-807618.58      3.0550452      36.985881      25.878687      34.447787    
-807616.41      3.4228262      36.546698      25.862247      34.044386    
-807611.79      3.7888562      38.544831      25.865695      33.641055    
-807617.95      3.2466567      37.476003      25.922081      33.237637    
-807625.3       3.8878163      37.072039      25.915442      32.834322    
-807634.02      3.5745308      36.433765      25.902605      32.431128    
-807633.99      3.4748806      37.66287       25.882251      32.028074    
-807632.53      4.1759457      37.583732      25.859814      31.625161    
-807625.88      5.057785       37.518408      25.839858      31.222381    
-807617.64      4.066507       37.721349      25.836799      30.819683    
-807612.52      3.8677904      38.448061      25.875235      30.416957    
-807612.1       3.3010757      38.362937      25.882134      30.014288    
-807619.35      3.6687411      36.734851      25.96701       29.611477    
-807628.98      3.0015203      36.53659       25.937022      29.208825    
-807633.47      3.1288859      36.611365      25.924334      28.806285    
-807635.45      3.2893497      36.409233      25.911685      28.403854    
-807634.64      2.9744626      35.812463      25.87733       28.001583    
-807625.94      3.2489111      35.930579      25.841504      27.599471    
-807620.14      3.1787821      36.537663      25.864845      27.197375    
-807612.16      3.4857831      37.465905      25.922048      26.795218    
-807615.29      3.7521259      37.370345      25.904442      26.393176    
-807621.35      2.9618795      36.876565      25.864943      25.991297    
-807629.96      3.6822932      36.24124       25.873515      25.589468    
-807633.51      2.945649       35.790026      25.911432      25.187628    
-807639.09      3.4325177      34.876044      25.859454      24.78597     
-807633.07      3.5559425      36.185803      25.854593      24.384391    
-807627.14      3.6564139      36.335175      25.906467      23.982773    
-807617.38      3.3176957      36.990537      25.916568      23.581206    
-807616.3       3.2500866      37.476231      25.912562      23.179718    
-807615.33      4.2008519      37.533177      25.918468      22.778288    
-807623.71      4.0546973      36.82714       25.916493      22.376933    
-807630.6       3.6770734      36.75851       25.927897      21.975627    
-807635.11      4.563973       37.2467        25.917581      21.574409    
-807635.31      3.6339747      37.597961      25.923949      21.173249    
-807630.99      4.5199758      37.616533      25.923489      20.772158    
-807625.92      3.8322396      37.503649      25.942953      20.371103    
-807616.35      4.2431903      37.422967      25.928897      19.97014     
-807614.4       3.3412405      37.835089      25.870415      19.56934     
-807615.97      4.1371779      37.417515      25.845553      19.168643    
-807626         3.7580712      36.512373      25.854047      18.767993    
-807630.25      3.74743        36.084931      25.917942      18.367307    
-807635.54      3.7600524      35.965792      25.917529      17.966688    
-807633.37      5.1126485      37.490495      25.920692      17.566129    
-807632.19      3.458827       36.469818      25.884057      17.165685    
-807622.66      4.6735489      36.881196      25.900356      16.765282    
-807616.09      4.0443683      38.090002      25.895826      16.364946    
-807611.64      4.3714651      37.706627      25.883042      15.964689    
-807618.39      3.2479361      37.415514      25.865644      15.564514    
-807624.19      3.7708774      37.411248      25.920443      15.16433     
-807632.76      3.2036575      36.843288      25.894866      14.764239    
-807633.8       3.3229528      37.350262      25.886018      14.364218    
-807635.09      3.2494957      37.032292      25.803168      13.96435     
-807629.6       4.0953725      37.083284      25.786508      13.564553    
-807621.53      3.2256471      37.403149      25.793472      13.164799    
-807612.17      3.6659858      38.759724      25.806368      12.765084    
-807613.02      3.4630182      37.859957      25.866359      12.365362    
-807617.19      3.8261871      38.330961      25.934514      11.965631    
-807623.85      3.0897367      37.339218      25.927028      11.565966    
-807628.44      3.260906       37.75312       25.926113      11.166362    
-807635.58      3.5075481      37.115045      25.919594      10.766822    
-807634.29      3.0327325      37.167303      25.915493      10.367343    
-807626.82      3.7639249      38.036902      25.914884      9.9679218    
-807619.52      4.4601581      37.868867      25.91622       9.5685566    
-807613.19      4.1480407      39.120016      25.930667      9.1692377    
-807612.94      3.7409278      38.642482      25.920692      8.7699829    
-807615.28      3.6991345      38.929609      25.917299      8.3707864    
-807622.87      3.1462118      37.750142      25.927474      7.9716393    
-807632.03      3.7296335      37.879214      25.873987      7.5725796    
-807634.5       3.3554785      37.901286      25.828941      7.1735973    
-807631.93      3.952338       37.493015      25.864924      6.774645     
-807626.04      3.6009194      37.469862      25.862682      6.3757447    
-807620.34      2.8868946      37.347469      25.871084      5.976891     
-807616.72      3.2624495      37.617757      25.904035      5.5780738    
-807612.01      3.6467717      38.474193      25.860332      5.1793265    
-807619         3.0170666      37.171379      25.904667      4.7806124    
-807626.25      4.291562       36.762093      25.920124      4.381945     
-807634.77      3.4944661      36.9668        25.872444      3.9833446    
-807633.42      3.5128614      37.274688      25.833163      3.5848042    
-807632.46      3.5532843      36.119891      25.845856      3.1863072    
-807628.46      3.7712399      36.22402       25.909813      2.7878437    
-807622.54      3.8795487      36.858081      25.917169      2.3894294    
-807615.2       3.6362102      37.037306      25.871477      1.9910729    
-807613.17      3.6668593      37.504137      25.912952      1.5927591    
-807621.65      4.4953055      37.283788      25.88594       1.1944976    
-807628.25      4.0850052      36.875913      25.83922       0.79628692   
-807631.45      4.0914551      36.786239      25.780794      0.3981229    
-807634.65      3.7468133      37.128427      25.822765      0            
Loop time of 199.052 on 32 procs for 5000 steps with 1080 atoms

Performance: 4.341 ns/day, 5.529 hours/ns, 25.119 timesteps/s, 27.129 katom-step/s
68.0% CPU use with 32 MPI tasks x 1 OpenMP threads

MPI task timing breakdown:
Section |  min time  |  avg time  |  max time  |%varavg| %total
---------------------------------------------------------------
Pair    | 101.7      | 144.29     | 192.99     | 313.2 | 72.49
Neigh   | 0          | 0          | 0          |   0.0 |  0.00
Comm    | 3.4203     | 52.116     | 94.709     | 521.2 | 26.18
Output  | 0.035941   | 0.037225   | 0.038986   |   0.3 |  0.02
Modify  | 2.207      | 2.2394     | 2.2919     |   1.4 |  1.13
Other   |            | 0.3737     |            |       |  0.19

Nlocal:          33.75 ave          48 max          21 min
Histogram: 8 8 0 0 0 0 0 8 0 8
Nghost:        1106.25 ave        1119 max        1092 min
Histogram: 8 0 8 0 0 0 0 0 8 8
Neighs:              0 ave           0 max           0 min
Histogram: 32 0 0 0 0 0 0 0 0 0
FullNghs:       5494.5 ave        7896 max        3378 min
Histogram: 8 8 0 0 0 0 0 8 0 8

Total # of neighbors = 175824
Ave neighs/atom = 162.8
Neighbor list builds = 0
Dangerous builds = 0

reset_timestep 0


variable interval equal 1000
thermo 10

variable nintervals equal $(v_PERIOD/v_interval)
variable nintervals equal 100
variable efield equal 1e-2*36.36*cos((step/${PERIOD})*2*3.14)
variable efield equal 1e-2*36.36*cos((step/100000)*2*3.14)
fix born all addbornforce 0.0 0.0 v_efield

variable Px equal f_born[1]+c_polarization[1]
variable Py equal f_born[2]+c_polarization[2]
variable Pz equal (f_born[3]+c_polarization[3])/vol
variable pe equal pe

fix aveP all ave/time 1 $(v_interval/2) ${interval} v_efield v_Pz v_pe f_born file Pz.${MODEL}.${STRUCTURE}.${TEMP}.$L.${ITER}
fix aveP all ave/time 1 500 ${interval} v_efield v_Pz v_pe f_born file Pz.${MODEL}.${STRUCTURE}.${TEMP}.$L.${ITER}
fix aveP all ave/time 1 500 1000 v_efield v_Pz v_pe f_born file Pz.${MODEL}.${STRUCTURE}.${TEMP}.$L.${ITER}
fix aveP all ave/time 1 500 1000 v_efield v_Pz v_pe f_born file Pz.BaTiO3-E0.${STRUCTURE}.${TEMP}.$L.${ITER}
fix aveP all ave/time 1 500 1000 v_efield v_Pz v_pe f_born file Pz.BaTiO3-E0.BaTiO3-sc333.${TEMP}.$L.${ITER}
fix aveP all ave/time 1 500 1000 v_efield v_Pz v_pe f_born file Pz.BaTiO3-E0.BaTiO3-sc333.350.$L.${ITER}
fix aveP all ave/time 1 500 1000 v_efield v_Pz v_pe f_born file Pz.BaTiO3-E0.BaTiO3-sc333.350.2.${ITER}
fix aveP all ave/time 1 500 1000 v_efield v_Pz v_pe f_born file Pz.BaTiO3-E0.BaTiO3-sc333.350.2.7

thermo_style custom step time temp press pe f_born v_efield v_Pz spcpu cpuremain

# dump 4a all custom 1000 dump.hyst.${MODEL}.${STRUCTURE}.${TEMP}.$L.${ITER}.bin id type xu yu zu fx fy fz
# dump_modify 4a sort id

fix nvt all nvt temp ${TEMP} ${TEMP} $(100*dt)
fix nvt all nvt temp 350 ${TEMP} $(100*dt)
fix nvt all nvt temp 350 350 $(100*dt)
fix nvt all nvt temp 350 350 0.2000000000000000111

run $(v_PERIOD)
run 100000
WARNING: non-constant efield is experimental, strongly distrust scalar/vector output (src/fix_addbornforce.cpp:193)
Per MPI rank memory allocation (min/avg/max) = 3.516 | 3.516 | 3.516 Mbytes
   Step          Time           Temp          Press          PotEng         f_born        v_efield         v_Pz          S/CPU         CPULeft    
         0   0              342.41453      128264.86     -807634.65     -293.55921      0.3636         0.055210204    0              0            
        10   0.02           332.74013      127456.41     -807635.43     -291.4962       0.36359993     0.054822221    28.521131      3505.8455    
        20   0.04           348.31477      134836.06     -807627.98     -300.97668      0.36359971     0.056605266    28.542207      3504.1863    
        30   0.06           349.03523      137434.97     -807620.8      -308.48704      0.36359935     0.058017811    28.551217      3503.0328    
        40   0.08           337.10579      145601.71     -807612.66     -314.70402      0.36359885     0.059187132    28.492957      3504.0707    
        50   0.1            343.36268      140390.59     -807618.13     -310.12304      0.36359821     0.058325681    28.470329      3505.1106    
        60   0.12           346.20497      140828.75     -807620.14     -308.29915      0.36359742     0.057982783    28.500721      3505.0636    
        70   0.14           346.41911      132139.59     -807627.33     -301.19022      0.36359649     0.05664593     28.516587      3504.65      
        80   0.16           351.45189      130369.19     -807632.64     -296.26568      0.36359541     0.055719918    28.546173      3503.7987    
        90   0.18           353.34498      125782.85     -807638.71     -290.396        0.36359419     0.054616165    28.513912      3503.4991    
       100   0.2            345.76346      130242.58     -807632.98     -294.89753      0.36359283     0.055462998    28.495458      3503.4148    
       110   0.22           349.45551      134922.05     -807625.58     -302.7306       0.36359132     0.056936442    28.528035      3502.9194    
       120   0.24           354.11507      140475.04     -807619.54     -309.23598      0.36358968     0.058160214    28.485877      3502.8797    
       130   0.26           353.05599      142630.7      -807616.46     -311.96253      0.36358788     0.058673304    28.407692      3503.5342    
       140   0.28           343.02275      143381.9      -807614.51     -312.20719      0.36358595     0.058719632    28.427917      3503.8663    
       150   0.3            345.8799       139746.43     -807618.28     -308.60404      0.36358387     0.058042287    28.460544      3503.8388    
       160   0.32           353.85457      132974.82     -807627.56     -300.09839      0.36358165     0.056442889    28.547346      3503.1041    
       170   0.34           359.39505      128263.26     -807635.19     -292.81486      0.36357928     0.055073352    28.559343      3502.3283    
       180   0.36           356.34699      126908.18     -807635.98     -291.28137      0.36357677     0.054785307    28.569515      3501.5308    
       190   0.38           338.89107      130724.94     -807627.8      -296.79948      0.36357412     0.055823581    28.522409      3501.0837    
       200   0.4            356.99003      134868.55     -807624.83     -302.06487      0.36357132     0.056814361    28.503286      3500.7641    
       210   0.42           378.57463      140168.18     -807620.89     -308.63856      0.36356838     0.058051253    28.493218      3500.4999    
       220   0.44           344.12503      143824.29     -807612.18     -312.36787      0.3635653      0.058753189    28.478245      3500.3117    
       230   0.46           350.60828      144044.93     -807611.99     -313.12373      0.36356207     0.058895881    28.493694      3500.0268    
       240   0.48           369.13351      136938.4      -807622.26     -305.25141      0.3635587      0.057415698    28.501136      3499.6983    
       250   0.5            365.95978      133371.97     -807627.76     -299.03268      0.36355519     0.056246541    28.480052      3499.4716    
       260   0.52           365.12445      127920.97     -807632.39     -294.23271      0.36355153     0.055344249    28.494346      3499.1678    
       270   0.54           351.98421      129961.3      -807630.2      -294.46783      0.36354773     0.055389052    28.488932      3498.8852    
       280   0.56           355.45432      130897.46     -807630.72     -294.46755      0.36354379     0.055389601    28.474705      3498.6601    
       290   0.58           371.94378      137028.11     -807624.06     -303.40534      0.3635397      0.057071448    28.488892      3498.3662    
       300   0.6            368.04766      140859.33     -807617.53     -309.57404      0.36353547     0.058232475    28.537264      3497.8708    
       310   0.62           360.37806      143942.7      -807613.01     -312.94537      0.3635311      0.058867349    28.542105      3497.3656    
       320   0.64           352.88066      141279.71     -807616.44     -308.63673      0.36352658     0.058057584    28.53475       3496.8983    
       330   0.66           369.51537      138605.77     -807622.31     -305.19789      0.36352192     0.057411439    28.563941      3496.3297    
       340   0.68           363.76004      132812.52     -807626.2      -300.63744      0.36351712     0.056554311    28.5902        3495.6798    
       350   0.7            351.76626      130494.72     -807630.31     -294.99777      0.36351217     0.055494162    28.536706      3495.2338    
       360   0.72           342.86803      130061.81     -807631.39     -292.76108      0.36350708     0.055074172    28.48535       3494.9679    
       370   0.74           362.6365       131707.88     -807630.71     -296.39089      0.36350185     0.055757815    28.459254      3494.7842    
       380   0.76           364.02877      136712.22     -807622.85     -304.663        0.36349647     0.057314834    28.47837       3494.5296    
       390   0.78           369.29103      139721.02     -807619.31     -309.08803      0.36349095     0.058148177    28.491466      3494.229     
       400   0.8            351.91625      142078.62     -807616.73     -309.38199      0.36348529     0.058204386    28.481214      3493.9573    
       410   0.82           367.0733       140622.38     -807619.85     -308.54831      0.36347948     0.058048472    28.502582      3493.6178    
       420   0.84           364.02281      137704.95     -807621.78     -306.35547      0.36347353     0.057636867    28.525052      3493.2122    
       430   0.86           351.15209      133138.02     -807626.43     -299.99258      0.36346744     0.056440718    28.505891      3492.8637    
       440   0.88           344.07686      131229.72     -807630.89     -294.51686      0.3634612      0.055411463    28.502923      3492.5235    
       450   0.9            357.54399      128666.55     -807633.95     -293.47856      0.36345482     0.055217084    28.489357      3492.2197    
       460   0.92           349.26121      133516.99     -807625.12     -301.25424      0.3634483      0.05668107     28.543618      3491.7694    
       470   0.94           363.82846      136402.6      -807624.23     -304.31486      0.36344163     0.057257978    28.600023      3491.1771    
       480   0.96           350.60868      140365.7      -807619.37     -307.32942      0.36343482     0.057826263    28.556324      3490.7058    
       490   0.98           361.47285      140160.47     -807619.93     -308.51209      0.36342786     0.058049901    28.495741      3490.3907    
       500   1              351.67449      141505.76     -807616.53     -310.66495      0.36342077     0.058456127    28.511839      3490.0348    
       510   1.02           357.68416      135581.31     -807623.64     -9743.5267      0.36341353     0.05729446     28.412246      3489.9188    
       520   1.04           346.70584      132469.53     -807629.51     -9505.5374      0.36340614     0.055896157    28.40013       3489.8225    
       530   1.06           354.44079      129038.09     -807633.52     -9415.5758      0.36339862     0.055368295    28.397466      3489.7227    
       540   1.08           355.42774      130718.71     -807630.09     -9534.0035      0.36339095     0.056065893    28.414496      3489.5747    
       550   1.1            347.67163      133077.74     -807627.29     -9593.9759      0.36338313     0.056419781    28.409732      3489.4301    
       560   1.12           356.33257      136925.5      -807625.82     -9682.0404      0.36337518     0.056938913    28.37883       3489.3459    
       570   1.14           348.29176      140462.09     -807619.13     -9865.1137      0.36336707     0.058016839    28.371868      3489.2676    
       580   1.16           352.6606       142100.5      -807615.69     -9999.6227      0.36335883     0.058809222    28.411062      3489.0964    
       590   1.18           355.01623      139848.72     -807620.14     -9868.9817      0.36335044     0.058042243    28.395568      3488.9515    
       600   1.2            351.05769      134996.91     -807626.61     -9647.9804      0.36334191     0.056743805    28.392803      3488.8052    
       610   1.22           343.16059      132005.52     -807628.52     -9553.6536      0.36333324     0.05619037     28.399105      3488.6395    
       620   1.24           344.8628       129249.83     -807631.26     -9479.265       0.36332442     0.055754203    28.429853      3488.4068    
       630   1.26           357.39011      130241.93     -807633.34     -9469.1504      0.36331546     0.055696085    28.472056      3488.0881    
       640   1.28           344.85319      132402.55     -807630.09     -9523.1866      0.36330636     0.056015322    28.503093      3487.709     
       650   1.3            345.76565      138013.47     -807622.12     -9785.8601      0.36329711     0.05756183     28.538486      3487.2642    
       660   1.32           351.44877      139063.96     -807618.76     -9923.9314      0.36328772     0.058375494    28.522904      3486.8511    
       670   1.34           351.419        142176.83     -807618.91     -9920.1077      0.36327819     0.058354534    28.47111       3486.5344    
       680   1.36           340.78437      138224.61     -807622.42     -9765.7126      0.36326851     0.057447842    28.468036      3486.2222    
       690   1.38           341.20979      136695.58     -807624.2      -9709.4746      0.36325869     0.05711856     28.458723      3485.9255    
       700   1.4            353.23209      130468.26     -807631.08     -9546.3904      0.36324873     0.056160714    28.471229      3485.6053    
       710   1.42           335.57638      131587.23     -807631.38     -9456.8636      0.36323863     0.055635583    28.465914      3485.2934    
       720   1.44           345.60784      128782.84     -807634.44     -9409.0501      0.36322838     0.055355854    28.412675      3485.0711    
       730   1.46           350.27027      135538.89     -807626.51     -9682.9308      0.36321798     0.056968794    28.448398      3484.7852    
       740   1.48           346.44475      137160.95     -807622.44     -9804.3553      0.36320745     0.057684859    28.435098      3484.5196    
       750   1.5            348.01316      142567.96     -807618.74     -9925.9909      0.36319677     0.058402231    28.417113      3484.2811    
       760   1.52           344.72431      138407.44     -807622.2      -9804.8216      0.36318595     0.057691018    28.44143       3484.0005    
       770   1.54           339.94245      139456.73     -807620.36     -9837.7455      0.36317498     0.057886488    28.353221      3483.8589    
       780   1.56           346.39192      133814.09     -807627.76     -9636.3561      0.36316387     0.056703223    28.31632       3483.7703    
       790   1.58           338.56558      133095.41     -807629.45     -9541.0037      0.36315262     0.05614388     28.397719      3483.548     
       800   1.6            346.89645      127717.42     -807636.12     -9367.3011      0.36314122     0.05512346     28.422974      3483.2836    
       810   1.62           340.46509      133038.26     -807629.27     -9553.6508      0.36312968     0.056221852    28.413167      3483.0319    
       820   1.64           341.05449      134183.03     -807624.78     -9702.9663      0.363118       0.057102389    28.399051      3482.7989    
       830   1.66           360.41029      138734.4      -807624.28     -9798.1353      0.36310618     0.057664341    28.376301      3482.5968    
       840   1.68           346.2336       139577.04     -807620.75     -9843.962       0.36309421     0.057935952    28.372393      3482.3968    
       850   1.7            347.43813      140981.56     -807619.21     -9893.7779      0.3630821      0.058231082    28.400019      3482.1533    
       860   1.72           353.51799      137944.57     -807623.06     -9792.4218      0.36306984     0.057636483    28.411628      3481.8906    
       870   1.74           345.55829      134829.23     -807627.12     -9618.2104      0.36305745     0.056613038    28.46445       3481.5514    
       880   1.76           340.83845      131602.65     -807630.98     -9465.7764      0.3630449      0.055717733    28.466878      3481.2087    
       890   1.78           335.87999      130449.44     -807629.59     -9481.9173      0.36303222     0.055814692    28.450362      3480.8884    
       900   1.8            346.26122      133183.68     -807627.57     -9582.082       0.36301939     0.056406298    28.456621      3480.5589    
       910   1.82           352.86805      134436.04     -807626.22     -9648.2391      0.36300642     0.05679777     28.419568      3480.2788    
       920   1.84           351.51581      139470.67     -807620.55     -9810.8972      0.36299331     0.057757401    28.474798      3479.9237    
       930   1.86           352.52429      139984.74     -807618.87     -9861.0121      0.36298005     0.058054551    28.436834      3479.6186    
       940   1.88           354.36939      141702.19     -807617.68     -9896.8846      0.36296665     0.058267894    28.410732      3479.3466    
       950   1.9            374.76335      135072.34     -807626.61     -9695.2837      0.36295311     0.057083099    28.4002        3479.0865    
       960   1.92           352.16418      135377.79     -807625.84     -9608.2339      0.36293942     0.056572707    28.427005      3478.7901    
       970   1.94           353.54535      130732.85     -807630.41     -9464.0367      0.36292559     0.055725806    28.471175      3478.437     
       980   1.96           350.21464      132579.21     -807628.28     -9508.2986      0.36291162     0.055988583    28.455484      3478.1035    
       990   1.98           358.45101      131028.58     -807629.1      -9516.7474      0.3628975      0.056040513    28.466312      3477.7562    
      1000   2              355.73927      138497.11     -807622.25     -9717.9733      0.36288325     0.057227704    28.292391      3477.6227    
      1010   2.02           358.27735      137791.78     -807620.2      -306.11902      0.36286884     0.057688354    28.454885      3477.2869    
      1020   2.04           353.57064      143184.07     -807615.76     -309.68251      0.3628543      0.058362235    28.467654      3476.9355    
      1030   2.06           356.21423      139095.06     -807620.28     -305.57535      0.36283961     0.05759054     28.516021      3476.5269    
      1040   2.08           364.3094       137667.63     -807622.64     -304.15889      0.36282478     0.057325928    28.485341      3476.1554    
      1050   2.1            349.14306      132287.83     -807625.97     -298.81925      0.3628098      0.056321872    28.526992      3475.736     
      1060   2.12           362.77549      132610.54     -807629.73     -296.85887      0.36279469     0.055954708    28.521832      3475.3237    
      1070   2.14           358.3904       131459.17     -807631.16     -294.91036      0.36277943     0.055589773    28.536509      3474.896     
      1080   2.16           354.89587      133883.16     -807627.16     -298.47412      0.36276402     0.056263921    28.525673      3474.4818    
      1090   2.18           366.80498      135721.02     -807623.96     -303.51006      0.36274848     0.057215673    28.460224      3474.142     
      1100   2.2            356.704        140342.93     -807618.26     -307.95141      0.36273279     0.058055437    28.435338      3473.8296    
      1110   2.22           352.01908      140789.23     -807617.73     -307.92186      0.36271695     0.0580524      28.524031      3473.4191    
      1120   2.24           349.97318      138172.98     -807620.08     -305.47394      0.36270098     0.057593432    28.513749      3473.0209    
      1130   2.26           364.57487      135437.24     -807624.54     -303.24754      0.36268486     0.057176212    28.563664      3472.5698    
      1140   2.28           353.87662      132132.75     -807627.37     -299.19288      0.3626686      0.056414251    28.569762      3472.1141    
      1150   2.3            355.69639      130955.24     -807630.5      -296.4554       0.36265219     0.055900613    28.582532      3471.6467    
      1160   2.32           345.16645      130610.92     -807631.03     -294.86296      0.36263564     0.055602875    28.498557      3471.2692    
      1170   2.34           339.78208      134909.39     -807625        -300.36741      0.36261895     0.056643467    28.524093      3470.8656    
      1180   2.36           351.6382       136126.4      -807623.19     -304.18351      0.36260212     0.057365773    28.539427      3470.4472    
      1190   2.38           351.90934      139551.29     -807620.28     -307.37947      0.36258514     0.05797121     28.535645      3470.0337    
      1200   2.4            346.91255      139141.74     -807620.78     -306.46745      0.36256802     0.057801935    28.52556       3469.6315    
      1210   2.42           341.72678      140623.45     -807620.34     -306.378        0.36255076     0.057787815    28.539649      3469.2161    
      1220   2.44           361.45305      134603.48     -807627.09     -302.68477      0.36253335     0.057093953    28.607608      3468.7343    
      1230   2.46           349.34493      133394.99     -807628.75     -299.37189      0.3625158      0.056471795    28.568349      3468.2932    
      1240   2.48           337.51173      130254.79     -807632.12     -294.49727      0.36249811     0.055554986    28.54712       3467.8743    
      1250   2.5            343.66211      132362.41     -807630.37     -297.24753      0.36248028     0.056076563    28.483692      3467.5181    
      1260   2.52           341.47889      133389.85     -807627.07     -300.38646      0.3624623      0.056671541    28.456864      3467.188     
      1270   2.54           342.01266      137863.03     -807623.25     -304.30445      0.36244418     0.057413589    28.458227      3466.8562    
      1280   2.56           350.12289      138168.61     -807622.73     -305.96784      0.36242592     0.057730332    28.462911      3466.5197    
      1290   2.58           348.59648      139798.2      -807620.44     -308.03685      0.36240751     0.058123666    28.517651      3466.1313    
      1300   2.6            348.86356      137279.88     -807622.75     -305.80363      0.36238896     0.057705232    28.592058      3465.6742    
      1310   2.62           344.82358      134952.62     -807626.4      -301.51574      0.36237027     0.056899041    28.620114      3465.1929    
      1320   2.64           333.76245      131334.13     -807629.3      -297.02826      0.36235143     0.056055123    28.54827       3464.7794    
      1330   2.66           337.71028      131533.45     -807630.73     -296.05996      0.36233245     0.055875311    28.518617      3464.3938    
      1340   2.68           336.38078      132099.42     -807629.99     -296.57525      0.36231333     0.055975516    28.493674      3464.0314    
      1350   2.7            350.68892      133622.61     -807628.05     -300.41285      0.36229407     0.056702839    28.512784      3463.6519    
      1360   2.72           355.34327      136973.56     -807625.27     -303.74452      0.36227466     0.057334762    28.516969      3463.2691    
      1370   2.74           350.34607      139153.06     -807621.93     -306.31292      0.36225511     0.057822693    28.528703      3462.8764    
      1380   2.76           346.23028      140390.49     -807620.26     -307.34749      0.36223542     0.058021143    28.466544      3462.539     
      1390   2.78           353.41571      136955.41     -807624.48     -304.03643      0.36221558     0.057399222    28.487183      3462.1834    
      1400   2.8            341.47025      135268.02     -807625.35     -301.33102      0.3621956      0.056891604    28.540286      3461.7818    
      1410   2.82           339.93246      131870.69     -807629.33     -297.07416      0.36217548     0.056091022    28.471962      3461.4398    
      1420   2.84           349.79585      131451.39     -807631.01     -296.58288      0.36215522     0.056001395    28.4388        3461.126     
      1430   2.86           349.00779      131371.99     -807630.23     -297.0748       0.36213481     0.056097442    28.452323      3460.8002    
      1440   2.88           358.1279       134678.85     -807628.05     -300.43335      0.36211426     0.056734865    28.442167      3460.4826    
      1450   2.9            352.20465      137571.86     -807623.34     -304.25262      0.36209357     0.057459393    28.543336      3460.0799    
      1460   2.92           359.43373      140385.47     -807622.11     -306.33325      0.36207273     0.057855657    28.530135      3459.6888    
      1470   2.94           344.27934      139156.94     -807620.12     -306.09391      0.36205176     0.057813804    28.567454      3459.2676    
      1480   2.96           358.47123      137048.95     -807624.2      -303.84371      0.36203064     0.057392144    28.560268      3458.8532    
      1490   2.98           343.60092      134070.19     -807625.72     -300.1328       0.36200937     0.056694531    28.542465      3458.4541    
      1500   3              348.44822      133122.21     -807628.44     -297.97869      0.36198796     0.056290952    28.568959      3458.0344    
      1510   3.02           345.54825      131809.48     -807629.84     -9472.9308      0.36196642     0.055925983    28.457418      3457.705     
      1520   3.04           346.01738      133277.69     -807627.8      -9535.8619      0.36194472     0.056300888    28.461395      3457.3721    
      1530   3.06           343.75481      135620.27     -807624.88     -9616.2734      0.36192289     0.056779072    28.404622      3457.0842    
      1540   3.08           364.00856      137707.99     -807624.17     -9723.7741      0.36190091     0.057417295    28.426198      3456.7784    
      1550   3.1            357.17017      139333.92     -807621.08     -9787.6787      0.36187879     0.057798173    28.462329      3456.4437    
      1560   3.12           354.83801      138622.75     -807621.72     -9751.8974      0.36185653     0.05759042     28.4209        3456.141     
      1570   3.14           354.02396      138560.25     -807622.42     -9720.4104      0.36183412     0.057408027    28.343598      3455.8979    
      1580   3.16           356.66351      133460.18     -807626.94     -9585.1682      0.36181157     0.056612824    28.337208      3455.6584    
      1590   3.18           352.12879      133313.45     -807628.42     -9509.1388      0.36178888     0.056167295    28.382995      3455.3822    
      1600   3.2            350.37687      130928.86     -807629.86     -9453.5462      0.36176605     0.055842453    28.409238      3455.085     
      1610   3.22           347.96647      133815.66     -807627.3      -9521.9782      0.36174307     0.056250255    28.431865      3454.77      
      1620   3.24           365.98276      135327.8      -807627.08     -9605.7653      0.36171995     0.056748847    28.466822      3454.4284    
      1630   3.26           352.81684      138309.29     -807622.32     -9696.7268      0.36169669     0.057289913    28.506455      3454.0571    
      1640   3.28           358.73883      139275.82     -807620.81     -9768.3273      0.36167329     0.057716675    28.456932      3453.7227    
      1650   3.3            348.68339      140221.87     -807619.29     -9768.7331      0.36164974     0.057722831    28.406651      3453.4252    
      1660   3.32           354.11612      137279.71     -807622.2      -9695.1746      0.36162605     0.057291932    28.425306      3453.1133    
      1670   3.34           348.84925      134394.55     -807625.6      -9557.9161      0.36160222     0.056484549    28.428653      3452.7985    
      1680   3.36           355.84432      133340.11     -807628.36     -9496.1024      0.36157824     0.056122969    28.448016      3452.4693    
      1690   3.38           354.33531      132240.9      -807627.49     -9512.7587      0.36155413     0.05622516     28.438952      3452.1463    
      1700   3.4            361.15592      132865.88     -807627.71     -9531.7261      0.36152987     0.056341047    28.438201      3451.8236    
      1710   3.42           361.33447      135651.4      -807625.09     -9610.8504      0.36150546     0.056812577    28.409999      3451.5205    
      1720   3.44           366.69069      137800.45     -807621.85     -9734.5515      0.36148092     0.057547719    28.439534      3451.196     
      1730   3.46           354.06911      140089.16     -807617.86     -9799.8086      0.36145623     0.057937455    28.491474      3450.8348    
      1740   3.48           363.93799      139156.88     -807620.64     -9751.3809      0.3614314      0.057655106    28.438766      3450.5104    
      1750   3.5            356.46115      136343.04     -807623.45     -9625.3446      0.36140643     0.056913848    28.415643      3450.2017    
      1760   3.52           352.35737      134650.82     -807624.8      -9560.7994      0.36138131     0.056536127    28.398211      3449.9047    
      1770   3.54           356.99233      132221.93     -807627.61     -9488.2641      0.36135605     0.056111124    28.445173      3449.5747    
      1780   3.56           360.196        132066.48     -807628.5      -9471.6614      0.36133065     0.056016877    28.48966       3449.2143    
      1790   3.58           353.3974       133385.43     -807627.58     -9469.3014      0.36130511     0.056006879    28.473117      3448.8651    
      1800   3.6            377.48636      136319.38     -807625.65     -9637.9522      0.36127942     0.05700843     28.476118      3448.5138    
      1810   3.62           367.95041      139003.86     -807620.11     -9774.8895      0.3612536      0.057822547    28.445286      3448.1833    
      1820   3.64           366.0822       139213.9      -807621.35     -9728.7799      0.36122763     0.057553927    28.436801      3447.8581    
      1830   3.66           361.03191      138816.65     -807622.56     -9671.1699      0.36120151     0.057217251    28.437382      3447.5323    
      1840   3.68           351.124        137262.7      -807621.86     -9655.8128      0.36117526     0.057130548    28.428331      3447.2122    
      1850   3.7            361.36623      134685.45     -807626.45     -9557.439       0.36114886     0.056552632    28.467801      3446.8658    
      1860   3.72           346.63814      132117.92     -807628.77     -9423.9277      0.36112232     0.055766727    28.435411      3446.5405    
      1870   3.74           347.87998      133234.5      -807628.39     -9448.2872      0.36109564     0.055915007    28.422677      3446.2232    
      1880   3.76           363.28367      133352.61     -807627.51     -9553.9404      0.36106881     0.056544464    28.448971      3445.8886    
      1890   3.78           364.6006       136359.95     -807624.38     -9667.86        0.36104184     0.057222964    28.447371      3445.5548    
      1900   3.8            353.87065      137511.64     -807622.6      -9686.8936      0.36101474     0.057339928    28.388701      3445.2583    
      1910   3.82           352.48989      139031.18     -807621.07     -9737.0589      0.36098748     0.057641224    28.380334      3444.9666    
      1920   3.84           353.94848      137533.31     -807622.2      -9715.9143      0.36096009     0.057520417    28.407908      3444.6568    
      1930   3.86           353.61546      135897.04     -807624.81     -9637.6778      0.36093255     0.057061593    28.417233      3444.3406    
      1940   3.88           356.6173       132485.45     -807629.88     -9496.1833      0.36090487     0.056228162    28.488685      3443.9795    
      1950   3.9            341.45351      132709.84     -807628.78     -9469.2776      0.36087705     0.056073172    28.451238      3443.6417    
      1960   3.92           334.43224      132832.97     -807627.1      -9499.251       0.36084909     0.056255021    28.463709      3443.2961    
      1970   3.94           353.99687      133769.54     -807628.17     -9556.6873      0.36082098     0.05659957     28.463466      3442.9506    
      1980   3.96           346.8735       135319.82     -807625.49     -9614.3188      0.36079273     0.056945351    28.430482      3442.6251    
      1990   3.98           349.20852      138190.58     -807622.91     -9711.1762      0.36076434     0.057523562    28.423585      3442.3037    
      2000   4              352.68382      138115.22     -807623        -9730.1119      0.36073581     0.057640285    28.474141      3441.9513    
      2010   4.02           348.26244      138361.85     -807623.7      -302.81755      0.36070713     0.057408186    28.531073      3441.5647    
      2020   4.04           347.91126      133831.52     -807627.92     -298.56723      0.36067831     0.056606932    28.468016      3441.2162    
      2030   4.06           342.09453      132663.7      -807629.28     -296.38092      0.36064935     0.056196931    28.49356       3440.8525    
      2040   4.08           348.94459      131365.9      -807631.66     -295.05074      0.36062025     0.055949229    28.577535      3440.4393    
      2050   4.1            341.43472      133148.95     -807629.06     -296.58078      0.36059101     0.056243926    28.517248      3440.0621    
      2060   4.12           342.36476      133784.43     -807628.6      -297.1816       0.36056162     0.056362459    28.507925      3439.6907    
      2070   4.14           351.36881      136194.25     -807625.8      -301.18437      0.36053209     0.05712629     28.494808      3439.327     
      2080   4.16           349.57455      138144.89     -807622.44     -304.33455      0.36050242     0.057728543    28.52069       3438.9485    
      2090   4.18           346.22423      139004.85     -807622.18     -304.07416      0.36047261     0.057683919    28.515885      3438.5731    
      2100   4.2            337.31157      136442.92     -807623.98     -300.91624      0.36044265     0.057089596    28.485443      3438.2153    
      2110   4.22           345.87723      135382.76     -807627.32     -298.71234      0.36041256     0.056676206    28.487489      3437.8564    
      2120   4.24           351.14795      131511.35     -807630.5      -296.14779      0.36038232     0.056194335    28.524753      3437.4765    
      2130   4.26           341.30747      132204.74     -807629.77     -295.32616      0.36035193     0.056043155    28.56526       3437.0739    
      2140   4.28           344.36376      132119.23     -807630.99     -294.43655      0.36032141     0.05587907     28.50994       3436.7029    
      2150   4.3            348.12807      135323.21     -807626.16     -299.60463      0.36029075     0.056864723    28.51028       3436.332     
      2160   4.32           348.09721      136406.45     -807623.39     -302.23834      0.36025994     0.057369505    28.501291      3435.9662    
      2170   4.34           346.13435      138586.9      -807622.08     -303.00846      0.36022899     0.057520627    28.5686        3435.5633    
      2180   4.36           347.61641      137879.32     -807622.44     -302.57942      0.36019789     0.05744414     28.508226      3435.1941    
      2190   4.38           350.92345      135964.55     -807624.24     -300.95002      0.36016666     0.057139756    28.503691      3434.8276    
      2200   4.4            355.41271      134871.96     -807627.19     -298.2654       0.36013528     0.056634976    28.507476      3434.4591    
      2210   4.42           352.37168      131799.95     -807629.42     -295.30816      0.36010377     0.05607836     28.481119      3434.1052    
      2220   4.44           340.03564      133916.93     -807627.67     -294.92947      0.36007211     0.056011371    28.471814      3433.7564    
      2230   4.46           347.49542      132175.82     -807627.82     -295.54378      0.3600403      0.056132996    28.411797      3433.4401    
      2240   4.48           357.8529       136138.61     -807624.42     -299.94271      0.36000836     0.056973546    28.39428       3433.1329    
      2250   4.5            358.54438      136322.03     -807623.36     -300.88087      0.35997627     0.057156841    28.420104      3432.8115    
      2260   4.52           355.08731      140563.69     -807620.02     -303.29289      0.35994404     0.0576202      28.462719      3432.4669    
      2270   4.54           363.06416      137187.6      -807623.26     -300.92753      0.35991167     0.057175964    28.443902      3432.1324    
      2280   4.56           357.58683      138626.25     -807621.77     -301.33251      0.35987916     0.057258084    28.46174       3431.7882    
      2290   4.58           354.5302       133842.12     -807626.39     -296.12881      0.35984651     0.056274401    28.476073      3431.4364    
      2300   4.6            361.4876       133215.69     -807627.57     -295.61258      0.35981371     0.056181422    28.453748      3431.0963    
      2310   4.62           355.90829      131492.79     -807629.02     -293.32649      0.35978077     0.055752051    28.451311      3430.7574    
      2320   4.64           365.59484      134179.04     -807626.67     -296.93124      0.35974769     0.05644239     28.438201      3430.4253    
      2330   4.66           365.69777      134320.81     -807625.13     -298.54356      0.35971447     0.05675411     28.4564        3430.0835    
      2340   4.68           364.99687      138335.35     -807622.25     -301.29386      0.35968111     0.057282264    28.54242       3429.6974    
      2350   4.7            359.5151       138884.26     -807620.49     -302.31845      0.3596476      0.057482414    28.542477      3429.3117    
      2360   4.72           362.59361      139289.84     -807620.94     -302.32389      0.35961396     0.057488826    28.506046      3428.9447    
      2370   4.74           361.60129      136668.75     -807622.81     -300.35765      0.35958017     0.057120301    28.473915      3428.5942    
      2380   4.76           341.68664      135446.85     -807623.5      -296.91645      0.35954624     0.056471203    28.458544      3428.2515    
      2390   4.78           366.01549      132488.42     -807629.48     -294.36001      0.35951216     0.055990293    28.483947      3427.8958    
      2400   4.8            358.42636      131893.57     -807628.35     -294.53264      0.35947795     0.05602846     28.508118      3427.5282    
      2410   4.82           362.54832      134417.24     -807626.38     -297.1409       0.35944359     0.056530028    28.485114      3427.1721    
      2420   4.84           352.69979      134384.96     -807625.26     -297.07241      0.35940909     0.056522424    28.488605      3426.8143    
      2430   4.86           358.12108      138702.6      -807621.96     -301.09955      0.35937446     0.057294168    28.489229      3426.4564    
      2440   4.88           351.35112      137351.93     -807620.86     -301.50473      0.35933967     0.057376821    28.482751      3426.1016    
      2450   4.9            356.52066      138944.07     -807620.1      -303.02608      0.35930475     0.05767194     28.460433      3425.7578    
      2460   4.92           352.93272      134465.6      -807624.81     -298.02116      0.35926969     0.056724941    28.443585      3425.4222    
      2470   4.94           355.62027      136322.36     -807626.37     -296.8144       0.35923448     0.056500784    28.457944      3425.0795    
      2480   4.96           353.29914      132294.12     -807629.16     -293.94319      0.35919913     0.055959735    28.401157      3424.7644    
      2490   4.98           357.65639      134333.83     -807628        -295.74716      0.35916364     0.05630873     28.412147      3424.4436    
      2500   5              346.46175      132050.64     -807627.69     -294.69384      0.35912801     0.056113751    28.456378      3424.1012    
[...]
     98740   197.48         362.95082      140104.81     -807621.39     -9752.8558      0.36236891     0.05751464     30.027377      43.979117    
     98750   197.5          355.19424      135685.8      -807622.88     -9680.57        0.36238762     0.05708541     30.030167      43.629873    
     98760   197.52         359.44387      137313.89     -807622.77     -9708.3295      0.36240618     0.057246173    29.974091      43.280641    
     98770   197.54         347.08922      132174.77     -807626.82     -9534.679       0.36242459     0.056219367    30.038981      42.931402    
     98780   197.56         371.3519       134972.07     -807629.42     -9567.8564      0.36244287     0.056412147    29.992456      42.582174    
     98790   197.58         346.50284      132259.22     -807625.98     -9581.9408      0.362461       0.056492363    29.969454      42.232951    
     98800   197.6          354.45244      137517.97     -807623.11     -9718.5036      0.36247899     0.057294654    29.91511       41.883739    
     98810   197.62         356.42198      135259.29     -807625.23     -9674.6111      0.36249683     0.057033082    29.959183      41.534525    
     98820   197.64         345.67507      139133.19     -807621.36     -9757.7965      0.36251453     0.057520662    29.94196       41.185315    
     98830   197.66         352.22751      136072.49     -807623.9      -9721.9072      0.36253209     0.057306324    29.979256      40.836104    
     98840   197.68         348.24505      137993.96     -807623.04     -9739.1189      0.36254951     0.057405022    30.022259      40.48689     
     98850   197.7          343.51065      133280.81     -807627.04     -9598.8114      0.36256678     0.056575316    30.109325      40.137669    
     98860   197.72         342.31093      134096.13     -807627.62     -9579.8747      0.36258391     0.056461035    30.153369      39.788445    
     98870   197.74         340.00705      132274.69     -807627.96     -9566.6179      0.3626009      0.056380262    30.016154      39.439242    
     98880   197.76         349.97648      134311.45     -807626.74     -9654.1194      0.36261774     0.056893304    30.109338      39.090031    
     98890   197.78         351.8379       134695.14     -807627.29     -9648.9729      0.36263445     0.056860356    30.158901      38.740817    
     98900   197.8          347.15544      137045.05     -807624.57     -9715.5126      0.362651       0.057249853    30.075281      38.391617    
     98910   197.82         355.99709      136953.28     -807624.34     -9768.1264      0.36266742     0.057557281    30.1469        38.042412    
     98920   197.84         349.89048      137199.54     -807623.76     -9759.3665      0.36268369     0.057503084    30.113372      37.693214    
     98930   197.86         350.6083       135148.88     -807626.88     -9663.1189      0.36269982     0.056933453    30.100875      37.344021    
     98940   197.88         339.03873      135246.58     -807626.91     -9612.3383      0.36271581     0.056631766    30.063037      36.994836    
     98950   197.9          344.99136      134268.11     -807627.56     -9618.1303      0.36273165     0.056663415    30.008976      36.645661    
     98960   197.92         337.10059      133920.42     -807626.14     -9626.8409      0.36274735     0.056712277    29.945505      36.296496    
     98970   197.94         342.97231      133625.63     -807627.77     -9598.2802      0.36276291     0.0565416      29.94962       35.947334    
     98980   197.96         341.89011      135162.39     -807625.22     -9673.3842      0.36277832     0.056981602    29.882221      35.598183    
     98990   197.98         343.68763      136958.03     -807622.89     -9756.5179      0.36279359     0.057468886    29.899782      35.249033    
     99000   198            347.94183      137502.51     -807622.46     -9784.6707      0.36280872     0.057632311    29.967092      34.899878    
     99010   198.02         339.93855      137266.68     -807623.68     -303.35353      0.3628237      0.057174309    30.153695      34.550705    
     99020   198.04         358.17327      134501.88     -807628.25     -301.25479      0.36283855     0.056776428    30.174538      34.201534    
     99030   198.06         341.62027      134556.03     -807624.6      -302.49038      0.36285324     0.057006985    30.246804      33.852359    
     99040   198.08         358.03546      132047.68     -807628.98     -300.37656      0.3628678      0.056606346    30.236858      33.503189    
     99050   198.1          338.18422      134908.65     -807626.66     -299.70419      0.36288221     0.056477395    30.161508      33.15403     
     99060   198.12         347.30586      133446.93     -807628.19     -299.3936       0.36289648     0.056416647    30.151879      32.804875    
     99070   198.14         353.27377      137279.71     -807623.15     -305.11442      0.36291061     0.05749242     30.241667      32.455715    
     99080   198.16         343.04803      136156.29     -807621.97     -304.84703      0.36292459     0.057439823    30.15687       32.106568    
     99090   198.18         350.36043      139123.82     -807622.54     -304.93996      0.36293843     0.057455141    30.158859      31.757423    
     99100   198.2          353.11172      135146.67     -807625.68     -302.23687      0.36295213     0.056943691    30.236379      31.408275    
     99110   198.22         356.42014      138142.39     -807622.87     -305.22192      0.36296568     0.05750395     30.159259      31.059138    
     99120   198.24         346.20717      132013.07     -807626.7      -299.95536      0.36297909     0.05650964     30.150545      30.710005    
     99130   198.26         350.84065      135366.83     -807627.49     -299.48998      0.36299236     0.056419904    30.153695      30.360876    
     99140   198.28         347.82965      131912.74     -807628.73     -297.83468      0.36300548     0.056106037    30.153276      30.01175     
     99150   198.3          351.97658      135928.8      -807623.86     -303.09366      0.36301846     0.057094682    30.147467      29.662628    
     99160   198.32         360.77109      134648.6      -807625.5      -302.58325      0.3630313      0.056996519    30.066353      29.313517    
     99170   198.34         365.08852      137269.15     -807623.85     -304.60422      0.36304399     0.057375195    30.061366      28.96441     
     99180   198.36         349.45775      137053.24     -807621.01     -305.14416      0.36305655     0.057474911    29.971062      28.615314    
     99190   198.38         351.57019      138339.97     -807620.37     -305.95327      0.36306895     0.057625341    30.071581      28.266213    
     99200   198.4          355.75776      135322.52     -807623.22     -303.55631      0.36308122     0.057171949    30.122915      27.91711     
     99210   198.42         356.37095      134560.77     -807626.1      -300.57003      0.36309334     0.056607623    30.199907      27.568005    
     99220   198.44         348.01136      134051.81     -807625.46     -299.87775      0.36310532     0.056475379    30.141615      27.218907    
     99230   198.46         351.97322      133884.85     -807625.08     -300.71832      0.36311715     0.056631835    30.15943       26.869812    
     99240   198.48         355.81807      136119.94     -807624.03     -302.06727      0.36312885     0.05688404     30.082328      26.520727    
     99250   198.5          363.18684      136100.91     -807624.91     -302.07077      0.3631404      0.056882891    29.996159      26.171652    
     99260   198.52         360.22661      137954.42     -807621.71     -304.66874      0.3631518      0.057370313    30.11789       25.822571    
     99270   198.54         358.39036      137910.01     -807620.93     -305.00324      0.36316306     0.057431518    30.148095      25.47349     
     99280   198.56         368.37793      137875.55     -807622.14     -304.83905      0.36317418     0.057398845    30.157823      25.124412    
     99290   198.58         359.16184      135210        -807624.48     -301.00187      0.36318516     0.056674621    30.155486      24.775338    
     99300   198.6          360.13263      136541.65     -807624.35     -300.96994      0.36319599     0.056666918    30.154882      24.426267    
     99310   198.62         361.65496      133639.76     -807624.39     -300.92644      0.36320668     0.056657061    30.151898      24.077201    
     99320   198.64         366.47794      136076.25     -807624.77     -300.8339       0.36321723     0.056637993    30.164628      23.728136    
     99330   198.66         357.7787       134695.95     -807623.69     -300.52958      0.36322763     0.056579078    30.151764      23.379077    
     99340   198.68         367.008        137102.32     -807621.4      -303.83749      0.36323789     0.057200225    30.118106      23.030023    
     99350   198.7          371.10862      136881.38     -807620.59     -305.08559      0.36324801     0.057433591    30.085691      22.680975    
     99360   198.72         374.34678      138265.16     -807620.12     -305.77946      0.36325798     0.057562635    30.076275      22.331931    
     99370   198.74         371.7648       136858.32     -807623.14     -302.34748      0.36326781     0.056915029    30.052961      21.982892    
     99380   198.76         369.02322      137546.84     -807621.54     -303.45431      0.3632775      0.057121858    30.066309      21.633855    
     99390   198.78         363.68038      135111.18     -807623        -301.33682      0.36328704     0.056721775    30.08516       21.28482     
     99400   198.8          369.87359      136945.25     -807624.32     -300.80123      0.36329644     0.056619494    30.02624       20.935793    
     99410   198.82         362.15616      133655.23     -807625.13     -299.17728      0.3633057      0.056312384    29.893484      20.586777    
     99420   198.84         378.73646      135849.13     -807624.45     -302.26707      0.36331481     0.056892531    29.870023      20.237766    
     99430   198.86         355.56959      136973.45     -807620.68     -303.12887      0.36332378     0.057053328    29.976716      19.888752    
     99440   198.88         362.37042      137972.51     -807620.2      -304.85984      0.36333261     0.05737773     29.986039      19.539739    
     99450   198.9          358.17968      137727.17     -807621.38     -303.44458      0.36334129     0.057109999    30.069807      19.190725    
     99460   198.92         372.51413      137663.84     -807623.08     -304.14298      0.36334983     0.057240096    30.166102      18.841708    
     99470   198.94         360.89552      135864.55     -807622.42     -303.6758       0.36335823     0.05715085     30.231981      18.492691    
     99480   198.96         357.18455      135354.14     -807623.99     -301.94224      0.36336648     0.056823309    30.155873      18.143681    
     99490   198.98         358.16         133961.36     -807627.19     -299.29219      0.3633746      0.056323332    30.163026      17.794675    
     99500   199            364.43381      134417.25     -807626.56     -301.2153       0.36338256     0.056683996    30.244146      17.445668    
     99510   199.02         337.45145      135813.63     -807621.03     -9707.3522      0.36339039     0.05708538     30.06545       17.096675    
     99520   199.04         368.39712      135335.25     -807626.06     -9693.9679      0.36339807     0.057005467    30.071746      16.747684    
     99530   199.06         346.16107      136579.18     -807622.75     -9707.0732      0.3634056      0.057081348    30.045848      16.398698    
     99540   199.08         350.52645      136922.04     -807622.08     -9754.8364      0.363413       0.057361047    30.153587      16.04971     
     99550   199.1          352.98859      137089.28     -807621.85     -9778.8287      0.36342025     0.057500981    30.064793      15.700729    
     99560   199.12         362.52461      135155.36     -807626.92     -9664.4545      0.36342736     0.056827332    29.972066      15.351757    
     99570   199.14         352.0253       135500.76     -807626.64     -9629.4898      0.36343432     0.056620653    29.980582      15.002787    
     99580   199.16         345.80241      133924.47     -807625.52     -9645.2248      0.36344114     0.05671211     29.951339      14.653821    
     99590   199.18         350.68236      135309.31     -807625.16     -9682.1253      0.36344782     0.056928032    29.901056      14.304861    
     99600   199.2          343.10427      134313.87     -807626.57     -9608.7006      0.36345435     0.056495301    29.913687      13.955904    
     99610   199.22         346.93457      136524.6      -807624.9      -9682.2694      0.36346074     0.056926855    29.950217      13.606947    
     99620   199.24         339.15003      137048.32     -807621.22     -9770.9705      0.36346699     0.057447385    29.974551      13.257993    
     99630   199.26         353.31748      137366.52     -807622.73     -9788.38        0.3634731      0.057548776    29.973183      12.909042    
     99640   199.28         358.96574      135129.75     -807626.58     -9694.1397      0.36347906     0.056993775    30.042046      12.560091    
     99650   199.3          342.61989      135902        -807624.89     -9677.5625      0.36348487     0.056895403    30.080458      12.211142    
     99660   199.32         352.17409      133718.64     -807626.3      -9679.9444      0.36349055     0.056908518    30.078176      11.862196    
     99670   199.34         349.58096      134270.31     -807626.71     -9656.6194      0.36349608     0.056770527    30.102491      11.513252    
     99680   199.36         343.31945      133704.28     -807627.24     -9614.9239      0.36350147     0.056524565    30.042948      11.164315    
     99690   199.38         351.68283      134425.11     -807627.64     -9642.7912      0.36350671     0.056687574    30.029955      10.81538     
     99700   199.4          343.48891      135138.62     -807623.22     -9751.0112      0.36351181     0.057322968    30.055308      10.466448    
     99710   199.42         345.09153      136848.87     -807622.49     -9783.7167      0.36351677     0.057514449    30.027203      10.117521    
     99720   199.44         350.14463      135854.36     -807625.09     -9724.825       0.36352158     0.057167491    30.099175      9.768594     
     99730   199.46         333.84935      136878.14     -807622.57     -9733.459       0.36352625     0.057217512    30.031889      9.4196726    
     99740   199.48         346.30982      135346.36     -807625        -9714.4551      0.36353078     0.057105087    30.204678      9.0707494    
     99750   199.5          348.41002      135336.48     -807624.97     -9724.6159      0.36353516     0.057164127    30.198531      8.72183      
     99760   199.52         339.20166      134484.55     -807627.09     -9617.9965      0.3635394      0.056536727    30.195226      8.3729142    
     99770   199.54         345.63165      134720.99     -807627.66     -9627.715       0.3635435      0.056593217    30.165962      8.0240028    
     99780   199.56         346.03454      134434.91     -807626.56     -9666.6586      0.36354745     0.056821516    30.056116      7.6750975    
     99790   199.58         343.24834      136521.36     -807624.31     -9725.0652      0.36355126     0.057164236    29.971765      7.3261974    
     99800   199.6          357.20206      135461.8      -807626.65     -9714.5225      0.36355493     0.05710169     29.983326      6.9773001    
     99810   199.62         335.92263      137448.15     -807622.57     -9748.6524      0.36355845     0.057301749    30.121324      6.6284029    
     99820   199.64         340.0553       136275.61     -807623.02     -9752.2287      0.36356183     0.057322237    29.995059      6.2795117    
     99830   199.66         349.83977      136078.01     -807624.77     -9737.1795      0.36356507     0.057233271    29.958094      5.9306243    
     99840   199.68         346.54658      134830.6      -807626.87     -9653.2708      0.36356816     0.056739588    30.035776      5.5817385    
     99850   199.7          336.6226       134812.68     -807626.06     -9630.5925      0.36357111     0.056605832    29.999483      5.2328566    
     99860   199.72         348.11409      134133.02     -807627.44     -9631.4148      0.36357392     0.056610228    29.928381      4.8839788    
     99870   199.74         354.43527      134467.2      -807626.87     -9674.3926      0.36357658     0.056862421    29.947956      4.5351037    
     99880   199.76         360.02557      135005.76     -807626.94     -9691.2343      0.3635791      0.056961015    30.047714      4.1862303    
     99890   199.78         348.91003      136932.22     -807624.07     -9723.9821      0.36358148     0.057153119    30.076388      3.8373598    
     99900   199.8          355.2372       137349.87     -807623.65     -9759.9485      0.36358371     0.057364161    30.061322      3.4884927    
     99910   199.82         346.36325      136678.51     -807622.89     -9737.6132      0.3635858      0.057232556    30.046976      3.139629     
     99920   199.84         360.12381      135623.52     -807625.65     -9700.3245      0.36358775     0.057013088    30.0792        2.7907682    
     99930   199.86         342.58183      134723.41     -807624.94     -9637.7588      0.36358955     0.056645081    30.147676      2.4419101    
     99940   199.88         354.28668      135224.18     -807626.16     -9639.2661      0.36359121     0.056653681    30.070969      2.093056     
     99950   199.9          362.85737      134807.51     -807626.95     -9644.6898      0.36359273     0.056685322    30.067136      1.7442052    
     99960   199.92         354.46532      136376.92     -807624.39     -9679.7864      0.3635941      0.056891382    29.988519      1.395358     
     99970   199.94         356.88735      135919.22     -807624.55     -9679.1554      0.36359533     0.056887481    30.002331      1.0465139    
     99980   199.96         346.36918      137552.97     -807621.54     -9720.5593      0.36359641     0.057130655    30.04037       0.69767272   
     99990   199.98         353.17408      136925.67     -807621.77     -9738.5269      0.36359736     0.057236107    30.215253      0.34883457   
    100000   200            367.27365      136666.65     -807624.03     -9722.0913      0.36359816     0.057139385    30.068784      0            
Loop time of 3488.33 on 32 procs for 100000 steps with 1080 atoms

Performance: 4.954 ns/day, 4.845 hours/ns, 28.667 timesteps/s, 30.960 katom-step/s
62.5% CPU use with 32 MPI tasks x 1 OpenMP threads

MPI task timing breakdown:
Section |  min time  |  avg time  |  max time  |%varavg| %total
---------------------------------------------------------------
Pair    | 2544.8     | 2795.3     | 3109.6     | 256.4 | 80.13
Neigh   | 0.0016465  | 0.0017689  | 0.0020015  |   0.2 |  0.00
Comm    | 304.12     | 618.13     | 868.35     | 545.2 | 17.72
Output  | 2.3711     | 2.3799     | 2.3877     |   0.3 |  0.07
Modify  | 64.705     | 65.241     | 67.26      |   6.5 |  1.87
Other   |            | 7.324      |            |       |  0.21

Nlocal:          33.75 ave          39 max          26 min
Histogram: 2 0 2 3 4 5 4 3 4 5
Nghost:        1037.62 ave        1053 max        1021 min
Histogram: 1 0 3 5 6 6 5 3 0 3
Neighs:              0 ave           0 max           0 min
Histogram: 32 0 0 0 0 0 0 0 0 0
FullNghs:      5323.81 ave        6185 max        4094 min
Histogram: 2 0 4 1 4 6 3 3 4 5

Total # of neighbors = 170362
Ave neighs/atom = 157.74259
Neighbor list builds = 4
Dangerous builds = 0

Total wall time: 1:01:30
