
units		metal
atom_style	atomic

read_data ${STRUCTURE}.data
read_data BaTiO3-sc333.data
Reading data file ...
  orthogonal box = (0 0 0) to (11.898253 11.898253 12.912076)
  2 by 4 by 4 MPI processor grid
  reading atoms ...
  135 atoms
  read_data CPU = 0.308 seconds
replicate $L $L $L
replicate 2 $L $L
replicate 2 2 $L
replicate 2 2 2
Replication is creating a 2x2x2 = 8 times larger system...
  orthogonal box = (0 0 0) to (23.796507 23.796507 25.824152)
  2 by 4 by 4 MPI processor grid
  1080 atoms
  replicate CPU = 0.004 seconds

pair_style allegro
pair_coeff	* * ${MODEL}.pth Ba Ti O
pair_coeff	* * BaTiO3-E0.pth Ba Ti O
mass 1 137.3
mass 2 47.9
mass 3 15.9994

timestep 0.002
compute polarization all allegro polarization 3
compute allegro will evaluate the quantity polarization of length 3 (src/compute_allegro.cpp:53)
compute polarizability all allegro polarizability 9
compute allegro will evaluate the quantity polarizability of length 9 (src/compute_allegro.cpp:53)

thermo_style custom pe fmax fnorm spcpu cpuremain

variable efield equal 1e-2*36.36
fix born all addbornforce 0.0 0.0 ${efield}
fix born all addbornforce 0.0 0.0 0.3636

thermo 10
min_style fire
#minimize 0.0 1e-6 100 100
velocity all create ${TEMP} ${SEED} dist gaussian rot yes mom yes
velocity all create 330 ${SEED} dist gaussian rot yes mom yes
velocity all create 330 15967 dist gaussian rot yes mom yes
fix nvt all nvt temp ${TEMP} ${TEMP} $(100*dt)
fix nvt all nvt temp 330 ${TEMP} $(100*dt)
fix nvt all nvt temp 330 330 $(100*dt)
fix nvt all nvt temp 330 330 0.2000000000000000111
run 5000
Neighbor list info ...
  update: every = 1 steps, delay = 0 steps, check = yes
  max neighbors/atom: 2000, page size: 100000
  master list distance cutoff = 8
  ghost atom cutoff = 8
  binsize = 8, bins = 3 3 4
  1 neighbor lists, perpetual/occasional/extra = 1 0 0
  (1) pair allegro/kk, perpetual
      attributes: full, newton on, kokkos_device
      pair build: full/bin/kk/device
      stencil: full/bin/3d
      bin: kk/device
Per MPI rank memory allocation (min/avg/max) = 3.516 | 3.516 | 3.516 Mbytes
    PotEng          Fmax          Fnorm          S/CPU         CPULeft    
-807708.29      1.5957421      37.044452      0              0            
-807643.59      3.3590957      46.317226      2.2585384      2209.3945    
-807633.84      2.7113036      36.401602      25.868913      1198.7379    
-807606.95      3.9212359      38.442777      25.881459      861.56359    
-807603.14      4.3643801      50.87919       25.823829      692.89027    
-807564.34      4.0299943      42.299365      25.805812      591.55811    
-807601.1       3.0463483      39.703311      25.899947      523.7582     
-807644.29      4.1341545      35.557249      25.866207      475.25484    
-807684.06      2.6841352      34.661404      25.852757      438.79305    
-807664.5       3.5661403      36.236995      25.854251      410.34669    
-807651.93      3.5477995      35.943725      25.885488      387.48939    
-807659.84      2.6513692      28.455638      25.881413      368.72042    
-807627.61      3.0510226      31.325163      25.841628      353.03941    
-807582.97      3.3496996      40.452527      25.855105      339.70377    
-807568.63      3.7301446      39.004863      25.896968      328.19626    
-807631.4       3.9137352      34.258943      25.875991      318.18173    
-807652.88      4.4614552      32.278743      25.823359      309.39475    
-807662.34      3.173302       34.889976      25.814824      301.59919    
-807645.43      5.0758179      45.379854      25.867544      294.60583    
-807678.92      3.3102716      36.999884      25.800046      288.33351    
-807640.5       4.4811959      40.323152      25.797397      282.65063    
-807613.53      3.0005783      39.64592       25.869671      277.44735    
-807560.13      5.068138       46.834536      25.907839      272.66959    
-807603.86      4.5156087      49.354391      25.849476      268.29179    
-807612.69      4.2644545      39.191377      25.8316        264.25188    
-807638.62      2.9860038      35.76931       25.872994      260.49242    
-807642.46      4.5079141      44.377233      25.870989      256.99297    
-807680.71      3.4107704      38.164119      25.852789      253.72887    
-807661.14      3.2075839      35.344668      25.776999      250.68947    
-807634.26      3.0341812      33.566415      25.875248      247.809      
-807606.19      3.9000541      35.260027      25.898476      245.08936    
-807602.85      3.8136347      43.229113      25.862731      242.52835    
-807593.76      3.8555693      38.457806      25.79189       240.11877    
-807604.11      4.0215955      35.77168       25.880818      237.81287    
-807641.2       3.6041182      32.232973      25.901245      235.61571    
-807670.6       3.0009336      34.162569      25.855394      233.53113    
-807673.63      2.975936       34.515557      25.771983      231.55701    
-807641.63      3.9473932      39.67874       25.81833       229.65992    
-807647.31      3.0420621      31.895197      25.867623      227.8333     
-807619.88      3.4707389      34.827075      25.859121      226.08204    
-807597.66      3.8380232      43.826653      25.835073      224.40315    
-807566.56      4.0515105      42.291514      25.874972      222.78059    
-807621.36      3.2055691      36.55289       25.892669      221.21401    
-807648.17      3.2962178      35.88279       25.874462      219.70522    
-807670.17      2.7778715      35.296175      25.822553      218.2555     
-807640.17      5.2388541      46.65383       25.866997      216.84626    
-807665.15      2.8118132      35.621513      25.83229       215.48662    
-807644.25      3.7073178      36.738448      25.813624      214.17106    
-807621.73      3.4775258      37.294386      25.833498      212.89136    
-807562.29      4.0654555      43.831564      25.886158      211.64086    
-807597.23      4.2099871      43.507691      25.878434      210.42596    
-807620.14      3.9604123      36.565433      25.812284      209.25226    
-807650.68      2.8518814      33.276092      25.846079      208.10444    
-807639.86      4.5340879      41.989468      25.872219      206.98204    
-807669.59      2.8838053      35.769636      25.847745      205.88992    
-807664.19      2.7263647      34.933332      25.776053      204.83215    
-807640.46      3.0810622      32.349993      25.866797      203.78751    
-807599.81      3.3643997      35.937886      25.885039      202.76384    
-807594.88      3.5627342      39.201522      25.891054      201.76146    
-807601.81      3.7170805      40.315483      25.793285      200.79092    
-807614.33      3.9075286      33.373389      25.860186      199.83244    
-807635.08      3.1812029      33.248757      25.872509      198.89139    
-807660.55      4.25167        35.02967       25.849672      197.97064    
-807672.75      3.262898       36.308212      25.681575      197.0844     
-807645.81      4.390072       38.968236      25.736814      196.208      
-807631.84      3.2782847      34.855969      25.87228       195.33299    
-807613.31      4.9493526      36.693207      25.89414       194.47064    
-807600.69      4.6610863      44.911664      25.827412      193.62895    
-807576.96      4.2718503      41.696141      25.833759      192.80003    
-807610.53      3.3372697      37.223549      25.923357      191.97555    
-807643.03      4.3290578      37.756844      25.88117       191.16747    
-807669.88      2.9266041      36.948987      25.803139      190.37833    
-807646.94      4.4214014      42.467128      25.850755      189.5961     
-807649.42      3.3891509      36.862267      25.883949      188.82181    
-807640.11      3.751029       36.251016      25.872845      188.05895    
-807622.52      3.923943       38.182012      25.864891      187.3068     
-807573.32      3.5599871      41.492905      25.837456      186.56656    
-807587.83      3.9433963      40.883962      25.894252      185.83084    
-807622.63      4.4122931      34.155763      25.804534      185.11134    
-807653.92      2.8331106      33.359525      25.801544      184.40048    
-807646.11      4.7306626      38.547827      25.845286      183.69426    
-807655.17      3.6347541      36.238722      25.796547      182.99971    
-807660.23      4.1944902      34.599972      25.806571      182.31187    
-807640.8       3.2937493      34.093928      25.823806      181.62997    
-807600.48      3.4376607      37.607723      25.865708      180.95198    
-807584.28      3.8835289      40.299754      25.921817      180.27677    
-807603.33      3.6504958      40.869671      25.820491      179.61557    
-807622.93      3.131469       35.076487      25.850335      178.95854    
-807636.07      3.8945015      35.233896      25.898351      178.3043     
-807648.92      3.9458224      37.879707      25.867003      177.65824    
-807668.44      2.8199152      36.655853      25.772392      177.02442    
-807649.86      3.4208881      37.035254      25.767624      176.39632    
-807628.27      2.7365822      34.704701      25.848249      175.76807    
-807604.52      3.6017044      36.726442      25.868353      175.14369    
-807604.19      3.9869145      42.734071      25.792592      174.52928    
-807592.67      4.4679338      40.218474      25.755753      173.922      
-807614.94      3.4863985      35.81014       25.792978      173.31693    
-807637.93      4.2392023      36.99408       25.82444       172.71438    
-807665.76      3.0468667      36.647354      25.765607      172.11985    
-807654.8       4.2426424      37.96408       25.77641       171.52884    
-807645.14      3.2576006      35.89399       25.825125      170.93895    
-807632.64      3.9460816      34.983482      25.784733      170.35548    
-807622.66      3.0421564      36.922319      25.80526       169.77463    
-807590.27      3.1291232      38.679447      25.827058      169.19629    
-807588.63      3.4990382      38.952078      25.880384      168.61857    
-807621.66      3.5373647      33.608298      25.864989      168.04537    
-807655.6       3.0653734      32.956037      25.811107      167.47869    
-807654.53      3.6024666      35.275584      25.804427      166.91573    
-807648.54      3.5887205      37.262952      25.823485      166.35498    
-807654.56      2.9171528      33.455266      25.81935       165.79763    
-807639.99      3.7920125      33.12511       25.825465      165.24305    
-807610.5       3.2885502      35.202793      25.837236      164.69087    
-807579.54      3.329408       40.115016      25.852384      164.14085    
-807604.49      4.1018894      38.200634      25.823001      163.59523    
-807629.09      3.3726934      34.621733      25.759048      163.05564    
-807646.32      3.1856406      33.884808      25.853397      162.51394    
-807644.49      3.4830806      38.393616      25.82771       161.97619    
-807662.57      2.6297833      35.712606      25.811009      161.44183    
-807650.91      3.4106424      35.899886      25.751195      160.91287    
-807630.82      2.9195773      34.224094      25.810437      160.38342    
-807596.04      3.5727306      37.364027      25.822735      159.85576    
-807599.88      3.9902434      40.739872      25.82689       159.33022    
-807604.58      3.1428551      37.602521      25.726021      158.81165    
-807624.15      2.9672924      34.396656      25.818749      158.29092    
-807636.2       3.6947683      35.697246      25.858575      157.77052    
-807661.92      2.4470794      34.260352      25.817907      157.2541     
-807658.22      3.7867717      35.805667      25.755981      156.74249    
-807644.2       3.7243671      34.24439       25.817101      156.23012    
-807621.55      3.3856818      34.810641      25.873032      155.71727    
-807613.96      4.1825032      37.616601      25.826285      155.20839    
-807595.7       4.4863936      39.598091      25.80679       154.70222    
-807599.06      4.4564437      38.276694      25.828898      154.19692    
-807619.22      3.3155773      34.491207      25.827738      153.69346    
-807648.98      3.5891371      35.112584      25.832952      153.19154    
-807658.36      2.9069506      35.436924      25.758218      152.69439    
-807646.99      4.9736965      37.121736      25.724588      152.20024    
-807642.05      3.268591       34.808573      25.759321      151.70623    
-807634.2       3.183547       33.626896      25.798178      151.21221    
-807610.47      3.9823298      38.051015      25.796881      150.71979    
-807585.49      3.8705418      39.502429      25.795673      150.22892    
-807602.15      3.2961731      37.988581      25.771089      149.74048    
-807630.25      3.7679636      35.191727      25.756745      149.25401    
-807648.78      3.1578406      35.024417      25.732734      148.76984    
-807645.06      4.0437921      38.327817      25.841993      148.2829     
-807651.15      3.3291168      36.191145      25.844843      147.79725    
-807647.67      3.1432297      35.3895        25.874767      147.31186    
-807629.55      3.263408       35.109134      25.860887      146.82834    
-807593.63      3.1284895      38.319358      25.847087      146.34662    
-807592.25      3.2111337      40.205707      25.873439      145.86525    
-807610.42      3.3008996      37.199884      25.836127      145.38647    
-807631.4       3.2318559      34.359143      25.815565      144.90962    
-807636.79      3.8962992      36.370906      25.901363      144.431      
-807654.56      2.8776006      35.265965      25.853901      143.95522    
-807655.28      3.648557       36.030088      25.820346      143.48174    
-807644.33      3.8889524      34.559775      25.895891      143.00685    
-807615.91      3.7436729      35.701146      25.861882      142.53423    
-807604.64      3.5219592      37.803878      25.823229      142.06398    
-807598.85      3.6443836      39.698499      25.831261      141.59453    
-807610.85      4.5000396      36.66731       25.843439      141.12573    
-807623.77      3.8871955      34.773564      25.821259      140.65867    
-807646.77      4.2888223      34.697698      25.840785      140.19199    
-807658.13      2.7934097      35.398931      25.815877      139.72708    
-807650.33      3.6728571      36.042928      25.863498      139.26164    
-807636.18      3.9568895      34.671343      25.852141      138.79752    
-807623.85      3.6735699      35.682989      25.767253      138.33696    
-807610.97      3.7187384      37.945269      25.75713       137.87758    
-807595.81      4.6746838      39.31515       25.845417      137.41639    
-807603.72      3.9949425      37.524535      25.850083      136.95595    
-807632.31      4.2432622      34.470111      25.909181      136.49464    
-807652.45      3.1041414      34.593046      25.842273      136.03618    
-807650.3       3.4763924      35.805175      25.87776       135.57753    
-807646.06      3.1963457      35.916018      25.873416      135.11985    
-807642.4       3.5798236      34.637297      25.848842      134.66371    
-807630         3.6021988      34.49873       25.866054      134.20787    
-807602.18      3.697951       37.24974       25.868204      133.75277    
-807595.12      3.8613611      38.821358      25.845594      133.29908    
-807614.25      3.3245775      35.871984      25.850573      132.84601    
-807638.48      3.5316247      34.10447       25.839046      132.39401    
-807643.89      3.7140295      35.498896      25.882396      131.94156    
-807649.29      3.5695967      35.737724      25.869227      131.49021    
-807652.05      3.0481175      35.353531      25.884525      131.03917    
-807642.13      3.7059481      33.959644      25.818028      130.59059    
-807617.19      3.489219       35.457026      25.863339      130.14151    
-807598.76      4.4483131      38.079513      25.846238      129.69355    
-807604.29      3.8788649      38.165833      25.794432      129.24759    
-807618.98      4.2135686      36.271197      25.812922      128.80179    
-807631.79      2.8776963      34.115808      25.833614      128.35609    
-807643.51      3.0796546      35.205389      25.905974      127.9092     
-807655.22      3.0161021      35.60656       25.819308      127.46512    
-807651.83      4.0400757      34.924943      25.797486      127.02217    
-807632.68      3.4767173      34.946545      25.798281      126.57979    
-807613.63      3.5375488      36.519854      25.887918      126.13581    
-807608.48      4.1607551      38.52799       25.875426      125.69273    
-807604.33      3.7815305      39.080246      25.831708      125.25128    
-807612.78      3.6531991      36.519259      25.81732       124.81072    
-807630.31      3.7270661      35.8935        25.845869      124.37005    
-807650.44      3.9815996      35.2658        25.78458       123.93135    
-807651.24      3.1781765      36.416945      25.687413      123.49542    
-807641.05      3.3363051      36.435982      25.780244      123.05782    
-807633.65      3.9269234      35.312123      25.849355      122.61916    
-807621.19      3.6061049      36.278289      25.867606      122.1806     
-807605.3       3.3400639      38.196221      25.867381      121.74257    
-807599.55      3.7687329      39.217754      25.871971      121.30494    
-807615.76      3.9352831      36.307558      25.815374      120.86906    
-807636.5       3.5269631      36.640244      25.798671      120.43402    
-807645.47      3.2800332      36.325204      25.774948      119.99995    
-807643.5       3.5147892      37.794328      25.835992      119.56503    
-807642.74      3.8287044      36.890036      25.807264      119.13117    
-807636.36      3.4575567      35.843273      25.825222      118.69738    
-807616.92      3.6924079      37.632469      25.854779      118.26343    
-807597.88      3.4183738      39.377716      25.811014      117.83082    
-807602.28      3.6184437      38.874784      25.827668      117.39831    
-807620.45      3.5284705      36.791589      25.797318      116.96683    
-807636.71      4.3101405      35.817144      25.803311      116.53565    
-807640.65      3.6642562      37.083945      25.860607      116.10373    
-807648.64      3.3578632      36.411707      25.830221      115.67284    
-807645.63      3.681898       37.224292      25.801935      115.24291    
-807632.79      3.2914654      35.559774      25.813275      114.81314    
-807607.84      4.2644857      38.845539      25.810465      114.38382    
-807600.33      4.2219031      39.546411      25.824952      113.9546     
-807607.16      4.0192972      38.763367      25.804697      113.52615    
-807620.23      3.6225762      36.84142       25.833335      113.09753    
-807633.02      3.5338206      35.88599       25.844857      112.66907    
-807645.67      5.0284744      36.493503      25.846849      112.24094    
-807651.29      3.2223143      36.254932      25.803148      111.81399    
-807641.37      4.0739157      36.418524      25.839041      111.38673    
-807626.45      3.3924902      35.115363      25.83587       110.95988    
-807613.22      4.2756919      36.800247      25.829821      110.5335     
-807606.55      3.5136186      39.43476       25.794163      110.10809    
-807607.2       3.604341       38.407065      25.75504       109.68371    
-807620.52      3.2447164      36.582209      25.822507      109.25846    
-807638.43      3.6041997      36.516324      25.816561      108.83364    
-807649.22      2.9497976      36.40709       25.788978      108.40962    
-807645.64      3.6074943      36.937693      25.772763      107.98619    
-807637.31      4.7355835      35.869389      25.804134      107.56253    
-807631.26      3.2231096      34.576314      25.789405      107.13942    
-807616.07      4.9831351      36.97554       25.744366      106.71737    
-807602.23      3.6564636      37.879796      25.794985      106.29476    
-807608.3       3.1606597      36.824933      25.842483      105.87166    
-807626.25      2.9601848      35.229703      25.857011      105.44863    
-807644.81      2.9055641      34.392076      25.86042       105.02584    
-807644.33      3.9594796      36.347804      25.876708      104.60309    
-807646.95      3.326815       34.847713      25.853215      104.18101    
-807642.64      2.8781905      34.595045      25.854419      103.75921    
-807628.5       3.0833065      35.245271      25.791421      103.33868    
-807609.53      3.3912028      36.305771      25.795808      102.91836    
-807604.34      3.0876999      36.690371      25.83429       102.4977     
-807612.06      2.9553849      36.648698      25.85625       102.07698    
-807629.05      2.9733487      34.560522      25.820654      101.65707    
-807638.22      4.1251116      34.786194      25.835959      101.23719    
-807647.47      3.7495419      35.910124      25.862961      100.81718    
-807647.89      3.8115817      36.157493      25.854083      100.39756    
-807640.35      3.6923715      35.431247      25.828949      99.978568    
-807624.69      2.8943915      35.229509      25.858089      99.559405    
-807608.96      3.6518434      36.640565      25.836239      99.140814    
-807606.85      3.6643432      38.465411      25.81153       98.722826    
-807614.74      2.9344741      35.716695      25.789847      98.305387    
-807626.34      3.4059994      35.17971       25.792917      97.888136    
-807638.94      3.3684604      36.105864      25.771367      97.471418    
-807649.54      3.2796912      35.730105      25.762459      97.055046    
-807646.13      3.5301477      36.259111      25.72738       96.63938     
-807637.03      3.5561212      34.556716      25.756235      96.223522    
-807621.17      4.2742166      36.059172      25.815379      95.807067    
-807612.77      3.3954455      36.977355      25.783438      95.391265    
-807605.28      4.5228684      38.667673      25.816482      94.975231    
-807612.16      3.5232377      36.886684      25.837111      94.559139    
-807629.68      3.5614923      34.95766       25.87732       94.142737    
-807643.38      4.0110593      35.516406      25.772573      93.72793     
-807646.15      3.3997775      36.412125      25.800056      93.312965    
-807641.21      3.2630456      36.838135      25.808488      92.898095    
-807633.62      2.9876984      35.976866      25.802381      92.483506    
-807623.52      3.7714386      36.431335      25.836304      92.068686    
-807607.17      2.9819947      38.015583      25.837973      91.65405     
-807602.35      3.3054654      38.984245      25.831233      91.239699    
-807615         2.8668999      36.521453      25.837484      90.825471    
-807631.72      3.1633646      36.147445      25.783577      90.412102    
-807641.62      3.6657593      36.46256       25.752918      89.999292    
-807643.18      3.6988267      37.524269      25.776169      89.586378    
-807642.41      4.8364741      36.985582      25.806222      89.173283    
-807635.49      3.7632662      35.250534      25.836164      88.760015    
-807620.57      3.4113522      36.542964      25.799113      88.347371    
-807605.02      3.6631425      38.522105      25.769929      87.935247    
-807607.53      3.3808715      37.801125      25.813378      87.52279     
-807617.17      3.4950996      36.336687      25.839377      87.11021     
-807631.98      3.5440138      35.180705      25.80819       86.698167    
-807640.71      3.7384111      35.867099      25.793289      86.286464    
-807647.53      3.4632814      34.93613       25.799694      85.874858    
-807645.63      3.2929968      34.707471      25.795817      85.463461    
-807635.21      2.8992872      34.349073      25.822088      85.05194     
-807617.4       3.581781       35.529108      25.850414      84.640277    
-807609.64      3.0168288      37.095304      25.831386      84.228991    
-807607.82      3.7167751      36.985441      25.84907       83.817681    
-807619.38      3.0247747      35.533913      25.833381      83.406705    
-807631.32      3.0888157      34.658882      25.875688      82.995446    
-807644.7       4.3564228      34.543383      25.829783      82.584836    
-807647.42      3.180371       35.247741      25.836957      82.174311    
-807642.87      4.4308754      34.618144      25.801563      81.764311    
-807632.31      4.0849077      33.713456      25.869811      81.353762    
-807619.28      5.1506565      34.514495      25.873486      80.943337    
-807610.78      3.3910142      35.991084      25.850484      80.533304    
-807609.67      4.0766497      36.151954      25.866904      80.123262    
-807619.73      3.0803869      34.757448      25.858468      79.713459    
-807635.62      3.7350022      34.321751      25.821534      79.304171    
-807645.5       3.3030629      35.299818      25.783387      78.895401    
-807643.94      3.3435556      35.948615      25.79723       78.486635    
-807638.88      3.348295       35.611612      25.86234       78.077383    
-807630.74      3.6199221      34.740956      25.812801      77.668749    
-807620.58      3.1413937      35.017583      25.735782      77.260983    
-807607.21      3.1586259      36.213364      25.657636      76.854079    
-807608.84      3.4064948      36.579087      25.778475      76.446156    
-807622.93      2.7406035      33.920851      25.803836      76.038129    
-807641.11      2.7227825      32.901959      25.803395      75.630238    
-807641.76      2.9077365      34.611326      25.835651      75.222185    
-807644.8       2.901731       34.584861      25.887595      74.813804    
-807640.04      3.2636264      35.208996      25.84663       74.405925    
-807632.55      2.8324296      34.280049      25.832347      73.998305    
-807613.03      3.0434332      35.623631      25.866774      73.590515    
-807606.05      3.3857481      37.288506      25.916727      73.182428    
-807611.55      3.4088207      36.628901      25.882134      72.774776    
-807626.07      3.4067006      35.500165      25.813634      72.36784     
-807633.52      3.847686       35.236049      25.8495        71.960723    
-807642.88      3.693446       35.05503       25.865895      71.553596    
-807646.44      3.8718044      35.584164      25.907235      71.146255    
-807639.18      3.9168492      34.727713      25.90559       70.73906     
-807627.86      2.7185794      34.08122       25.874426      70.332249    
-807612.48      2.7440973      35.589723      25.884398      69.925481    
-807608.76      3.295622       36.679373      25.896538      69.518744    
-807612.97      3.0555408      34.942129      25.914517      69.11199     
-807623.3       3.2927642      34.827178      25.828991      68.706033    
-807635.17      3.8753185      34.797667      25.81476       68.300301    
-807645.72      4.2894345      35.322379      25.852328      67.894391    
-807642.37      2.9885305      35.449803      25.801302      67.488987    
-807637.38      3.7146369      35.52415       25.803627      67.083672    
-807623.87      3.3184198      35.902509      25.789057      66.678574    
-807615.34      4.4734714      36.862331      25.797885      66.273514    
-807607.05      3.2172685      36.630607      25.863484      65.868074    
-807610.95      3.589921       36.747066      25.810837      65.463131    
-807624.87      3.2279903      35.321988      25.837288      65.058099    
-807638.75      4.3044472      34.636912      25.834006      64.653197    
-807643.05      3.1421423      34.703575      25.86948       64.248149    
-807643.22      2.839398       34.572846      25.841895      63.843403    
-807636.98      3.469654       34.136994      25.83031       63.438843    
-807629.05      3.2072297      33.428796      25.876497      63.034066    
-807612.41      3.3077224      35.392058      25.924155      62.62907     
-807608.96      2.9790948      36.186098      25.935321      62.22411     
-807616.3       3.4923811      34.246701      25.824929      61.820004    
-807629.61      2.5768184      33.793108      25.82949       61.415965    
-807638.95      4.1477857      33.70793       25.836971      61.011973    
-807644.86      3.1682609      34.301986      25.819387      60.608194    
-807642.5       3.5265506      34.498953      25.803083      60.204616    
-807636.74      3.3225711      34.09973       25.806753      59.801105    
-807624.53      3.8125912      35.136486      25.849574      59.397413    
-807613.22      3.3174471      35.561192      25.906546      58.99346     
-807610.83      3.2457625      36.244431      25.923531      58.589502    
-807619.38      3.4868243      34.541384      25.88153       58.185906    
-807629.3       3.5525661      34.251431      25.910784      57.782228    
-807639.95      2.543521       34.095146      25.943099      57.378456    
-807645.2       3.0965523      34.219311      25.971889      56.974615    
-807641.16      2.923352       34.027455      25.960705      56.570945    
-807637.48      3.8760755      33.812277      25.913959      56.16765     
-807621.84      3.5748301      34.940529      25.848725      55.764832    
-807614.81      3.5616395      35.654986      25.85491       55.362065    
-807608.41      3.4996722      36.804254      25.836938      54.95949     
-807619.73      2.9018654      35.392663      25.814988      54.557125    
-807628.23      3.7622111      34.816752      25.833512      54.154738    
-807640.94      3.0769103      33.884928      25.829047      53.75246     
-807643.25      4.1217778      35.105703      25.8511        53.350143    
-807643.67      3.171764       34.27126       25.859729      52.947864    
-807632.09      3.3870746      33.989261      25.854956      52.545696    
-807624.16      3.1342196      34.580799      25.939325      52.143164    
-807611.64      3.509773       35.913132      25.841918      51.741234    
-807609.61      3.6309069      36.651972      25.845072      51.339369    
-807620.25      3.8514807      34.870874      25.806376      50.937784    
-807632.23      3.1413517      35.080504      25.783275      50.536393    
-807638.36      3.3897085      35.478752      25.803534      50.134971    
-807643.54      2.8510097      35.550291      25.819536      49.733544    
-807638.73      3.5617573      35.646419      25.788486      49.332345    
-807633.63      3.8905973      35.034017      25.808525      48.931119    
-807619.93      3.8885632      36.459899      25.806785      48.529975    
-807610.62      3.9526169      36.391358      25.898964      48.128462    
-807611.6       3.3154362      35.833062      25.880677      47.727117    
-807621.16      2.9713544      35.12077       25.895655      47.32578     
-807631.34      2.9027414      35.09996       25.942744      46.924306    
-807638.15      3.7544454      34.557283      25.922008      46.52301     
-807642.07      3.0115202      34.982399      25.874222      46.12201     
-807640.41      3.3515034      34.991773      25.913938      45.720908    
-807631.92      2.871029       35.210191      25.873858      45.320062    
-807617.92      3.2811         35.43036       25.869262      44.91931     
-807613.13      2.9581568      36.401124      25.886694      44.518556    
-807610.69      3.609271       37.563667      25.862365      44.11798     
-807621.34      4.2353177      36.330905      25.852036      43.717519    
-807630.84      3.821965       35.138279      25.869875      43.317053    
-807640.97      3.7516673      34.872403      25.806011      42.916923    
-807640.72      3.3011707      36.223881      25.85375       42.516661    
-807640.67      2.6805305      34.630185      25.872572      42.116392    
-807628.97      3.3631172      34.62064       25.835458      41.71634     
-807618.97      3.3598755      35.431653      25.862847      41.316246    
-807609.68      3.8029608      36.997732      25.930998      40.915957    
-807613.32      3.5942717      36.624492      25.921252      40.515778    
-807619.86      3.9221935      36.156863      25.917151      40.115687    
-807634.75      4.2007758      34.203372      25.866164      39.715857    
-807641.26      3.1062441      34.959086      25.906914      39.315943    
-807642.55      4.4351779      35.54053       25.86744       38.916241    
-807637.04      2.898578       34.931798      25.806601      38.516825    
-807629.43      3.4159871      34.463792      25.85332       38.1173      
-807620.53      3.2329432      35.058738      25.901229      37.717671    
-807611.18      3.5023346      36.27488       25.88573       37.318162    
-807613.55      3.8343433      36.607945      25.893721      36.918691    
-807623.12      2.9571227      35.622467      25.889558      36.519299    
-807635.12      3.6294492      35.469857      25.833323      36.120158    
-807640.15      3.2425949      35.387151      25.875887      35.720936    
-807641.61      3.1820353      35.55862       25.79661       35.322033    
-807636         3.8510067      35.385817      25.837626      34.923054    
-807630.13      4.2224421      35.00711       25.802718      34.524243    
-807617.05      4.2209556      36.325566      25.83626       34.125381    
-807613.4       5.1649079      36.918981      25.860609      33.726502    
-807614.29      3.6049298      36.57595       25.826711      33.327784    
-807626.88      5.1034408      35.000163      25.817281      32.929149    
-807635.78      3.5372859      34.510102      25.79391       32.530638    
-807642.25      5.9021446      35.372198      25.803383      32.13215     
-807641.46      3.27421        35.142578      25.829996      31.733638    
-807636.33      4.4879534      35.362879      25.874634      31.335055    
-807627.75      3.2104649      34.648093      25.887438      30.936495    
-807619.17      2.9620609      35.469773      25.854408      30.538081    
-807611.47      3.0125844      36.712156      25.905414      30.139587    
-807620.41      3.3730346      35.453585      25.897093      29.741173    
-807628         3.2767286      35.04324       25.915453      29.342769    
-807636.76      3.712902       35.392894      25.954477      28.944324    
-807642.63      2.978655       35.100823      25.933867      28.545993    
-807640.61      3.3945509      35.427185      25.925007      28.147743    
-807635.51      2.9541983      34.686652      25.915899      27.749573    
-807626.08      2.8845122      34.745254      25.867954      27.351574    
-807619.17      3.2046921      36.245277      25.876537      26.953608    
-807613.44      2.7598495      35.905464      25.847995      26.555762    
-807621.72      3.1208262      35.131356      25.885327      26.157881    
-807626.67      2.8480095      35.929388      25.81999       25.7602      
-807639.09      3.4898478      34.745803      25.85325       25.362493    
-807639.57      2.9178713      35.698012      25.814623      24.964919    
-807639.71      3.0416243      35.081985      25.780933      24.567464    
-807633.45      3.4529075      35.365141      25.80436       24.170003    
-807625.25      3.6610215      35.954845      25.827759      23.772539    
-807615.93      3.5825745      35.652387      25.825253      23.375127    
-807614.98      3.3317768      36.374268      25.776167      22.977858    
-807619.36      2.6714912      35.823783      25.786886      22.580611    
-807630.4       3.3406531      34.524922      25.782029      22.183415    
-807637.14      3.4575299      34.148114      25.755839      21.78631     
-807639.42      2.8109523      35.257374      25.819255      21.389128    
-807638.31      3.1051744      35.315119      25.891913      20.991863    
-807631.84      3.3070614      35.198599      25.863748      20.594695    
-807623.72      4.4503336      36.178962      25.871385      20.197562    
-807615.6       3.3060222      36.674951      25.779852      19.800627    
-807613.07      4.0303218      37.114016      25.720681      19.40383     
-807620.81      2.9197177      35.395816      25.778714      19.006976    
-807628.8       2.7648388      34.924542      25.80795       18.610115    
-807636.3       3.0744609      34.714288      25.823804      18.213272    
-807638.29      3.4911067      34.376139      25.801932      17.816503    
-807638.1       2.6298158      34.33862       25.749364      17.419851    
-807632.57      2.9598615      34.218644      25.828682      17.023123    
-807623.08      2.9271407      34.873667      25.799891      16.626476    
-807616.02      2.8227597      34.815392      25.803062      16.229865    
-807613.85      3.4683049      36.27366       25.795513      15.833303    
-807621.96      3.3074071      35.328663      25.829516      15.436736    
-807630.88      3.3055188      34.93339       25.758022      15.040298    
-807634.15      3.4948075      35.885737      25.815544      14.643827    
-807638.5       3.2512371      35.111027      25.801123      14.247412    
-807636.94      4.2699626      35.509234      25.826953      13.851005    
-807630.99      2.9191668      34.948003      25.834582      13.45463     
-807620.58      5.213421       36.297419      25.856107      13.058272    
-807616.57      3.1047778      35.901276      25.838666      12.661973    
-807617         3.5489798      36.855357      25.811109      12.26574     
-807621.37      3.4252742      36.171508      25.803416      11.869553    
-807629.18      3.0794391      35.474809      25.821159      11.473385    
-807636.24      3.2317155      35.507806      25.836516      11.077242    
-807638.4       3.077348       35.890877      25.891038      10.681091    
-807635.63      3.299669       35.782481      25.809574      10.285048    
-807629.83      3.3680233      34.855076      25.865669      9.8889976    
-807622         2.8414275      35.450724      25.826548      9.4930161    
-807618.09      3.881194       35.561655      25.746317      9.0971296    
-807616.98      3.2597885      35.415015      25.762976      8.7012629    
-807625.22      4.0539863      34.615586      25.801667      8.3054028    
-807632.6       3.1861976      34.484671      25.779225      7.9095914    
-807637.38      3.6302481      34.606529      25.793998      7.513804     
-807637.95      3.5069852      34.519618      25.755422      7.1180719    
-807637.42      3.1512444      33.78767       25.78703       6.722354     
-807631.65      4.0024158      34.661689      25.843698      6.3266407    
-807623.03      3.082441       34.623085      25.887953      5.9309431    
-807618.94      3.5945317      35.212118      25.817123      5.5353148    
-807618.58      4.2319468      35.835036      25.754252      5.1397458    
-807624.89      3.7174185      35.174322      25.770309      4.7442007    
-807633.38      3.9758052      34.75621       25.747847      4.3486939    
-807637.26      4.680606       35.203579      25.779306      3.9532065    
-807639.17      3.4585857      34.643284      25.846009      3.5577316    
-807634.86      4.8773726      35.721771      25.872901      3.1622851    
-807631.1       3.7954768      33.499607      25.836555      2.7668825    
-807621.65      3.551116       35.348397      25.827235      2.3715154    
-807618.47      3.1621998      35.326597      25.825404      1.9761817    
-807619.5       3.5536248      35.280185      25.810255      1.5808825    
-807625.51      2.7255973      34.653901      25.823131      1.1856137    
-807631.88      3.6851821      34.881191      25.885301      0.79037348   
-807635.77      3.3302703      35.549711      25.918068      0.39516799   
-807637.59      3.8952386      35.203211      25.882887      0            
Loop time of 197.575 on 32 procs for 5000 steps with 1080 atoms

Performance: 4.373 ns/day, 5.488 hours/ns, 25.307 timesteps/s, 27.331 katom-step/s
67.3% CPU use with 32 MPI tasks x 1 OpenMP threads

MPI task timing breakdown:
Section |  min time  |  avg time  |  max time  |%varavg| %total
---------------------------------------------------------------
Pair    | 100.62     | 144.71     | 193.33     | 306.9 | 73.24
Neigh   | 0          | 0          | 0          |   0.0 |  0.00
Comm    | 1.685      | 50.294     | 94.386     | 520.6 | 25.46
Output  | 0.030271   | 0.031442   | 0.032725   |   0.4 |  0.02
Modify  | 2.1927     | 2.2144     | 2.2433     |   1.0 |  1.12
Other   |            | 0.325      |            |       |  0.16

Nlocal:          33.75 ave          48 max          21 min
Histogram: 8 8 0 0 0 0 0 8 0 8
Nghost:        1106.25 ave        1119 max        1092 min
Histogram: 8 0 8 0 0 0 0 0 8 8
Neighs:              0 ave           0 max           0 min
Histogram: 32 0 0 0 0 0 0 0 0 0
FullNghs:       5494.5 ave        7896 max        3378 min
Histogram: 8 8 0 0 0 0 0 8 0 8

Total # of neighbors = 175824
Ave neighs/atom = 162.8
Neighbor list builds = 0
Dangerous builds = 0

reset_timestep 0


variable interval equal 1000
thermo 10

variable nintervals equal $(v_PERIOD/v_interval)
variable nintervals equal 100
variable efield equal 1e-2*36.36*cos((step/${PERIOD})*2*3.14)
variable efield equal 1e-2*36.36*cos((step/100000)*2*3.14)
fix born all addbornforce 0.0 0.0 v_efield

variable Px equal f_born[1]+c_polarization[1]
variable Py equal f_born[2]+c_polarization[2]
variable Pz equal (f_born[3]+c_polarization[3])/vol
variable pe equal pe

fix aveP all ave/time 1 $(v_interval/2) ${interval} v_efield v_Pz v_pe f_born file Pz.${MODEL}.${STRUCTURE}.${TEMP}.$L.${ITER}
fix aveP all ave/time 1 500 ${interval} v_efield v_Pz v_pe f_born file Pz.${MODEL}.${STRUCTURE}.${TEMP}.$L.${ITER}
fix aveP all ave/time 1 500 1000 v_efield v_Pz v_pe f_born file Pz.${MODEL}.${STRUCTURE}.${TEMP}.$L.${ITER}
fix aveP all ave/time 1 500 1000 v_efield v_Pz v_pe f_born file Pz.BaTiO3-E0.${STRUCTURE}.${TEMP}.$L.${ITER}
fix aveP all ave/time 1 500 1000 v_efield v_Pz v_pe f_born file Pz.BaTiO3-E0.BaTiO3-sc333.${TEMP}.$L.${ITER}
fix aveP all ave/time 1 500 1000 v_efield v_Pz v_pe f_born file Pz.BaTiO3-E0.BaTiO3-sc333.330.$L.${ITER}
fix aveP all ave/time 1 500 1000 v_efield v_Pz v_pe f_born file Pz.BaTiO3-E0.BaTiO3-sc333.330.2.${ITER}
fix aveP all ave/time 1 500 1000 v_efield v_Pz v_pe f_born file Pz.BaTiO3-E0.BaTiO3-sc333.330.2.5

thermo_style custom step time temp press pe f_born v_efield v_Pz spcpu cpuremain

# dump 4a all custom 1000 dump.hyst.${MODEL}.${STRUCTURE}.${TEMP}.$L.${ITER}.bin id type xu yu zu fx fy fz
# dump_modify 4a sort id

fix nvt all nvt temp ${TEMP} ${TEMP} $(100*dt)
fix nvt all nvt temp 330 ${TEMP} $(100*dt)
fix nvt all nvt temp 330 330 $(100*dt)
fix nvt all nvt temp 330 330 0.2000000000000000111

run $(v_PERIOD)
run 100000
WARNING: non-constant efield is experimental, strongly distrust scalar/vector output (src/fix_addbornforce.cpp:193)
Per MPI rank memory allocation (min/avg/max) = 3.516 | 3.516 | 3.516 Mbytes
   Step          Time           Temp          Press          PotEng         f_born        v_efield         v_Pz          S/CPU         CPULeft    
         0   0              312.99892      127866.48     -807637.58     -292.46525      0.3636         0.055004461    0              0            
        10   0.02           316.03771      129293.77     -807634.7      -295.82957      0.36359993     0.055637206    27.952495      3577.1593    
        20   0.04           329.96637      135322.37     -807628.13     -304.30698      0.36359971     0.057231601    27.974302      3575.398     
        30   0.06           327.95337      139430.47     -807621.85     -310.27005      0.36359935     0.058353146    27.957134      3575.3362    
        40   0.08           331.1584       142540.85     -807618.87     -313.57765      0.36359885     0.058975295    27.887136      3577.322     
        50   0.1            332.56945      141211.69     -807621.11     -311.49568      0.36359821     0.058583838    27.861181      3579.0571    
        60   0.12           328.14257      137151.56     -807625.28     -306.60908      0.36359742     0.057664925    27.915066      3578.9401    
        70   0.14           329.66328      130647.43     -807632.71     -299.27149      0.36359649     0.056285068    27.956583      3577.9948    
        80   0.16           315.18183      127495.82     -807637.15     -292.64799      0.36359541     0.055039523    27.953362      3577.2477    
        90   0.18           316.91203      127174.83     -807636.65     -293.28865      0.36359419     0.055160201    27.954361      3576.5736    
       100   0.2            322.07356      130633.21     -807632.91     -297.65783      0.36359283     0.055982143    27.948441      3576.038     
       110   0.22           332.35015      136007.51     -807627.01     -304.7427       0.36359132     0.057314871    27.946537      3575.5564    
       120   0.24           336.39917      139664.69     -807622.31     -309.83272      0.36358968     0.058272447    27.912552      3575.4584    
       130   0.26           324.47854      142792.81     -807616.7      -313.51617      0.36358788     0.058965509    27.967062      3574.7839    
       140   0.28           335.11433      140614.66     -807619.92     -311.47336      0.36358595     0.058581615    27.987086      3573.9724    
       150   0.3            341.7698       135142.05     -807626.71     -305.27751      0.36358387     0.057416634    27.963129      3573.4253    
       160   0.32           333.67565      130376.01     -807632.42     -298.14049      0.36358165     0.056074644    27.921794      3573.2318    
       170   0.34           333.01284      127765.94     -807636.62     -293.52486      0.36357928     0.055206889    28.004285      3572.3994    
       180   0.36           333.59181      128704.76     -807635.87     -294.08585      0.36357677     0.055312785    27.906986      3572.3107    
       190   0.38           339.34411      131250.12     -807632.29     -298.24733      0.36357412     0.056095901    27.845912      3572.606     
       200   0.4            330.95617      136555.75     -807624.68     -304.48122      0.36357132     0.057268844    27.876125      3572.6421    
       210   0.42           344.30999      141482.91     -807619.74     -311.04835      0.36356838     0.058504505    27.763016      3573.3349    
       220   0.44           332.14713      143581.86     -807616.3      -312.61232      0.3635653      0.058799169    27.864679      3573.3359    
       230   0.46           336.04274      141255.49     -807619.86     -309.43248      0.36356207     0.058201589    27.731419      3574.0538    
       240   0.48           347.6738       135415.68     -807627.17     -303.61409      0.3635587      0.05710773     27.849812      3574.0445    
       250   0.5            341.94668      131184.46     -807631.91     -297.91534      0.36355519     0.056036376    27.849671      3574.008     
       260   0.52           325.64753      128190.44     -807633.77     -293.7253       0.36355153     0.055248805    27.883796      3573.7781    
       270   0.54           333.4427       128916.53     -807635.25     -293.30442      0.36354773     0.055170215    27.941394      3573.2656    
       280   0.56           342.05714      131897.98     -807630.85     -298.92736      0.36354379     0.056228495    27.954143      3572.706     
       290   0.58           335.69205      137992.96     -807621.54     -307.44372      0.3635397      0.057831078    28.522176      3569.7108    
       300   0.6            344.88326      141432.47     -807618.93     -311.4063       0.36353547     0.058577134    28.460793      3567.1433    
       310   0.62           334.34292      142399.94     -807617.3      -311.59876      0.3635311      0.058614041    28.448974      3564.7655    
       320   0.64           348.89606      139823.51     -807622.34     -308.68105      0.36352658     0.058065921    28.45517       3562.4906    
       330   0.66           342.74583      135749.93     -807625.72     -304.54229      0.36352192     0.057288113    28.442514      3560.3795    
       340   0.68           331.16509      131057.33     -807631.84     -296.868        0.36351712     0.055845224    28.453785      3558.3311    
       350   0.7            330.50798      128452.46     -807635.71     -292.99072      0.36351217     0.055116602    28.488489      3556.2577    
       360   0.72           325.55902      129620.08     -807632.66     -295.42215      0.36350708     0.055574773    28.529644      3554.1399    
       370   0.74           338.72389      132154.68     -807629.24     -300.84111      0.36350185     0.056595001    28.510721      3552.1803    
       380   0.76           343.60946      137684.19     -807623.92     -306.9161       0.36349647     0.057738698    28.577116      3550.0918    
       390   0.78           336.83353      141171.37     -807619.55     -310.48464      0.36349095     0.058410919    28.565075      3548.13      
       400   0.8            332.84151      142138.31     -807617.49     -312.04672      0.36348529     0.058705705    28.554194      3546.2821    
       410   0.82           339.83505      138568.37     -807622.09     -308.54059      0.36347948     0.058047019    28.452377      3544.8116    
       420   0.84           334.63579      133576.66     -807628.16     -301.83661      0.36347353     0.056786701    28.436888      3543.4398    
       430   0.86           333.00454      129765.22     -807634.01     -295.8718       0.36346744     0.055665432    28.500761      3541.933     
       440   0.88           317.50234      128917.98     -807633.97     -293.79878      0.3634612      0.055276362    28.521994      3540.4195    
       450   0.9            338.88761      129375.84     -807634.59     -296.27083      0.36345482     0.055742441    28.498696      3539.0212    
       460   0.92           339.58144      133240.68     -807629.76     -301.36265      0.3634483      0.056701469    28.459769      3537.7723    
       470   0.94           336.67972      138632.02     -807623.45     -307.38877      0.36344163     0.057836346    28.459763      3536.5616    
       480   0.96           327.39688      141979.94     -807618.58     -311.07873      0.36343482     0.058531723    28.514082      3535.2479    
       490   0.98           326.56345      142029.43     -807618.05     -311.62622      0.36342786     0.058635858    28.508671      3533.9871    
       500   1              335.33079      137798.01     -807624.15     -306.8451       0.36342077     0.057737367    28.500035      3532.7838    
       510   1.02           333.18096      133721.76     -807630        -9623.9882      0.36341353     0.056591543    28.391928      3531.8745    
       520   1.04           332.91213      128869.15     -807634.67     -9476.954       0.36340614     0.055728076    28.437695      3530.8783    
       530   1.06           319.57542      128799.74     -807634.49     -9425.7815      0.36339862     0.05542831     28.413491      3529.9626    
       540   1.08           329.33729      129353.48     -807634.55     -9471.5667      0.36339095     0.055698725    28.455419      3528.9722    
       550   1.1            331.39555      134929.92     -807629.02     -9661.1572      0.36338313     0.056814858    28.394479      3528.1415    
       560   1.12           342.91745      138830.72     -807624.52     -9861.6682      0.36337518     0.057995283    28.403869      3527.3072    
       570   1.14           324.39167      141078.72     -807618.61     -9971.9476      0.36336707     0.05864513     28.393747      3526.5116    
       580   1.16           319.99838      141036.24     -807619.6      -9922.4457      0.36335883     0.058355333    28.389998      3525.7394    
       590   1.18           333.51337      137298.5      -807625.77     -9789.048       0.36335044     0.05757213     28.363093      3525.0377    
       600   1.2            328.4163       133003.49     -807629.43     -9651.0296      0.36334191     0.056761738    28.394158      3524.2837    
       610   1.22           323.06034      130177.78     -807634.23     -9474.8742      0.36333324     0.055727025    28.419717      3523.4913    
       620   1.24           327.45315      128804.84     -807636.72     -9415.839       0.36332442     0.05538115     28.365863      3522.8202    
       630   1.26           319.21267      130705.04     -807632.71     -9510.6186      0.36331546     0.055939995    28.355302      3522.1799    
       640   1.28           330.46264      134090.36     -807628.26     -9706.864       0.36330636     0.057095711    28.384004      3521.4932    
       650   1.3            333.72933      138737.05     -807623        -9892.1569      0.36329711     0.058187083    28.424552      3520.74      
       660   1.32           325.46719      141031.84     -807621.17     -9914.8585      0.36328772     0.058322125    28.411641      3520.023     
       670   1.34           319.98046      140701.57     -807620.59     -9910.9173      0.36327819     0.058300471    28.361385      3519.4094    
       680   1.36           327.04289      136688.62     -807624.6      -9816.5388      0.36326851     0.057746833    28.371293      3518.7856    
       690   1.38           336.53187      132320.45     -807631.41     -9640.3468      0.36325869     0.056711897    28.380302      3518.1534    
       700   1.4            312.5235       129448.52     -807634.54     -9434.2701      0.36324873     0.055501119    28.358049      3517.5684    
       710   1.42           318.15688      129553.09     -807635.15     -9439.1806      0.36323863     0.055531552    28.354393      3516.9963    
       720   1.44           321.74532      130560.46     -807632.33     -9548.9736      0.36322838     0.056179059    28.326676      3516.478     
       730   1.46           333.38753      135750.63     -807629.18     -9702.1111      0.36321798     0.05708164     28.404399      3515.8328    
       740   1.48           326.2049       137559.34     -807624.89     -9809.5223      0.36320745     0.057715259    28.429942      3515.1531    
       750   1.5            315.88994      140700.16     -807619.43     -9934.1714      0.36319677     0.058450363    28.400308      3514.5307    
       760   1.52           333.71969      138460.36     -807623.63     -9880.5275      0.36318595     0.058136467    28.410706      3513.8986    
       770   1.54           326.34719      136773.06     -807626.02     -9768.2385      0.36317498     0.057477501    28.396366      3513.2967    
       780   1.56           333.30577      130555.96     -807633.39     -9562.724       0.36316387     0.056269949    28.425297      3512.6556    
       790   1.58           330.83623      129841.09     -807634.89     -9499.0372      0.36315262     0.055896929    28.447142      3511.9879    
       800   1.6            316.00855      128508.48     -807634.19     -9453.3062      0.36314122     0.055629571    28.45487       3511.3162    
       810   1.62           333.53312      132006.33     -807632.51     -9580.8046      0.36312968     0.056381649    28.50013       3510.5842    
       820   1.64           319.79015      134457.85     -807626.43     -9713.0696      0.363118       0.057161848    28.441932      3509.9482    
       830   1.66           328.46681      139805.58     -807622.53     -9867.8716      0.36310618     0.058074756    28.417139      3509.3558    
       840   1.68           320.89699      139349.74     -807620.17     -9906.059       0.36309421     0.058301419    28.412606      3508.7757    
       850   1.7            338.12352      139301.65     -807623.07     -9878.7657      0.3630821      0.058142726    28.392784      3508.2296    
       860   1.72           335.46659      134398        -807627.85     -9707.9004      0.36306984     0.057139005    28.415887      3507.6551    
       870   1.74           330.96521      133060.92     -807630.34     -9599.768       0.36305745     0.056504486    28.381179      3507.1347    
       880   1.76           324.28287      129828.73     -807634.04     -9445.7479      0.3630449      0.05559984     28.349256      3506.6628    
       890   1.78           325.7719       130219.04     -807633.27     -9469.9601      0.36303222     0.055744307    28.362464      3506.1753    
       900   1.8            330.80899      131767.38     -807631.14     -9554.1527      0.36301939     0.056241888    28.369607      3505.681     
       910   1.82           329.62815      136145.21     -807625.1      -9735.3492      0.36300642     0.057310575    28.401869      3505.1462    
       920   1.84           338.88953      138878.13     -807622.26     -9860.6141      0.36299331     0.058050088    28.442723      3504.561     
       930   1.86           341.26723      140970.79     -807621.94     -9875.2151      0.36298005     0.058138168    28.415577      3504.0165    
       940   1.88           342.78133      139521.31     -807622.95     -9844.6909      0.36296665     0.057960604    28.394485      3503.5037    
       950   1.9            337.3756       135940.73     -807626.11     -9714.5106      0.36295311     0.057196301    28.427622      3502.9515    
       960   1.92           336.64266      132604.36     -807630.06     -9577.8978      0.36293942     0.05639409     28.449476      3502.3755    
       970   1.94           322.65299      129940.13     -807633.07     -9414.8174      0.36292559     0.055435995    28.430298      3501.8284    
       980   1.96           333.53543      130088.1      -807632.83     -9469.2751      0.36291162     0.055758798    28.414534      3501.305     
       990   1.98           329.2901       132646.09     -807628.28     -9595.487       0.3628975      0.05650418     28.407177      3500.7942    
      1000   2              351.93233      136790.91     -807626.55     -9747.2124      0.36288325     0.057399889    28.414139      3500.2781    
      1010   2.02           332.68353      139142.83     -807620.86     -307.59484      0.36286884     0.057966473    28.49324       3499.6694    
      1020   2.04           337.43429      141547.67     -807619.06     -309.98282      0.3628543      0.058418831    28.495854      3499.0627    
      1030   2.06           345.28836      138183.96     -807623.24     -306.91089      0.36283961     0.057842242    28.539424      3498.4094    
      1040   2.08           335.92315      135783.53     -807626.02     -302.79977      0.36282478     0.05706977     28.487117      3497.8231    
      1050   2.1            328.83601      130690.08     -807631.23     -296.67313      0.3628098      0.055917368    28.44335       3497.2923    
      1060   2.12           338.97004      130863.2      -807632.86     -296.39622      0.36279469     0.055867504    28.491487      3496.7094    
      1070   2.14           331.52241      129663.11     -807632.87     -295.5889       0.36277943     0.055717676    28.486329      3496.1367    
      1080   2.16           331.1391       135645.68     -807627.4      -301.0575       0.36276402     0.0567509      28.480096      3495.5752    
      1090   2.18           344.17906      135243.38     -807627        -303.53782      0.36274848     0.057220906    28.493359      3495.0026    
      1100   2.2            337.34193      141059.73     -807620.08     -309.54361      0.36273279     0.0583556      28.497561      3494.4295    
      1110   2.22           337.4189       138492.25     -807621.83     -308.17223      0.36271695     0.058099602    28.48417       3493.8751    
      1120   2.24           344.71646      138341.65     -807624.83     -306.3032       0.36270098     0.057749779    28.492088      3493.3156    
      1130   2.26           335.9428       132951.22     -807630.37     -299.91307      0.36268486     0.056547509    28.469501      3492.7843    
      1140   2.28           322.8557       132481.02     -807630.19     -298.42674      0.3626686      0.05626979     28.387431      3492.3441    
      1150   2.3            320.9353       128859.57     -807634.03     -294.69342      0.36265219     0.055568369    28.459542      3491.8288    
      1160   2.32           331.39209      131718.48     -807633.62     -296.72791      0.36263564     0.055954552    28.472026      3491.3031    
      1170   2.34           329.72745      132802.53     -807629.66     -300.82365      0.36261895     0.056729504    28.512327      3490.7386    
      1180   2.36           330.7349       138938.12     -807623.6      -307.25739      0.36260212     0.057945473    28.493943      3490.1965    
      1190   2.38           333.59307      138573.26     -807623.61     -307.86355      0.36258514     0.058062507    28.488738      3489.6631    
      1200   2.4            330.54321      139198.75     -807624.18     -307.04303      0.36256802     0.057910493    28.507019      3489.1141    
      1210   2.42           330.47549      136803.39     -807625.91     -305.58618      0.36255076     0.057638465    28.558021      3488.5172    
      1220   2.44           321.12109      132889.43     -807628.9      -301.44371      0.36253335     0.056859859    28.568517      3487.914     
      1230   2.46           313.27155      131156.92     -807632.25     -296.98577      0.3625158      0.05602169     28.55502       3487.3282    
      1240   2.48           309.82399      128680.2      -807635.25     -293.65262      0.36249811     0.055395648    28.511174      3486.7891    
      1250   2.5            318.89116      131786.42     -807631.84     -298.25292      0.36248028     0.056266234    28.551888      3486.2134    
      1260   2.52           324.01329      132358.15     -807628.89     -302.08894      0.3624623      0.056992735    28.555299      3485.6381    
      1270   2.54           330.59         138379.13     -807625.21     -306.56224      0.36244418     0.057839569    28.574715      3485.0478    
      1280   2.56           317.71467      138124.8      -807623.77     -306.27142      0.36242592     0.057787611    28.547078      3484.4875    
      1290   2.58           330.79606      140196.72     -807622.94     -308.75783      0.36240751     0.058259709    28.510135      3483.965     
      1300   2.6            334.1259       134224.18     -807627.53     -304.68636      0.36238896     0.057494404    28.554496      3483.4039    
      1310   2.62           323.54209      134640.13     -807629.14     -301.37476      0.36237027     0.056872436    28.509403      3482.8877    
      1320   2.64           318.58936      128188.75     -807635.88     -294.01283      0.36235143     0.055486051    28.482946      3482.3984    
      1330   2.66           318.56745      131529.75     -807632.83     -296.84263      0.36233245     0.056023025    28.442559      3481.9482    
      1340   2.68           309.32717      129968.25     -807630.95     -297.51243      0.36231333     0.056152399    28.414376      3481.5251    
      1350   2.7            340.07193      136125.02     -807629.4      -303.09067      0.36229407     0.057208276    28.441581      3481.0784    
      1360   2.72           319.30244      136344.78     -807625.72     -303.84631      0.36227466     0.057353975    28.399734      3480.6707    
      1370   2.74           324.24499      141062.5      -807620.98     -309.02334      0.36225511     0.058334339    28.390251      3480.2723    
      1380   2.76           331.50326      137162.95     -807624.17     -306.82261      0.36223542     0.057922055    28.476755      3479.7981    
      1390   2.78           324.05643      138008.09     -807624.85     -304.8788       0.36221558     0.057558255    28.490127      3479.314     
      1400   2.8            330.31876      131076.41     -807632.71     -297.81678      0.3621956      0.056228112    28.468743      3478.8504    
      1410   2.82           320.82242      130703.12     -807632.72     -296.28196      0.36217548     0.055941446    28.503472      3478.3584    
      1420   2.84           325.91381      128868.65     -807634.21     -295.42635      0.36215522     0.055783017    28.493529      3477.8769    
      1430   2.86           318.23568      131718.42     -807629.98     -298.43972      0.36213481     0.056355182    28.528285      3477.3678    
      1440   2.88           333.16405      135046.21     -807628.94     -301.46322      0.36211426     0.05692935     28.567793      3476.8277    
      1450   2.9            328.15919      137694.55     -807623.92     -305.61953      0.36209357     0.057717539    28.541125      3476.3124    
      1460   2.92           337.308        140383.24     -807621.88     -308.77938      0.36207273     0.058317647    28.558984      3475.7846    
      1470   2.94           318.4272       138776.32     -807621.83     -306.16035      0.36205176     0.057826353    28.509045      3475.3003    
      1480   2.96           334.41286      136783.24     -807626.35     -303.66513      0.36203064     0.057358412    28.497981      3474.8269    
      1490   2.98           330.45496      131219.6      -807631.1      -298.31679      0.36200937     0.056351489    28.491272      3474.3606    
      1500   3              326.48187      132216.26     -807631.96     -296.7133       0.36198796     0.056051907    28.466298      3473.9161    
      1510   3.02           328.62556      128059.56     -807633.96     -9441.8295      0.36196642     0.055742368    28.351002      3473.566     
      1520   3.04           323.41122      135077.81     -807628.48     -9585.516       0.36194472     0.056594052    28.375763      3473.1959    
      1530   3.06           331.75078      133538.95     -807628.84     -9614.7104      0.36192289     0.056769843    28.393421      3472.812     
      1540   3.08           329.07171      140797.27     -807620.87     -9847.8462      0.36190091     0.05814992     28.441864      3472.3901    
      1550   3.1            332.18341      136725.22     -807623.89     -9769.3804      0.36187879     0.057690118    28.460962      3471.9541    
      1560   3.12           345.69338      139924.59     -807623.29     -9840.6784      0.36185653     0.058114722    28.484912      3471.5005    
      1570   3.14           335.34972      132648.27     -807629.44     -9600.7389      0.36183412     0.056701256    28.43909       3471.0838    
      1580   3.16           334.93589      134656.55     -807630.28     -9566.7816      0.36181157     0.056504227    28.409753      3470.6904    
      1590   3.18           313.84856      128652.71     -807631.47     -9438.9585      0.36178888     0.055752763    28.36887       3470.329     
      1600   3.2            325.06173      133042.94     -807630.9      -9500.4491      0.36176605     0.05611951     28.408902      3469.9372    
      1610   3.22           328.9249       131050.1      -807631.54     -9500.5862      0.36174307     0.056123884    28.403266      3469.5501    
      1620   3.24           332.43041      137386.73     -807624.43     -9738.6905      0.36171995     0.057534141    28.365481      3469.1919    
      1630   3.26           330.08577      137232.91     -807622.95     -9778.0191      0.36169669     0.057770201    28.411681      3468.7992    
      1640   3.28           336.00157      140386.35     -807622.45     -9815.9904      0.36167329     0.057998295    28.420902      3468.4002    
      1650   3.3            353.01116      135687.9      -807628.05     -9715.0074      0.36164974     0.057405369    28.424688      3467.9989    
      1660   3.32           329.57478      135425.13     -807626.42     -9661.3096      0.36162605     0.057091812    28.426821      3467.5967    
      1670   3.34           330.06129      130886.62     -807630.69     -9529.8287      0.36160222     0.056318561    28.389193      3467.2225    
      1680   3.36           315.6414       131282.73     -807630.79     -9460.3059      0.36157824     0.055911408    28.348633      3466.878     
      1690   3.38           330.97394      131579.17     -807632.63     -9471.2         0.36155413     0.055979527    28.344194      3466.5367    
      1700   3.4            325.93248      133913.78     -807628.01     -9596.5686      0.36152987     0.056724324    28.362189      3466.1823    
      1710   3.42           328.43103      136835.71     -807624.15     -9730.8655      0.36150546     0.057522022    28.349374      3465.8371    
      1720   3.44           330.05792      138638.81     -807623.21     -9767.8015      0.36148092     0.057744283    28.374925      3465.4737    
      1730   3.46           328.36989      137909.64     -807623.47     -9751.855       0.36145623     0.057653949    28.400094      3465.0926    
      1740   3.48           340.57261      136423.18     -807626.3      -9716.996       0.3614314      0.057451806    28.44426       3464.681     
      1750   3.5            329.78357      134226.54     -807627.28     -9637.3695      0.36140643     0.056984951    28.426471      3464.2825    
      1760   3.52           335.8986       130463.83     -807633        -9482.2177      0.36138131     0.056071448    28.371394      3463.9226    
      1770   3.54           334.32921      131450.75     -807633.8      -9446.0051      0.36135605     0.055861215    28.372935      3463.5617    
      1780   3.56           329.90832      130697.03     -807631.63     -9500.5333      0.36133065     0.05618763     28.351636      3463.2155    
      1790   3.58           331.49167      136271.99     -807627.04     -9652.0672      0.36130511     0.057087861    28.357807      3462.865     
      1800   3.6            327.24449      135832.53     -807626.13     -9665.1313      0.36127942     0.057169194    28.422374      3462.4708    
      1810   3.62           337.22095      138895.43     -807624.18     -9768.5333      0.3612536      0.057784947    28.431156      3462.0712    
      1820   3.64           326.62367      136618.74     -807623.84     -9736.0721      0.36122763     0.057597066    28.472337      3461.6447    
      1830   3.66           327.58072      138060.4      -807624.15     -9726.1702      0.36120151     0.057542648    28.487196      3461.2091    
      1840   3.68           330.98527      131922.9      -807630.91     -9526.225       0.36117526     0.056363815    28.452721      3460.7972    
      1850   3.7            324.76309      132353.78     -807630.91     -9495.3945      0.36114886     0.056185507    28.423113      3460.4053    
      1860   3.72           335.26921      130056.73     -807632.82     -9483.6288      0.36112232     0.056120012    28.454689      3459.9933    
      1870   3.74           329.64595      133736.9      -807629.62     -9558.1897      0.36109564     0.056565411    28.411788      3459.6097    
      1880   3.76           328.95198      134416.79     -807628.44     -9594.6694      0.36106881     0.056785516    28.415036      3459.2245    
      1890   3.78           337.81091      137096.64     -807625.49     -9725.0362      0.36104184     0.057561384    28.445723      3458.8198    
      1900   3.8            328.12813      137554.47     -807623.35     -9752.2012      0.36101474     0.057726505    28.440243      3458.4192    
      1910   3.82           333.36906      138371.65     -807624.45     -9738.2903      0.36098748     0.057648513    28.40072       3458.0442    
      1920   3.84           331.49605      134854.96     -807627.84     -9622.8094      0.36096009     0.056969216    28.401491      3457.669     
      1930   3.86           338.33203      132862.79     -807631.24     -9542.9233      0.36093255     0.056500582    28.360863      3457.3197    
      1940   3.88           329.2794       132374.26     -807631.19     -9503.274       0.36090487     0.056270146    28.353068      3456.9752    
      1950   3.9            329.5628       130947.32     -807631.53     -9495.4247      0.36087705     0.056228004    28.364363      3456.6236    
      1960   3.92           324.78486      133181.04     -807630.81     -9495.9581      0.36084909     0.056235521    28.356965      3456.2766    
      1970   3.94           333.8253       133348.59     -807628.89     -9599.9281      0.36082098     0.056855664    28.365577      3455.9242    
      1980   3.96           325.1811       137905.36     -807622.69     -9758.0628      0.36079273     0.057796743    28.353871      3455.579     
      1990   3.98           324.65538      137159.39     -807623.18     -9739.9263      0.36076434     0.057693861    28.390769      3455.2112    
      2000   4              334.14017      137388.09     -807625.07     -9718.5166      0.36073581     0.057571596    28.345557      3454.871     
      2010   4.02           339.43015      134342.07     -807629        -300.56209      0.36070713     0.056980596    28.497379      3454.439     
      2020   4.04           339.11183      133878.74     -807629.26     -300.1498       0.36067831     0.056906981    28.502196      3454.005     
      2030   4.06           335.45523      130464.86     -807633.06     -295.89201      0.36064935     0.056104228    28.488086      3453.5803    
      2040   4.08           324.46388      132374.77     -807631.34     -295.94577      0.36062025     0.05611895     28.506906      3453.1451    
      2050   4.1            320.90988      131549.97     -807631.29     -295.67868      0.36059101     0.05607285     28.486579      3452.7226    
      2060   4.12           338.07492      135045.33     -807627.76     -301.46892      0.36056162     0.057175577    28.473147      3452.3088    
      2070   4.14           327.79728      134898.18     -807625.41     -302.42192      0.36053209     0.057361019    28.494674      3451.883     
      2080   4.16           327.66453      138904.51     -807624.24     -303.42247      0.36050242     0.057555532    28.519943      3451.4433    
      2090   4.18           331.96576      135825.85     -807626.06     -302.27808      0.36047261     0.057343197    28.49962       3451.0161    
      2100   4.2            336.10525      136365.66     -807626.03     -302.82278      0.36044265     0.057451304    28.547009      3450.5626    
      2110   4.22           329.60196      132278.37     -807629.91     -298.0771       0.36041256     0.056555678    28.507269      3450.1326    
      2120   4.24           324.96825      132698.76     -807631.48     -295.70698      0.36038232     0.056110691    28.495723      3449.71      
      2130   4.26           318.91324      130319.49     -807632.26     -294.20269      0.36035193     0.055829957    28.479671      3449.2971    
      2140   4.28           339.28023      133217.3      -807630.18     -299.00573      0.36032141     0.056746223    28.441644      3448.9063    
      2150   4.3            330.98035      133416.43     -807628.58     -299.42997      0.36029075     0.056831573    28.469954      3448.4999    
      2160   4.32           340.7936       136800.11     -807626.75     -302.54391      0.36025994     0.057427507    28.463955      3448.0974    
      2170   4.34           330.43785      136659.42     -807625.07     -302.81415      0.36022899     0.05748374     28.50619       3447.6719    
      2180   4.36           331.64501      137911.67     -807623.5      -304.48741      0.36019789     0.057806368    28.488761      3447.2567    
      2190   4.38           337.73863      134522.63     -807628.66     -300.16096      0.36016666     0.056989943    28.507819      3446.8316    
      2200   4.4            324.68171      132888.79     -807629.8      -297.05495      0.36013528     0.056405134    28.521335      3446.3998    
      2210   4.42           329.90772      130562.05     -807632.62     -294.91073      0.36010377     0.056002889    28.517069      3445.9711    
      2220   4.44           340.03576      130590.64     -807633.12     -295.73814      0.36007211     0.056164949    28.46988       3445.5687    
      2230   4.46           327.16071      133542.04     -807629.68     -297.28741      0.3600403      0.056464165    28.455345      3445.1745    
      2240   4.48           330.71267      134802.42     -807629.32     -298.11214      0.36000836     0.056625831    28.447424      3444.7851    
      2250   4.5            330.19185      137387.74     -807624.26     -303.01825      0.35997627     0.057562869    28.501878      3444.3668    
      2260   4.52           326.37188      137881.78     -807622.79     -303.95687      0.35994404     0.057746343    28.53596       3443.9309    
      2270   4.54           328.56601      138380.4      -807624.36     -302.58571      0.35991167     0.057491018    28.556745      3443.4849    
      2280   4.56           336.45473      134591.72     -807629.13     -298.83462      0.35987916     0.056783443    28.524909      3443.0565    
      2290   4.58           326.47187      133900.29     -807628.75     -297.67143      0.35984651     0.056567552    28.503603      3442.6398    
      2300   4.6            326.53423      130136.29     -807631.25     -295.13834      0.35981371     0.056091291    28.490688      3442.2306    
      2310   4.62           335.9152       131861.58     -807632.33     -295.21295      0.35978077     0.056110607    28.477763      3441.8285    
      2320   4.64           323.20429      131451.52     -807630.98     -294.76934      0.35974769     0.056031443    28.458105      3441.4372    
      2330   4.66           350.4689       135200.4      -807628.98     -300.39863      0.35971447     0.057106765    28.496991      3441.026     
      2340   4.68           327.78239      136227.72     -807624.26     -302.01684      0.35968111     0.057419717    28.515449      3440.6059    
      2350   4.7            333.08392      139421.92     -807622.74     -304.0711       0.3596476      0.05781566     28.530899      3440.1785    
      2360   4.72           342.50147      135087.01     -807627.89     -300.21532      0.35961396     0.057087868    28.500288      3439.7673    
      2370   4.74           336.98354      136047.63     -807626.69     -300.47123      0.35958017     0.0571419      28.49971       3439.3569    
      2380   4.76           330.52473      131839.05     -807629.8      -296.52928      0.35954624     0.056397564    28.456006      3438.9692    
      2390   4.78           328.07797      132428.34     -807630.6      -295.21091      0.35951216     0.056152143    28.432047      3438.5938    
      2400   4.8            331.24194      129861.54     -807634.21     -292.00361      0.35947795     0.055547368    28.373243      3438.2483    
      2410   4.82           336.36182      133642.44     -807630.81     -296.01146      0.35944359     0.056315157    28.376825      3437.9009    
      2420   4.84           331.65096      133678.02     -807626.76     -299.39822      0.35940909     0.056964944    28.425398      3437.5291    
      2430   4.86           346.35705      137196.35     -807625.98     -302.14602      0.35937446     0.057493295    28.498042      3437.1216    
      2440   4.88           327.43796      137503.62     -807624.42     -301.02291      0.35933967     0.057285129    28.447746      3436.7393    
      2450   4.9            340.60015      138103.2      -807624.93     -302.27625      0.35930475     0.057529233    28.441225      3436.3605    
      2460   4.92           340.13373      134632.64     -807626.52     -300.64479      0.35926969     0.057224319    28.505514      3435.9505    
      2470   4.94           336.18984      133905.99     -807629.8      -296.76167      0.35923448     0.056490747    28.497186      3435.5449    
      2480   4.96           327.37791      131854.53     -807632.31     -293.02402      0.35919913     0.055784747    28.483659      3435.1464    
      2490   4.98           326.3084       131321.66     -807630.98     -294.20152      0.35916364     0.056014448    28.482209      3434.7489    
      2500   5              330.61187      132558.85     -807629.19     -296.67231      0.35912801     0.056490479    28.566971      3434.3112    
[...]
     98740   197.48         331.26922      134682.94     -807628.15     -9613.4577      0.36236891     0.056692581    30.061413      42.884376    
     98750   197.5          339.25031      133459.97     -807627.87     -9660.7607      0.36238762     0.056968596    30.031431      42.543931    
     98760   197.52         327.89519      134724.11     -807625.79     -9677.7001      0.36240618     0.057065564    30.031475      42.203487    
     98770   197.54         335.7461       133899.2      -807629.02     -9609.2333      0.36242459     0.056658962    30.050119      41.863042    
     98780   197.56         324.39235      136471.02     -807626.37     -9644.0378      0.36244287     0.056861313    30.103728      41.522591    
     98790   197.58         339.54917      136317.17     -807625.12     -9753.7492      0.362461       0.057505296    30.103069      41.182142    
     98800   197.6          337.41272      135565.16     -807625.67     -9727.8399      0.36247899     0.057349696    30.073738      40.841699    
     98810   197.62         326.25531      135698.53     -807626.9      -9640.3005      0.36249683     0.056830817    30.020425      40.501264    
     98820   197.64         337.84726      133652.21     -807628.9      -9632.0319      0.36251453     0.056779299    29.990714      40.160835    
     98830   197.66         341.19488      134045.52     -807627.29     -9705.812       0.36253209     0.05721145     30.039137      39.820401    
     98840   197.68         321.76041      134334.37     -807626.32     -9655.8039      0.36254951     0.05691394     30.093857      39.479961    
     98850   197.7          324.56897      134758.02     -807628.13     -9616.726       0.36256678     0.056680904    30.066292      39.139526    
     98860   197.72         336.18585      134049.83     -807629.71     -9628.0287      0.36258391     0.056744841    30.093206      38.79909     
     98870   197.74         324.79406      136242.22     -807624.37     -9759.7462      0.3626009      0.057518452    30.111863      38.458653    
     98880   197.76         329.32968      135153.59     -807626.34     -9728.8903      0.36261774     0.057333941    30.122569      38.118216    
     98890   197.78         331.18824      135674.62     -807628.97     -9662.2967      0.36263445     0.056938871    30.074755      37.777787    
     98900   197.8          319.95497      133939.76     -807628.54     -9639.3434      0.362651       0.056801017    30.02237       37.437366    
     98910   197.82         327.49413      135520.12     -807627.19     -9726.6743      0.36266742     0.05731303     30.02315       37.096946    
     98920   197.84         325.44825      132742.75     -807629.62     -9650.2032      0.36268369     0.056859884    30.042603      36.756525    
     98930   197.86         323.84904      134291.75     -807630.94     -9606.4782      0.36269982     0.056599735    30.042427      36.416106    
     98940   197.88         312.54294      133118.53     -807629.36     -9618.1031      0.36271581     0.056665729    30.044766      36.075688    
     98950   197.9          321.83464      136029.71     -807626.55     -9754.1228      0.36273165     0.057464589    30.067138      35.735269    
     98960   197.92         320.39976      134382.81     -807627.66     -9718.7161      0.36274735     0.057253519    30.0627        35.394853    
     98970   197.94         315.41003      135812.67     -807628.7      -9663.7601      0.36276291     0.056927329    30.105196      35.054433    
     98980   197.96         321.13982      134170.34     -807629.39     -9672.7456      0.36277832     0.05697784     30.094142      34.714015    
     98990   197.98         312.46148      135735.72     -807625.93     -9747.4548      0.36279359     0.057415501    30.098817      34.373599    
     99000   198            322.03253      134220.04     -807629.77     -9668.3485      0.36280872     0.056947167    30.0671        34.033188    
     99010   198.02         312.96467      133649.46     -807629.93     -300.58639      0.3628237      0.056652774    30.131773      33.692772    
     99020   198.04         322.62577      133218.56     -807630.63     -301.22975      0.36283855     0.056771707    30.134285      33.352357    
     99030   198.06         314.06581      134727.15     -807626.47     -304.23381      0.36285324     0.057335549    30.187239      33.011938    
     99040   198.08         320.93605      135644.81     -807628.25     -303.28345      0.3628678      0.057154153    30.149412      32.671525    
     99050   198.1          320.5695       133874.03     -807630.08     -301.27309      0.36288221     0.056773043    30.11909       32.331117    
     99060   198.12         328.26397      135176.71     -807628.83     -303.38212      0.36289648     0.05716823     30.079487      31.990715    
     99070   198.14         321.11764      134653.08     -807626.68     -304.48857      0.36291061     0.057374491    30.152504      31.650306    
     99080   198.16         321.63723      135967.97     -807626.66     -304.29059      0.36292459     0.057334977    30.176621      31.309897    
     99090   198.18         331.3819       132798.84     -807631.98     -300.12655      0.36293843     0.056548225    30.157236      30.969492    
     99100   198.2          329.43931      134677.95     -807629.29     -302.25651      0.36295213     0.056947392    30.189626      30.629086    
     99110   198.22         323.23301      133624.72     -807627.54     -303.06937      0.36296568     0.057098409    30.219625      30.288678    
     99120   198.24         323.63565      135549.29     -807626.79     -303.57106      0.36297909     0.057190815    30.180552      29.948276    
     99130   198.26         322.68675      134029.41     -807629.23     -300.82394      0.36299236     0.056671204    30.197388      29.607874    
     99140   198.28         319.00326      136534.71     -807625.36     -303.88429      0.36300548     0.057245662    30.17456       29.267476    
     99150   198.3          327.67609      135481.31     -807624.68     -305.7073       0.36301846     0.057587022    30.175228      28.927081    
     99160   198.32         335.58943      135138.4      -807627.39     -303.78474      0.3630313      0.057222839    30.185846      28.586685    
     99170   198.34         330.06899      133386.57     -807630        -300.19859      0.36304399     0.056545352    30.120389      28.246298    
     99180   198.36         326.45966      133987.47     -807628.22     -301.35001      0.36305655     0.056760271    30.115878      27.905913    
     99190   198.38         323.40174      134287.95     -807626.21     -302.84356      0.36306895     0.057039637    30.106405      27.56553     
     99200   198.4          330.49187      133449.58     -807628.16     -301.76433      0.36308122     0.056834446    30.117506      27.225148    
     99210   198.42         341.11086      134422.82     -807629.86     -301.36231      0.36309334     0.056756835    30.172672      26.884763    
     99220   198.44         326.94226      135770.19     -807625.58     -303.62309      0.36310532     0.057180731    30.113446      26.544385    
     99230   198.46         336.08152      137406.78     -807623.62     -306.81194      0.36311715     0.057779397    30.151882      26.204005    
     99240   198.48         347.30826      134778.18     -807628.01     -303.96704      0.36312885     0.057241798    30.15667       25.863627    
     99250   198.5          342.8422       135089.36     -807629.09     -302.17765      0.3631404      0.056903018    30.188888      25.523247    
     99260   198.52         331.71212      134246.28     -807627.37     -302.38333      0.3631518      0.05693996     30.190511      25.18287     
     99270   198.54         322.57182      134901.51     -807625.09     -303.41925      0.36316306     0.057133256    30.1815        24.842495    
     99280   198.56         330.49221      133068.07     -807628.96     -300.63923      0.36317418     0.056608051    30.231576      24.502117    
     99290   198.58         327.92663      134078.5      -807628.35     -300.87828      0.36318516     0.05665135     30.225022      24.161742    
     99300   198.6          333.20131      133696.88     -807627.3      -302.76624      0.36319599     0.057005128    30.147425      23.821376    
     99310   198.62         337.60503      136269.76     -807624.68     -305.97303      0.36320668     0.05760721     30.159402      23.48101     
     99320   198.64         335.50802      136203.01     -807626.01     -304.43673      0.36321723     0.057316297    30.203382      23.140642    
     99330   198.66         327.21577      137085.13     -807625.51     -303.76537      0.36322763     0.057188262    30.15923       22.80028     
     99340   198.68         335.07598      135375.36     -807627.05     -303.36432      0.36323789     0.057111146    30.128965      22.459921    
     99350   198.7          331.15189      134557.61     -807626.63     -303.36621      0.36324801     0.057109911    30.16594       22.119562    
     99360   198.72         330.97517      133954.54     -807628.74     -301.26053      0.36325798     0.05671195     30.175419      21.779203    
     99370   198.74         337.34616      132140.65     -807631.1      -299.82269      0.36326781     0.056439753    30.128534      21.43885     
     99380   198.76         330.57201      134453.53     -807627.22     -302.79826      0.3632775      0.056998364    30.116113      21.098499    
     99390   198.78         328.35416      134942.89     -807626.1      -303.76597      0.36328704     0.057179023    30.099064      20.758152    
     99400   198.8          334.25327      137093.33     -807625.98     -304.72435      0.36329644     0.057357939    30.094762      20.417806    
     99410   198.82         322.91725      135714.2      -807625.49     -303.75653      0.3633057      0.05717431     30.152504      20.077458    
     99420   198.84         333.1174       136815.25     -807624.81     -305.86894      0.36331481     0.057570472    30.179102      19.737109    
     99430   198.86         330.26644      134232.18     -807627.04     -303.42251      0.36332378     0.057108597    30.139905      19.396766    
     99440   198.88         337.06993      134408.77     -807629.45     -302.01393      0.36333261     0.0568421      30.114909      19.056425    
     99450   198.9          329.31567      131990.86     -807630        -300.5233       0.36334129     0.056560196    30.172011      18.716083    
     99460   198.92         335.44872      133364.92     -807629.54     -301.9103       0.36334983     0.056819903    30.153228      18.375744    
     99470   198.94         328.15364      133725.24     -807628.46     -302.19693      0.36335823     0.056872531    30.17252       18.035405    
     99480   198.96         322.47786      136518.3      -807626.39     -303.53855      0.36336648     0.057123722    30.144988      17.695069    
     99490   198.98         325.83417      134833.57     -807627.01     -303.60089      0.3633746      0.057134179    30.178377      17.354734    
     99500   199            325.62072      137182.48     -807624.98     -305.73945      0.36338256     0.05753537     30.16737       17.014401    
     99510   199.02         332.02245      135523.45     -807627.59     -9735.9688      0.36339039     0.057253663    30.050018      16.674076    
     99520   199.04         319.93883      135622.1      -807627.46     -9691.7761      0.36339807     0.056992577    30.043757      16.333752    
     99530   199.06         327.96036      132869.8      -807630.7      -9632.4315      0.3634056      0.056642426    30.094888      15.993428    
     99540   199.08         325.79759      133785.82     -807629.03     -9685.5196      0.363413       0.056953446    30.100045      15.653105    
     99550   199.1          326.19703      132932.78     -807630.33     -9656.0593      0.36342025     0.056779079    30.097938      15.312784    
     99560   199.12         314.04922      134571.58     -807628.63     -9665.6582      0.36342736     0.05683441     30.092245      14.972465    
     99570   199.14         326.66661      133817.63     -807629.48     -9706.5162      0.36343432     0.057073563    30.089266      14.632147    
     99580   199.16         318.46103      136187.72     -807625.46     -9808.5559      0.36344114     0.057672466    30.06135       14.291832    
     99590   199.18         320.21834      135662.7      -807627.28     -9769.4845      0.36344782     0.057441678    30.14007       13.951516    
     99600   199.2          319.67838      134886.76     -807628.97     -9720.5844      0.36345435     0.057153133    30.104329      13.611202    
     99610   199.22         312.13825      134235.78     -807629.01     -9694.3834      0.36346074     0.056998079    30.060169      13.270892    
     99620   199.24         322.6379       133319.22     -807630.51     -9699.571       0.36346699     0.057027599    30.052686      12.930584    
     99630   199.26         306.26144      132544.33     -807630.35     -9637.844       0.3634731      0.05666373     30.030562      12.590279    
     99640   199.28         321.02662      132803.7      -807632.71     -9630.8056      0.36347906     0.056621421    30.022647      12.249975    
     99650   199.3          314.17837      133515.76     -807629.59     -9702.4694      0.36348487     0.057041834    30.088292      11.90967     
     99660   199.32         309.36621      134894.4      -807626.8      -9771.2709      0.36349055     0.057445428    30.040744      11.569369    
     99670   199.34         315.84059      135980.56     -807627.68     -9770.2078      0.36349608     0.057438304    30.069873      11.229068    
     99680   199.36         313.80251      135157.16     -807628.42     -9737.6975      0.36350147     0.057246331    30.117152      10.888766    
     99690   199.38         313.67445      136354.61     -807626.54     -9791.7606      0.36350671     0.057563328    30.0725        10.548468    
     99700   199.4          321.56815      132784.41     -807630.33     -9703.9048      0.36351181     0.057046045    30.046121      10.208173    
     99710   199.42         307.7143       134880.15     -807628.91     -9678.2645      0.36351677     0.056894538    30.07792       9.8678776    
     99720   199.44         314.64236      130737.13     -807632.9      -9578.7589      0.36352158     0.05630884     30.0873        9.5275837    
     99730   199.46         321.87256      134590.91     -807629.75     -9700.9894      0.36352625     0.057026641    30.097634      9.1872912    
     99740   199.48         315.72968      132537.59     -807629.06     -9690.6474      0.36353078     0.056965137    30.067302      8.8470011    
     99750   199.5          315.77184      136390.93     -807626.26     -9767.8008      0.36353516     0.05741798     30.077952      8.5067123    
     99760   199.52         321.45457      133989.92     -807629.15     -9695.6863      0.3635394      0.056993405    30.126898      8.1664237    
     99770   199.54         322.09198      137407.02     -807624.56     -9834.4785      0.3635435      0.057808605    30.060163      7.8261385    
     99780   199.56         322.75001      133930.41     -807627.48     -9738.8159      0.36354745     0.057245663    30.078084      7.4858545    
     99790   199.58         321.38633      135800.75     -807628.62     -9685.665       0.36355126     0.05693264     30.093459      7.1455716    
     99800   199.6          320.53853      132448.6      -807631.69     -9583.0077      0.36355493     0.056328649    30.057077      6.8052911    
     99810   199.62         323.42655      135068.6      -807628.03     -9705.6296      0.36355845     0.057048864    30.070763      6.4650119    
     99820   199.64         328.50807      132361.39     -807630.12     -9659.5077      0.36356183     0.056777236    30.027275      6.124735     
     99830   199.66         337.33916      134676.12     -807630.34     -9684.975       0.36356507     0.056926423    30.06544       5.7844589    
     99840   199.68         322.90127      134817.6      -807627.61     -9707.6174      0.36356816     0.057059025    30.086339      5.444184     
     99850   199.7          332.91058      136868.27     -807625.35     -9821.3378      0.36357111     0.057726977    30.063685      5.103911     
     99860   199.72         328.81855      135855.21     -807626.39     -9764.5687      0.36357392     0.057392862    30.082274      4.7636393    
     99870   199.74         326.21979      134587.99     -807628.8      -9672.3122      0.36357658     0.056850193    30.064228      4.4233694    
     99880   199.76         324.03392      134344.81     -807627.99     -9685.5591      0.3635791      0.056927658    30.059362      4.0831011    
     99890   199.78         318.55438      132990.47     -807627.4      -9678.9887      0.36358148     0.056888669    30.027848      3.7428347    
     99900   199.8          331.50482      134256.81     -807628.69     -9688.5615      0.36358371     0.056944584    30.047515      3.4025696    
     99910   199.82         335.4107       131387.36     -807632.17     -9593.8871      0.3635858      0.05638781     30.080378      3.0623056    
     99920   199.84         323.39088      137136.17     -807624.75     -9771.6396      0.36358775     0.057432238    30.105405      2.7220429    
     99930   199.86         331.59753      133642.45     -807627.3      -9727.6867      0.36358955     0.057173624    30.074597      2.3817821    
     99940   199.88         339.39842      138049.98     -807625.87     -9798.8747      0.36359121     0.057591762    30.080296      2.0415228    
     99950   199.9          320.47081      133689.3      -807627.34     -9670.7411      0.36359273     0.056838434    30.054642      1.7012653    
     99960   199.92         331.74359      137332.45     -807626.29     -9746.0522      0.3635941      0.057280849    30.063414      1.3610092    
     99970   199.94         335.5027       132251.36     -807629.88     -9649.9585      0.36359533     0.056715882    30.014233      1.0207548    
     99980   199.96         327.31605      136301.23     -807626.84     -9701.5869      0.36359641     0.057019148    30.05586       0.68050166   
     99990   199.98         334.69596      130244.05     -807632.28     -9562.0254      0.36359736     0.056198758    30.012962      0.34025012   
    100000   200            329.77751      136372.58     -807626.73     -9709.7506      0.36359816     0.057066855    30.039666      0            
Loop time of 3402.49 on 32 procs for 100000 steps with 1080 atoms

Performance: 5.079 ns/day, 4.726 hours/ns, 29.390 timesteps/s, 31.741 katom-step/s
61.3% CPU use with 32 MPI tasks x 1 OpenMP threads

MPI task timing breakdown:
Section |  min time  |  avg time  |  max time  |%varavg| %total
---------------------------------------------------------------
Pair    | 2477.5     | 2802.4     | 3067.8     | 288.2 | 82.36
Neigh   | 0.0012455  | 0.0013308  | 0.001548   |   0.2 |  0.00
Comm    | 255.37     | 520.09     | 845.31     | 668.7 | 15.29
Output  | 2.488      | 2.5003     | 2.5131     |   0.5 |  0.07
Modify  | 67.94      | 68.689     | 71.816     |   8.5 |  2.02
Other   |            | 8.838      |            |       |  0.26

Nlocal:          33.75 ave          39 max          27 min
Histogram: 3 0 1 2 2 11 6 2 2 3
Nghost:        1021.03 ave        1036 max        1006 min
Histogram: 2 3 3 1 2 9 5 2 4 1
Neighs:              0 ave           0 max           0 min
Histogram: 32 0 0 0 0 0 0 0 0 0
FullNghs:      5392.19 ave        6215 max        4333 min
Histogram: 3 0 1 2 4 9 6 2 2 3

Total # of neighbors = 172550
Ave neighs/atom = 159.76852
Neighbor list builds = 3
Dangerous builds = 0

Total wall time: 1:00:14
