
units		metal
atom_style	atomic

read_data ${STRUCTURE}.data
read_data BaTiO3-sc333.data
Reading data file ...
  orthogonal box = (0 0 0) to (11.898253 11.898253 12.912076)
  2 by 4 by 4 MPI processor grid
  reading atoms ...
  135 atoms
  read_data CPU = 0.005 seconds
replicate $L $L $L
replicate 2 $L $L
replicate 2 2 $L
replicate 2 2 2
Replication is creating a 2x2x2 = 8 times larger system...
  orthogonal box = (0 0 0) to (23.796507 23.796507 25.824152)
  2 by 4 by 4 MPI processor grid
  1080 atoms
  replicate CPU = 0.003 seconds

pair_style allegro
pair_coeff	* * ${MODEL}.pth Ba Ti O
pair_coeff	* * BaTiO3-E0.pth Ba Ti O
mass 1 137.3
mass 2 47.9
mass 3 15.9994

timestep 0.002
compute polarization all allegro polarization 3
compute allegro will evaluate the quantity polarization of length 3 (src/compute_allegro.cpp:53)
compute polarizability all allegro polarizability 9
compute allegro will evaluate the quantity polarizability of length 9 (src/compute_allegro.cpp:53)

thermo_style custom pe fmax fnorm spcpu cpuremain

variable efield equal 1e-2*36.36
fix born all addbornforce 0.0 0.0 ${efield}
fix born all addbornforce 0.0 0.0 0.3636

thermo 10
min_style fire
#minimize 0.0 1e-6 100 100
velocity all create ${TEMP} ${SEED} dist gaussian rot yes mom yes
velocity all create 330 ${SEED} dist gaussian rot yes mom yes
velocity all create 330 20239 dist gaussian rot yes mom yes
fix nvt all nvt temp ${TEMP} ${TEMP} $(100*dt)
fix nvt all nvt temp 330 ${TEMP} $(100*dt)
fix nvt all nvt temp 330 330 $(100*dt)
fix nvt all nvt temp 330 330 0.2000000000000000111
run 5000
Neighbor list info ...
  update: every = 1 steps, delay = 0 steps, check = yes
  max neighbors/atom: 2000, page size: 100000
  master list distance cutoff = 8
  ghost atom cutoff = 8
  binsize = 8, bins = 3 3 4
  1 neighbor lists, perpetual/occasional/extra = 1 0 0
  (1) pair allegro/kk, perpetual
      attributes: full, newton on, kokkos_device
      pair build: full/bin/kk/device
      stencil: full/bin/3d
      bin: kk/device
Per MPI rank memory allocation (min/avg/max) = 3.516 | 3.516 | 3.516 Mbytes
    PotEng          Fmax          Fnorm          S/CPU         CPULeft    
-807708.29      1.5954845      37.043609      0              0            
-807645.04      3.4894615      45.20606       2.326499       2144.8546    
-807632.92      2.5350706      35.858362      25.883122      1166.4799    
-807604.66      3.2829762      37.431971      25.909675      840.03176    
-807601.18      4.2783524      50.473491      25.851392      676.72262    
-807567.66      3.7269803      40.391391      25.81163       578.64142    
-807602.14      2.933685       38.826666      25.876181      513.04528    
-807645.48      4.1624899      34.47995       25.860693      466.0967     
-807683.72      2.3615061      34.31058       25.848129      430.80019    
-807666.25      3.148936       34.704057      25.845479      403.26353    
-807651.35      3.2236381      34.785677      25.894614      381.12086    
-807658.39      2.5734529      28.107817      25.867757      362.95173    
-807626.93      2.9191658      31.115891      25.860618      347.7507     
-807582.67      3.7324469      41.200114      25.836739      334.84218    
-807568.14      3.3901674      38.848573      25.881022      323.69946    
-807632.72      3.2772308      34.455916      25.875984      313.99335    
-807652.98      3.0604808      31.458252      25.837681      305.46953    
-807662.55      2.7890325      35.503651      25.858918      297.89395    
-807646.11      4.5051862      45.340091      25.896689      291.10201    
-807678.55      2.9985144      37.227986      25.852404      285.00113    
-807640.36      4.1965138      39.611779      25.854827      279.47097    
-807614.3       2.9362721      39.801556      25.879502      274.42189    
-807559.25      4.3897729      46.406994      25.909736      269.78705    
-807603.23      4.2569435      49.719698      25.862608      265.53628    
-807611.84      4.6295313      39.463809      25.810969      261.62285    
-807641.61      3.2792552      35.643093      25.876045      257.973      
-807641.83      5.0762007      45.440638      25.892826      254.5696     
-807680.97      2.7327607      37.690757      25.825462      251.40735    
-807661.65      3.7590377      34.826727      25.789133      248.45251    
-807636.55      2.8302335      32.515466      25.888341      245.65058    
-807605.54      3.2339047      34.180649      25.899851      243.007      
-807601.21      3.6645212      42.9968        25.858932      240.51831    
-807593.27      3.5261418      37.857932      25.792757      238.17551    
-807606.25      3.3743887      35.057685      25.874909      235.93377    
-807640.68      3.2611245      32.173638      25.891215      233.79783    
-807671.91      2.9044317      33.49748       25.881209      231.76386    
-807674.9       2.5708359      34.360793      25.815702      229.83406    
-807643.06      4.7013545      39.657501      25.888855      227.97393    
-807646.36      3.1734297      32.366818      25.87858       226.19325    
-807618.75      4.3092327      35.929868      25.854342      224.48834    
-807598.57      3.741508       44.366352      25.79555       222.85948    
-807566.41      4.160219       42.702797      25.85205       221.28168    
-807621.43      4.1837995      37.021236      25.865032      219.75848    
-807646.08      4.6535414      37.42772       25.842699      218.29169    
-807670.07      3.506801       36.458049      25.820283      216.87747    
-807640.01      5.7618276      48.090108      25.871538      215.50113    
-807664.98      3.3412394      36.424986      25.889366      214.16519    
-807642.91      5.0937524      38.098816      25.853142      212.87489    
-807622.3       3.3300307      38.624056      25.864967      211.62057    
-807564.9       4.7245912      44.17196       25.908592      210.39567    
-807597.54      4.4541459      43.899945      25.885818      209.20738    
-807620.27      3.7436581      36.050393      25.864808      208.05331    
-807651.33      3.0672346      33.504089      25.871543      206.92789    
-807642.1       4.1750313      41.381659      25.88251       205.82897    
-807669.51      3.0366611      35.049852      25.853637      204.76       
-807664.17      3.2248009      34.074201      25.793012      203.72319    
-807643.09      2.8477901      31.880683      25.854981      202.70221    
-807601.55      2.9728037      35.773443      25.884447      201.70005    
-807593.5       3.8729792      39.958033      25.878052      200.71986    
-807601.91      4.1232924      41.237596      25.788009      199.76987    
-807615.61      5.1949339      35.212519      25.854374      198.83133    
-807634.37      4.0664729      35.678229      25.885331      197.90756    
-807659.12      6.5394165      37.13689       25.872183      197.0025     
-807672.41      3.7546723      37.544301      25.780292      196.12346    
-807645.54      4.625897       39.916039      25.81224       195.2565     
-807632.21      4.8832273      35.456851      25.862122      194.39929    
-807612.03      3.8581753      36.642257      25.898858      193.55274    
-807603.14      4.2271499      46.028706      25.834133      192.72618    
-807579.34      3.9811463      41.716542      25.832964      191.91266    
-807611.65      3.4945129      38.060212      25.90471       191.10481    
-807641.56      4.1934721      38.599173      25.88996       190.31035    
-807669.68      2.8864402      37.879573      25.829194      189.53289    
-807647.74      4.6476612      42.34506       25.810202      188.76796    
-807650.1       3.3783538      36.870195      25.858647      188.00913    
-807639.39      5.1244219      37.089492      25.774264      187.26764    
-807622.63      3.706202       39.253463      25.864294      186.52793    
-807578.03      4.1939376      41.535105      25.851597      185.79856    
-807586.46      3.336242       41.148351      25.899814      185.07414    
-807623.73      4.4138298      34.62825       25.855896      184.36194    
-807652.82      3.6447517      34.187011      25.885677      183.65561    
-807648.84      4.9038524      37.339059      25.85669       182.95956    
-807653.86      3.7852855      36.82611       25.764761      182.27828    
-807660.95      3.3985012      34.413961      25.811774      181.60054    
-807641.42      3.6115896      33.944935      25.823562      180.92891    
-807604.85      3.131447       37.112974      25.898441      180.25851    
-807583         3.8290287      40.354189      25.904635      179.59435    
-807602.62      3.7522294      41.118218      25.820283      178.94272    
-807623.88      3.6553149      35.847432      25.803439      178.29838    
-807637.2       4.4882599      35.486402      25.866719      177.65543    
-807647.05      4.710916       38.668848      25.85846       177.01881    
-807668.77      3.0092765      36.581892      25.780673      176.39306    
-807651.27      4.8834087      37.349506      25.820954      175.76982    
-807630.56      3.0076794      34.956469      25.873366      175.14823    
-807605.05      3.9707761      36.483247      25.890915      174.53054    
-807602.76      3.8323572      43.432265      25.861388      173.91969    
-807595.46      4.107082       39.405965      25.819138      173.31625    
-807615.43      3.0318634      36.548707      25.882135      172.71335    
-807635.94      4.4636091      37.635003      25.883693      172.11482    
-807666         3.4233846      35.888616      25.850136      171.52268    
-807655.24      4.0355221      38.071535      25.776013      170.93918    
-807647.29      2.7722247      34.89832       25.834903      170.35607    
-807632.71      4.6194412      35.629574      25.872942      169.77458    
-807623.82      3.7433336      36.907768      25.86595       169.19733    
-807593.83      3.795586       37.849696      25.835487      168.62553    
-807590.39      3.1896856      38.826314      25.866155      168.05555    
-807620.71      3.1035002      34.118326      25.807705      167.49234    
-807651.74      3.0759006      34.498141      25.790821      166.9334     
-807657.12      3.8726955      34.850624      25.783316      166.37807    
-807648.6       3.9279449      37.683057      25.822771      165.82369    
-807652.94      3.201838       34.496492      25.844921      165.27119    
-807642.14      3.4387732      33.018259      25.840359      164.72194    
-807612.19      3.6275865      35.863836      25.868623      164.17413    
-807582.98      3.6869742      38.508768      25.843559      163.6305     
-807603.18      3.3890668      38.324563      25.842313      163.0897     
-807627.84      2.8670002      33.747443      25.819549      162.55276    
-807648.51      3.3818404      33.423752      25.840098      162.0174     
-807643.46      3.4323114      38.31552       25.866827      161.48326    
-807662.36      2.903616       36.189766      25.852591      160.95235    
-807651.15      3.2564795      35.73284       25.818597      160.42552    
-807634.09      3.1382768      34.01715       25.82222       159.90087    
-807596.38      4.1276238      38.465379      25.878565      159.37584    
-807600.86      3.4022582      40.343833      25.80787       158.85641    
-807602.22      3.666614       37.661496      25.815944      158.33877    
-807626.03      2.9336499      33.519085      25.848157      157.82177    
-807634.83      4.464388       36.408931      25.865116      157.3061     
-807660.81      2.6260442      34.78248       25.791283      156.79582    
-807658.05      3.3671271      35.701359      25.804005      156.28691    
-807645.92      3.4010226      34.798703      25.851074      155.77784    
-807622.77      4.1011656      35.311217      25.865761      155.27004    
-807614.44      2.9466185      36.748433      25.809303      154.76656    
-807597.4       3.2911274      39.571372      25.792366      154.26558    
-807598.83      3.6094005      37.720365      25.81944       153.76519    
-807618.91      3.6092655      34.770448      25.828485      153.26613    
-807648.67      2.8720351      34.078529      25.837564      152.76838    
-807658.13      3.7332078      35.570731      25.815753      152.27318    
-807649.16      3.6429237      36.942802      25.791701      151.78055    
-807643.56      3.1017732      35.141325      25.841556      151.28746    
-807634.27      4.1392797      33.811343      25.845707      150.79575    
-807612.98      3.523811       37.628511      25.854859      150.30521    
-807586.96      4.2210162      39.840528      25.8295        149.81714    
-807600.02      4.0183074      39.039155      25.837844      149.33019    
-807628.47      4.3825854      35.651502      25.89305       148.84256    
-807650.6       3.2265195      35.001492      25.906289      148.35586    
-807644.74      5.3420498      39.518945      25.894277      147.87102    
-807651.69      3.3202259      36.593656      25.925141      147.38641    
-807646.01      4.7150982      37.055599      25.923268      146.90323    
-807632.84      3.3214338      35.228175      25.8887        146.42264    
-807595.42      4.2899972      39.044612      25.935369      145.94166    
-807592.62      3.7587885      40.180076      25.901228      145.46318    
-807606.03      3.3019506      38.295956      25.85373       144.98761    
-807632.01      3.0851965      35.522794      25.923907      144.51078    
-807636.39      3.9303146      37.169638      25.882593      144.03657    
-807651.03      3.601472       36.525002      25.951643      143.56118    
-807654.05      4.139019       37.154296      25.926845      143.08779    
-807644.76      3.9558979      36.154347      25.84972       142.61813    
-807617.74      3.0573787      36.403135      25.871402      142.14882    
-807604.48      3.9244745      39.145966      25.927977      141.6787     
-807599.95      4.6472678      40.292203      25.849403      141.21223    
-807606.73      4.0236921      38.732188      25.915695      140.74462    
-807622.94      4.213283       36.322724      25.896763      140.27864    
-807641.87      5.6680896      36.915033      25.91072       139.81322    
-807657.96      3.0693618      35.886446      25.845642      139.35083    
-807648.7       4.1523435      36.894995      25.86956       138.88863    
-807638.17      3.6332213      34.746863      25.916493      138.42591    
-807622.96      3.541507       35.598384      25.937596      137.96348    
-807612.7       3.5170477      38.113462      25.905029      137.50297    
-807594.81      3.710567       39.254175      25.889379      137.04383    
-807606.27      2.9357964      37.177419      25.92493       136.5845     
-807626.94      3.3573973      35.288027      25.928179      136.12595    
-807651.68      2.6558844      34.413783      25.89979       135.6691     
-807650.66      3.4684846      36.113125      25.876166      135.21376    
-807647.08      3.3592071      36.410924      25.902849      134.75846    
-807640.29      3.3754708      35.150886      25.86784       134.30496    
-807630.58      3.2099966      35.370333      25.945173      133.85006    
-807603.77      3.9000198      37.937109      25.931316      133.39634    
-807594.99      3.1809087      38.966006      25.881288      132.94478    
-807611.35      4.6209549      36.944977      25.833643      132.49528    
-807636.95      2.9237879      35.157191      25.891369      132.04491    
-807644.55      3.6531695      35.644835      25.946433      131.59377    
-807647.56      4.2728871      36.635924      25.903866      131.14451    
-807651.02      2.9167719      35.309385      25.851223      130.69734    
-807644.63      4.1000705      34.806961      25.88271       130.25001    
-807621.33      3.053521       35.058271      25.905853      129.80275    
-807601.35      3.632617       37.59908       25.928592      129.35558    
-807602.57      3.4625689      37.58559       25.945483      128.90864    
-807618.37      3.1134738      35.60053       25.912806      128.46319    
-807631.43      3.895241       34.529343      25.909951      128.01845    
-807642.79      4.3278061      35.438536      25.885625      127.57495    
-807653.85      3.5878242      35.648078      25.937761      127.13077    
-807649.8       3.7831819      36.185404      25.91298       126.68782    
-807637.67      3.7720871      34.848386      25.904058      126.24568    
-807616.47      4.5374168      35.813381      25.869654      125.80497    
-807608.73      4.0158449      38.260709      25.950834      125.36287    
-807604.86      4.0928575      37.364781      25.969723      124.92092    
-807614.36      2.9372463      35.996073      25.907081      124.48102    
-807631.03      4.4065251      34.19718       25.929479      124.04116    
-807649.2       4.5643298      34.618554      25.876288      123.60308    
-807649.19      3.4929515      36.405498      25.896764      123.16505    
-807647.05      3.3076411      35.406136      25.886833      122.72777    
-807631.39      3.6301707      35.709641      25.932898      122.28997    
-807623.2       3.2947617      35.730687      26.028116      121.85057    
-807606.42      4.5238109      38.013459      25.945497      121.41354    
-807604.07      3.7181068      38.24562       25.911165      120.97778    
-807614.84      3.3225826      35.959104      25.990229      120.54079    
-807637.87      3.9273281      34.656169      25.950195      120.10517    
-807646.54      3.7675372      35.792961      25.889019      119.67135    
-807646.58      4.1508868      35.854848      25.867167      119.23846    
-807642.24      3.28267        36.032722      25.881129      118.80573    
-807636.71      2.9677375      34.339022      25.900525      118.37303    
-807619.27      2.9321811      35.825365      25.915198      117.94047    
-807602.06      3.335298       38.429763      25.938761      117.50788    
-807602.78      3.3077991      38.03883       25.920988      117.07609    
-807619.42      3.084026       36.865662      25.930569      116.64454    
-807637.93      3.5533619      35.381475      25.926019      116.21352    
-807640.23      3.1978986      36.786046      25.948356      115.78247    
-807647.56      2.9121491      35.83416       25.967655      115.35147    
-807645.91      3.0528067      35.367359      25.98896       114.92048    
-807633.78      3.0481166      35.352         25.961426      114.49045    
-807609.94      3.0778825      37.861245      25.956677      114.06092    
-807604.12      3.4267278      38.867769      25.931424      113.63228    
-807604.97      2.9900437      38.891561      25.93032       113.20405    
-807621.78      2.8929397      36.523225      25.925841      112.77628    
-807630.28      3.742733       36.659338      25.915048      112.3491     
-807647.48      2.8129209      35.461473      25.926874      111.92207    
-807648.51      3.3642818      36.523263      25.886159      111.49616    
-807643.56      3.0068196      35.490387      25.924855      111.06989    
-807628.05      4.6603944      35.256609      25.934843      110.6438     
-807615.25      3.134629       36.487825      25.972361      110.2174     
-807604.63      3.4087611      38.269979      25.901683      109.79262    
-807608.62      3.5198211      38.029255      25.926212      109.36774    
-807618.46      3.6494289      36.746113      25.895658      108.94374    
-807637.56      3.5456654      36.057041      25.915977      108.51971    
-807646.51      3.8674355      36.612853      25.920293      108.09593    
-807646.52      3.2791484      36.003379      25.921851      107.67246    
-807640.18      4.2936136      35.502521      25.936318      107.24906    
-807629.96      3.4101346      34.830709      25.965141      106.8255     
-807617.25      3.7569135      35.451864      25.945375      106.4026     
-807606.56      3.4160873      36.988838      25.954085      105.97987    
-807609.9       3.1547237      36.261573      25.903482      105.55828    
-807624.73      3.0037617      34.734047      25.93209       105.13652    
-807639.23      3.4443289      35.968712      25.962156      104.71459    
-807644.71      3.4036824      36.538318      25.915231      104.2937     
-807645.21      3.3998452      36.833836      25.927395      103.87291    
-807639.4       4.186295       36.400108      25.946785      103.45211    
-807629.89      3.4839334      36.000399      25.945088      103.03162    
-807611.77      3.3588361      37.320861      25.952048      102.61132    
-807605.32      3.0450081      37.662674      25.98795       102.19074    
-807610.92      3.8016765      37.535924      25.969991      101.77073    
-807628.73      2.8523199      34.683548      25.963097      101.35111    
-807639.01      3.3269046      34.718581      25.945473      100.93202    
-807645.29      3.6856844      36.055491      26.004371      100.51233    
-807646.16      3.6748802      36.251479      25.904335      100.0944     
-807642.1       3.6352921      34.592086      25.901636      99.676756    
-807625.38      3.1929467      35.179354      25.929686      99.258955    
-807609.52      3.3970434      37.372857      25.919458      98.841554    
-807606.25      3.0860347      37.620872      25.930362      98.424246    
-807613.03      3.5885121      37.51638       25.919519      98.007339    
-807626.49      3.0892986      35.035892      25.923104      97.590623    
-807638.45      3.9681099      35.722716      25.884587      97.174686    
-807645.48      3.6027225      35.733346      25.852026      96.75943     
-807646.67      3.6172397      36.060102      25.862014      96.344255    
-807635.28      3.1034182      35.643355      25.933345      95.928324    
-807624.86      3.570985       35.105856      25.964985      95.512199    
-807609.95      3.2367518      37.679405      25.951846      95.096484    
-807607.68      3.6335686      37.56356       25.974712      94.680697    
-807614.65      3.3280144      36.547931      25.959223      94.265345    
-807628.96      3.6461925      35.081616      26.020391      93.849424    
-807640.99      3.9821863      35.020738      25.960946      93.434507    
-807645.26      3.8466662      35.895369      25.968041      93.019722    
-807642.06      4.4640325      34.932623      25.937272      92.605548    
-807634.35      3.4461627      34.86286       25.968753      92.191189    
-807622.81      3.9081025      35.624485      25.962923      91.77712     
-807611.09      2.9159972      36.826784      25.910082      91.363921    
-807607.16      3.9260427      37.445735      25.920373      90.950794    
-807616.28      3.0923545      36.423815      25.931057      90.537736    
-807630.69      3.4375811      35.147973      25.964467      90.124471    
-807639.47      4.3648264      36.02588       25.930729      89.711817    
-807643.62      3.3136974      36.06759       25.902695      89.299693    
-807639.85      3.8197573      36.132932      25.910977      88.887659    
-807632.84      3.3217358      35.106552      25.971701      88.475097    
-807622.46      3.5060063      35.332303      25.973383      88.062712    
-807608.54      3.203445       36.513063      25.920406      87.651135    
-807608.24      3.1601411      36.919205      25.888171      87.240112    
-807619.49      3.456184       35.953493      25.97443       86.828281    
-807631.61      2.7255262      35.642812      25.938745      86.417041    
-807638.69      3.3163143      35.700059      25.899483      86.006423    
-807643.26      2.9859672      35.706933      25.889634      85.596086    
-807644.13      3.0504601      34.719179      25.929139      85.18548     
-807630.99      3.4890383      35.210739      25.933891      84.774996    
-807618.32      3.4845559      35.548739      25.931064      84.364713    
-807610.54      4.6465863      37.343055      25.9028        83.954906    
-807610.51      4.4880237      36.740365      25.905687      83.545231    
-807620.14      6.1451451      35.70858       25.989282      83.134834    
-807632.04      3.566327       34.649315      25.967036      82.724845    
-807642.09      5.1198873      35.69106       25.909554      82.315623    
-807645.61      3.225732       35.15782       25.936203      81.906284    
-807640.9       3.9488755      35.346406      25.906891      81.497406    
-807629.44      3.4831814      35.994439      25.892106      81.088833    
-807620.31      3.3946419      35.880319      25.865599      80.680678    
-807610.64      3.2609956      36.68469       25.874677      80.272575    
-807612.3       2.9398962      36.293116      25.876337      79.864602    
-807620.45      4.1553223      35.736466      25.914215      79.456396    
-807636.82      3.2253115      34.706022      25.865006      79.048821    
-807642.62      4.0765513      35.192631      25.926988      78.640782    
-807643.92      3.0973358      35.236339      25.94406       78.232727    
-807639.8       3.0016651      35.38484       25.897768      77.825261    
-807630.16      2.9159877      35.134542      25.910323      77.417815    
-807618.09      3.433587       36.026557      25.9305        77.010321    
-807610.89      2.9294449      36.597636      25.932285      76.602953    
-807612.5       3.6030679      36.904802      25.955277      76.195513    
-807624.54      3.0606642      34.805747      25.985627      75.787941    
-807635.23      4.0753239      34.868214      25.95827       75.380762    
-807643.49      3.3123206      35.28013       25.968364      74.973633    
-807643.15      4.2523738      35.325325      25.960176      74.566717    
-807639.4       3.9846926      34.524306      25.922904      74.160268    
-807628.53      4.4082071      35.499259      25.923655      73.753943    
-807618.92      3.2742121      35.476458      25.9458        73.347558    
-807608.33      3.6853159      37.924358      25.978522      72.941024    
-807613.18      3.2319433      36.573216      26.011917      72.534344    
-807625.88      3.7371585      35.648645      25.994628      72.127947    
-807636.98      3.4126601      35.036373      25.911144      71.722384    
-807639.96      3.6883949      36.377791      25.847912      71.317469    
-807640.61      3.3522235      35.651783      25.800748      70.913058    
-807637.14      3.5494506      36.649937      25.854003      70.508312    
-807625.42      3.5378516      35.675239      25.906198      70.103255    
-807615.62      3.0450858      36.859524      25.996918      69.697589    
-807609.25      3.489296       37.04142       25.95499       69.292384    
-807617.93      3.1474305      36.616368      25.940112      68.887418    
-807625.72      2.9931044      35.71586       25.951344      68.482483    
-807637.16      3.2890701      34.69146       25.952864      68.077655    
-807639.66      3.4137836      36.232718      25.932205      67.673104    
-807642.5       3.2464864      34.986462      25.905302      67.268872    
-807632.51      2.7873011      36.339123      25.942523      66.864469    
-807624.4       3.0728057      35.218738      25.992562      66.459807    
-807612.73      3.9026394      36.992001      25.974149      66.055401    
-807610.23      3.1480333      37.836212      25.984868      65.651032    
-807614.88      4.0990213      37.401285      25.949618      65.247034    
-807627.73      3.6048368      36.329384      25.967653      64.843018    
-807635.07      4.7709541      36.463967      25.910864      64.439518    
-807642.57      3.3926435      35.92434       25.866231      64.036439    
-807639.9       3.5486254      35.667125      25.812977      63.633831    
-807632.08      3.0455619      35.231956      25.970112      63.230219    
-807623.05      3.3987372      35.459998      25.979734      62.826651    
-807613.33      2.8546753      35.889104      25.953058      62.423372    
-807613.17      3.7900291      35.928674      25.956092      62.020177    
-807616.93      3.5959437      35.450623      25.93852       61.617203    
-807629.06      3.5136816      34.895336      25.888535      61.214662    
-807638         3.1474105      35.284811      25.862143      60.812388    
-807643         3.0287564      34.565765      25.886518      60.410044    
-807638.25      3.1806009      34.973535      25.891526      60.007761    
-807632.81      3.1348237      35.183942      25.929802      59.605324    
-807622.89      3.7111095      35.58869       25.971153      59.202723    
-807613.98      3.374957       36.405134      25.993016      58.800085    
-807609.35      5.3038607      36.794923      25.91189       58.398051    
-807619.04      3.7453593      36.029723      25.877324      57.99632     
-807632.92      3.9695512      34.617488      25.909372      57.594479    
-807637.39      3.4722723      34.927438      25.875739      57.192932    
-807640.1       2.891185       35.259356      25.914343      56.791238    
-807640.69      3.1882632      34.761825      25.914892      56.389629    
-807632.72      3.4609077      34.251729      25.947879      55.987915    
-807620.73      3.6100542      35.652266      25.992185      55.586036    
-807612.61      3.6761584      36.551252      25.988199      55.184275    
-807613.51      3.0627158      36.530016      25.948091      54.782834    
-807622.68      2.6987539      35.170495      25.904657      54.381726    
-807631.8       2.8088329      34.931793      25.894762      53.980756    
-807638.73      3.401037       34.497748      25.885642      53.579917    
-807641.97      2.9337178      35.022253      25.88539       53.179159    
-807638.81      3.1641962      34.417811      25.899371      52.778404    
-807629.66      3.0313601      34.731292      25.945016      52.377484    
-807620.06      3.6366166      35.9419        25.906681      51.976852    
-807614.78      2.7902915      35.940801      25.90229       51.576321    
-807613.94      3.5126145      36.472683      25.888343      51.175941    
-807622.01      3.113834       35.694112      25.929722      50.775424    
-807631.56      3.1418821      35.726071      25.916435      50.375055    
-807641.14      2.7132289      34.924085      25.898284      49.974854    
-807640.06      2.5950877      34.933618      25.863367      49.574902    
-807638.44      3.939206       34.136621      25.930102      49.174693    
-807629.04      3.0851227      34.865742      25.949412      48.774467    
-807622.42      3.8221866      35.203744      25.972044      48.374211    
-807612.12      3.3744559      36.12017       25.922014      47.974273    
-807617.3       3.4869843      35.349238      25.991095      47.574086    
-807622.48      3.030827       35.817566      25.924379      47.174289    
-807636.08      2.7754503      33.459632      25.940898      46.77449     
-807639.79      4.0130284      34.633721      25.909663      46.374907    
-807640.29      3.3002921      35.060873      25.924717      45.975328    
-807637.49      3.0660488      34.281492      25.948599      45.575715    
-807630.59      2.5780727      34.694883      25.999019      45.175955    
-807619.72      2.5093075      34.745764      25.964908      44.77642     
-807612.39      3.1967381      35.900302      25.922577      44.377141    
-807617.04      3.3600593      35.697073      25.928158      43.977908    
-807626.65      3.8829616      34.918194      25.922549      43.578768    
-807635.68      3.4969139      34.531367      25.882227      43.179864    
-807638.26      2.8464376      35.312895      25.961843      42.780698    
-807642.12      3.3631706      34.949782      25.933935      42.381715    
-807636.46      2.8573362      34.235595      25.986279      41.982592    
-807627.14      4.0194022      34.904245      25.951256      41.583679    
-807616.77      3.3006828      35.595557      25.938572      41.184884    
-807614         3.3614853      36.638856      25.982516      40.785987    
-807617.72      4.3367803      36.257951      25.981898      40.387162    
-807628.41      2.8935999      34.803841      25.911524      39.988672    
-807633.71      3.6272686      35.613821      25.920686      39.590211    
-807641.73      3.3560432      35.074961      25.91719       39.191826    
-807639.77      3.2883764      35.991622      25.885067      38.79362     
-807634.79      3.5724122      34.919994      25.903452      38.395407    
-807622.91      2.8781778      36.007236      25.931755      37.997154    
-807618.83      4.0888324      36.174261      25.954996      37.598882    
-807614.15      3.7421367      36.213375      25.953796      37.200678    
-807619.23      3.4869872      36.68438       25.933348      36.802608    
-807625.63      4.3402188      35.823952      25.925938      36.404623    
-807636.71      3.3254174      35.607444      25.919184      36.006721    
-807638.43      3.9874675      35.892152      25.872181      35.609031    
-807637.49      3.5686818      36.09447       25.911543      35.211269    
-807630.29      3.237715       35.727878      25.931196      34.813501    
-807624.38      4.6270881      36.196602      25.98943       34.415611    
-807616.4       2.9184062      37.14666       25.990548      34.01778     
-807614.47      4.0015336      36.887671      25.993091      33.620004    
-807619.62      3.2991189      36.490621      25.956628      33.222401    
-807628.81      2.9784382      35.941214      25.935001      32.824921    
-807637.83      2.688136       34.604205      25.911538      32.427566    
-807635.22      3.111996       36.486065      25.920174      32.03024     
-807638.01      2.8912508      35.15801       25.92752       31.632949    
-807630.18      2.9716781      35.852533      25.935133      31.235692    
-807623.44      3.2410276      36.026242      25.985374      30.838352    
-807613.36      2.8411233      36.864806      25.970583      30.441112    
-807615.04      2.9281612      37.192458      25.929215      30.044039    
-807621.97      3.566091       35.851072      25.990543      29.646859    
-807630.17      3.7165958      35.708935      25.942242      29.249861    
-807633.56      2.9439303      35.63525       25.91917       28.852977    
-807639.56      3.3880016      35.919874      25.900097      28.456192    
-807634.54      3.7558009      35.750703      25.935593      28.059369    
-807633.07      2.5693161      35.274458      26.000842      27.662441    
-807617.61      3.2277416      37.070764      25.989968      27.265596    
-807617.39      3.5150863      36.242322      25.923027      26.868964    
-807616.86      3.7247653      36.835275      25.922108      26.472383    
-807624.22      3.3719067      35.593628      25.920442      26.075857    
-807628.41      3.7062949      35.703915      25.923797      25.679372    
-807639.94      3.92795        34.834332      25.924534      25.282935    
-807638.66      3.4383036      34.684998      25.949412      24.886493    
-807636.34      3.1106296      34.654258      25.938205      24.490126    
-807628.36      3.9958821      34.59722       25.962705      24.093757    
-807623.23      2.98938        35.078506      25.94456       23.697477    
-807617.09      2.9651795      36.277123      25.928863      23.301276    
-807620.11      3.2918026      34.462048      25.924938      22.905131    
-807624.88      2.7737538      34.966022      25.957885      22.50897     
-807634.08      3.3873214      34.665788      25.944527      22.112883    
-807637.51      3.1138086      34.926903      25.912692      21.716902    
-807637.51      3.3937825      34.874766      25.930849      21.320934    
-807635.48      3.0693937      35.312537      25.947249      20.924984    
-807627.74      3.3842008      35.205421      25.997386      20.528994    
-807622.3       3.1430846      35.147148      25.963486      20.133111    
-807617.68      3.166711       35.498897      25.992682      19.737228    
-807621.3       2.6486077      34.627031      25.961009      19.341446    
-807626.74      3.2193837      34.364386      25.963264      18.945707    
-807633.44      2.4255563      34.399142      25.923538      18.550076    
-807636.53      3.2495544      34.439628      25.921905      18.154491    
-807639.22      3.061712       34.188321      25.920183      17.758951    
-807633.67      2.8715382      34.321034      25.953108      17.363408    
-807628.52      3.1771432      35.022058      25.971228      16.967883    
-807620.32      3.5276336      35.107137      25.998456      16.572367    
-807618.61      3.7321268      35.826729      25.988933      16.176912    
-807619.41      3.1439481      35.738355      25.977212      15.781518    
-807628.59      3.3208467      34.516068      25.960684      15.38619     
-807631.96      3.4700974      35.359466      25.953941      14.990914    
-807637.16      3.302078       34.94084       25.887925      14.595759    
-807636.59      3.730215       35.466084      25.913788      14.200613    
-807634.38      3.8537216      34.952249      25.925491      13.805494    
-807624.31      3.3768416      35.139553      25.920656      13.41042     
-807620.02      3.9568134      35.792387      25.92658       13.01538     
-807618.85      3.4839815      35.023914      25.975755      12.620329    
-807620.49      3.7534177      35.742357      25.955206      12.225342    
-807625.71      3.0169937      35.710304      25.896086      11.830452    
-807634.39      3.3095049      35.101463      25.967012      11.435535    
-807636.93      3.083008       35.130956      25.957437      11.040667    
-807634.85      3.1273605      35.438377      25.91793       10.645874    
-807631.54      3.6907157      35.095466      25.928838      10.251109    
-807624.31      3.6692402      35.624692      25.932769      9.8563801    
-807619.45      3.8935866      35.776443      25.999278      9.4616394    
-807618.03      2.9850614      35.828439      25.951551      9.0669752    
-807622.74      3.661754       36.262242      25.959832      8.6723444    
-807627.29      3.11409        35.034531      25.926988      8.2777743    
-807633.17      4.7853793      36.180798      25.918592      7.8832464    
-807635.25      3.5269707      35.280233      25.985273      7.4887156    
-807633.86      3.5164923      35.367604      26.001402      7.0942161    
-807628.74      2.68087        34.933894      25.995242      6.6997608    
-807623.85      2.9892911      35.364167      25.997578      6.3053448    
-807617.71      3.2488342      35.635003      25.92197       5.9110037    
-807618.76      3.2586581      36.54715       25.924885      5.5166966    
-807621.7       3.288336       36.169685      26.000132      5.1223949    
-807629.85      3.0177314      35.886276      25.951147      4.7281509    
-807632.47      3.0559067      35.603197      25.96454       4.3339387    
-807634.78      3.0991946      36.096705      25.922811      3.9397763    
-807632.92      3.4309613      35.000382      25.914914      3.5456502    
-807630.24      2.8148175      35.198952      25.919746      3.1515564    
-807620.99      3.6004741      36.204265      25.937476      2.7574926    
-807619.34      3.1315509      35.823668      25.980172      2.3634555    
-807619.51      3.3009406      36.047296      25.939309      1.9694615    
-807625.83      3.2988189      34.754074      25.916068      1.5755044    
-807629.52      3.3358955      34.941831      25.929918      1.1815787    
-807636.35      3.5846499      34.856842      25.947413      0.78768513   
-807634.47      3.0614391      35.613215      25.941409      0.39382582   
-807635.56      3.5779063      34.091928      25.956524      0            
Loop time of 196.904 on 32 procs for 5000 steps with 1080 atoms

Performance: 4.388 ns/day, 5.470 hours/ns, 25.393 timesteps/s, 27.424 katom-step/s
67.1% CPU use with 32 MPI tasks x 1 OpenMP threads

MPI task timing breakdown:
Section |  min time  |  avg time  |  max time  |%varavg| %total
---------------------------------------------------------------
Pair    | 101.2      | 143.91     | 192.93     | 311.7 | 73.09
Neigh   | 0          | 0          | 0          |   0.0 |  0.00
Comm    | 1.671      | 50.688     | 93.389     | 525.3 | 25.74
Output  | 0.026249   | 0.027087   | 0.02816    |   0.2 |  0.01
Modify  | 1.9487     | 1.9635     | 1.9739     |   0.5 |  1.00
Other   |            | 0.3151     |            |       |  0.16

Nlocal:          33.75 ave          48 max          21 min
Histogram: 8 8 0 0 0 0 0 8 0 8
Nghost:        1106.25 ave        1119 max        1092 min
Histogram: 8 0 8 0 0 0 0 0 8 8
Neighs:              0 ave           0 max           0 min
Histogram: 32 0 0 0 0 0 0 0 0 0
FullNghs:       5494.5 ave        7896 max        3378 min
Histogram: 8 8 0 0 0 0 0 8 0 8

Total # of neighbors = 175824
Ave neighs/atom = 162.8
Neighbor list builds = 0
Dangerous builds = 0

reset_timestep 0


variable interval equal 1000
thermo 10

variable nintervals equal $(v_PERIOD/v_interval)
variable nintervals equal 100
variable efield equal 1e-2*36.36*cos((step/${PERIOD})*2*3.14)
variable efield equal 1e-2*36.36*cos((step/100000)*2*3.14)
fix born all addbornforce 0.0 0.0 v_efield

variable Px equal f_born[1]+c_polarization[1]
variable Py equal f_born[2]+c_polarization[2]
variable Pz equal (f_born[3]+c_polarization[3])/vol
variable pe equal pe

fix aveP all ave/time 1 $(v_interval/2) ${interval} v_efield v_Pz v_pe f_born file Pz.${MODEL}.${STRUCTURE}.${TEMP}.$L.${ITER}
fix aveP all ave/time 1 500 ${interval} v_efield v_Pz v_pe f_born file Pz.${MODEL}.${STRUCTURE}.${TEMP}.$L.${ITER}
fix aveP all ave/time 1 500 1000 v_efield v_Pz v_pe f_born file Pz.${MODEL}.${STRUCTURE}.${TEMP}.$L.${ITER}
fix aveP all ave/time 1 500 1000 v_efield v_Pz v_pe f_born file Pz.BaTiO3-E0.${STRUCTURE}.${TEMP}.$L.${ITER}
fix aveP all ave/time 1 500 1000 v_efield v_Pz v_pe f_born file Pz.BaTiO3-E0.BaTiO3-sc333.${TEMP}.$L.${ITER}
fix aveP all ave/time 1 500 1000 v_efield v_Pz v_pe f_born file Pz.BaTiO3-E0.BaTiO3-sc333.330.$L.${ITER}
fix aveP all ave/time 1 500 1000 v_efield v_Pz v_pe f_born file Pz.BaTiO3-E0.BaTiO3-sc333.330.2.${ITER}
fix aveP all ave/time 1 500 1000 v_efield v_Pz v_pe f_born file Pz.BaTiO3-E0.BaTiO3-sc333.330.2.1

thermo_style custom step time temp press pe f_born v_efield v_Pz spcpu cpuremain

# dump 4a all custom 1000 dump.hyst.${MODEL}.${STRUCTURE}.${TEMP}.$L.${ITER}.bin id type xu yu zu fx fy fz
# dump_modify 4a sort id

fix nvt all nvt temp ${TEMP} ${TEMP} $(100*dt)
fix nvt all nvt temp 330 ${TEMP} $(100*dt)
fix nvt all nvt temp 330 330 $(100*dt)
fix nvt all nvt temp 330 330 0.2000000000000000111

run $(v_PERIOD)
run 100000
WARNING: non-constant efield is experimental, strongly distrust scalar/vector output (src/fix_addbornforce.cpp:193)
Per MPI rank memory allocation (min/avg/max) = 3.516 | 3.516 | 3.516 Mbytes
   Step          Time           Temp          Press          PotEng         f_born        v_efield         v_Pz          S/CPU         CPULeft    
         0   0              325.34297      129224.84     -807635.57     -296.66576      0.3636         0.055794459    0              0            
        10   0.02           325.5112       134076.08     -807629.16     -303.13668      0.36359993     0.057011467    28.213404      3544.079     
        20   0.04           326.66851      138431.37     -807622.88     -309.58319      0.36359971     0.058223908    28.213943      3543.6816    
        30   0.06           323.77413      140651.53     -807620.4      -311.6359       0.36359935     0.058610024    28.21118       3543.4281    
        40   0.08           323.62273      141445.92     -807620.73     -311.21365      0.36359885     0.058530691    28.260704      3541.5732    
        50   0.1            331.61054      135560.09     -807626.36     -306.66612      0.36359821     0.057675528    28.286621      3539.6696    
        60   0.12           314.86919      133776.62     -807628.44     -302.0644       0.36359742     0.056810194    28.264051      3538.7521    
        70   0.14           316.6202       127410.33     -807635.43     -295.27121      0.36359649     0.055532719    28.225         3538.6953    
        80   0.16           319.69993      130629.33     -807634.94     -295.9533       0.36359541     0.055661167    28.19879       3538.9754    
        90   0.18           317.48817      129237.7      -807633.08     -297.50567      0.36359419     0.055953315    28.183759      3539.3247    
       100   0.2            329.20671      136723.46     -807626.24     -305.63612      0.36359283     0.057482664    28.181596      3539.5601    
       110   0.22           333.75801      136403.79     -807625.09     -307.32736      0.36359132     0.057800985    28.196008      3539.5231    
       120   0.24           325.02472      143402.22     -807617.72     -313.07023      0.36358968     0.058881349    28.211247      3539.274     
       130   0.26           323.89772      138274.43     -807621.12     -309.4266       0.36358788     0.058196353    28.243239      3538.7003    
       140   0.28           331.30792      138483.54     -807623.5      -307.58512      0.36358595     0.057850317    28.261836      3537.9917    
       150   0.3            331.91286      129636.92     -807632.53     -298.4395       0.36358387     0.05613054     28.266835      3537.2888    
       160   0.32           328.0741       130410.11     -807633.18     -296.82627      0.36358165     0.055827464    28.238042      3536.8549    
       170   0.34           329.8184       127554.87     -807635.44     -294.61162      0.36357928     0.05541129     28.230409      3536.4861    
       180   0.36           331.19671      132472.8      -807630.1      -299.77561      0.36357677     0.056382935    28.228233      3536.1343    
       190   0.38           342.02555      134906.66     -807628.21     -303.05301      0.36357412     0.056999778    28.223347      3535.8144    
       200   0.4            338.42365      140825.86     -807621.03     -309.5405       0.36357132     0.058220427    28.249106      3535.3299    
       210   0.42           331.82221      141064.05     -807618.57     -310.92849      0.36356838     0.058481962    28.328399      3534.387     
       220   0.44           329.54196      140379.22     -807619.11     -309.87485      0.3635653      0.058284279    28.287241      3533.7307    
       230   0.46           346.1476       134810.42     -807626.19     -305.02915      0.36356207     0.057373361    28.255729      3533.2717    
       240   0.48           336.95763      131355        -807630.79     -299.0526       0.3635587      0.056249744    28.222819      3532.993     
       250   0.5            331.07992      129923.13     -807632.9      -296.00557      0.36355519     0.055677156    28.195558      3532.8449    
       260   0.52           334.00808      128508.26     -807633.82     -295.46785      0.36355153     0.055576573    28.187066      3532.7218    
       270   0.54           335.17593      132726.98     -807629.76     -299.66043      0.36354773     0.056365774    28.145156      3532.777     
       280   0.56           345.48852      135091.98     -807626.09     -304.86545      0.36354379     0.057345455    28.210324      3532.5104    
       290   0.58           345.44419      141222.04     -807620.44     -310.51021      0.3635397      0.058407895    28.225951      3532.1701    
       300   0.6            330.13085      140343.84     -807618.88     -310.06213      0.36353547     0.058324289    28.273924      3531.6293    
       310   0.62           331.22625      140936.4      -807620.03     -309.09664      0.3635311      0.058143374    28.196835      3531.4115    
       320   0.64           337.44874      133844.28     -807627.08     -303.05051      0.36352658     0.057006761    28.156513      3531.3435    
       330   0.66           335.9036       132834.62     -807629.64     -300.20476      0.36352192     0.056472171    28.149411      3531.285     
       340   0.68           327.75882      127590.54     -807634.55     -294.37713      0.36351712     0.055376655    28.186966      3531.07      
       350   0.7            327.00832      132466.09     -807631.17     -297.57765      0.36351217     0.05597948     28.200995      3530.7972    
       360   0.72           342.58991      130385.32     -807631.65     -299.54334      0.36350708     0.056350051    28.194026      3530.544     
       370   0.74           340.6852       138648.91     -807623.22     -307.69824      0.36350185     0.057884983    28.244192      3530.1155    
       380   0.76           334.36592      137651.89     -807622.46     -307.79928      0.36349647     0.057904847    28.292411      3529.533     
       390   0.78           337.49071      141698.05     -807620.38     -310.28002      0.36349095     0.058372423    28.29022       3528.9691    
       400   0.8            332.80182      136277.7      -807624.65     -305.63529      0.36348529     0.057499515    28.252423      3528.5335    
       410   0.82           331.73205      136666.85     -807625.89     -304.22921      0.36347948     0.057235902    28.263019      3528.0697    
       420   0.84           330.30079      128441.22     -807633.37     -296.76431      0.36347353     0.055832412    28.204128      3527.7861    
       430   0.86           325.06534      131165.47     -807633.42     -295.93146      0.36346744     0.055676656    28.216706      3527.4628    
       440   0.88           324.97323      129642.81     -807633.22     -296.38106      0.3634612      0.055762202    28.226864      3527.1091    
       450   0.9            335.80577      135251.66     -807626.84     -304.34871      0.36345482     0.057262269    28.23611       3526.7299    
       460   0.92           331.49841      137244.41     -807625.1      -305.70655      0.3634483      0.057518774    28.258032      3526.2921    
       470   0.94           334.93315      141043.22     -807621.34     -309.91056      0.36344163     0.05831083     28.261061      3525.85      
       480   0.96           321.50143      139502.1      -807620.51     -309.09899      0.36343482     0.05815922     28.23523       3525.4786    
       490   0.98           332.62448      138116.75     -807623.42     -307.78586      0.36342786     0.057913253    28.216467      3525.1558    
       500   1              329.66572      132575.26     -807629.66     -301.20587      0.36342077     0.056676263    28.216601      3524.8315    
       510   1.02           336.6998       129362.63     -807635.95     -9470.8742      0.36341353     0.055691193    28.140996      3524.6915    
       520   1.04           324.25225      129740.26     -807634.36     -9469.0757      0.36340614     0.055681748    28.175069      3524.4612    
       530   1.06           329.05432      130350.4      -807632.37     -9557.7556      0.36339862     0.056204384    28.176122      3524.2236    
       540   1.08           329.49988      135456.22     -807628.4      -9689.089       0.36339095     0.056977892    28.141876      3524.0613    
       550   1.1            335.31036      136974.26     -807626.77     -9772.6968      0.36338313     0.057470794    28.123679      3523.9335    
       560   1.12           324.67867      141980.45     -807619.91     -9945.9779      0.36337518     0.058491098    28.126635      3523.7909    
       570   1.14           334.06402      138910.16     -807622.67     -9905.5304      0.36336707     0.05825453     28.131923      3523.6292    
       580   1.16           313.81878      138056.89     -807623.24     -9793.4572      0.36335883     0.057596733    28.130801      3523.4634    
       590   1.18           322.94469      130877.85     -807632.3      -9547.8801      0.36335044     0.056153755    28.153834      3523.242     
       600   1.2            330.44535      131251.18     -807632.9      -9560.1213      0.36334191     0.056227069    28.142612      3523.0396    
       610   1.22           323.74521      128544.63     -807634.12     -9495.5423      0.36333324     0.055848586    28.203079      3522.708     
       620   1.24           319.34297      133439.25     -807631.13     -9569.1797      0.36332442     0.056283054    28.233393      3522.3147    
       630   1.26           324.3498       133356.26     -807630.08     -9629.4337      0.36331546     0.056638847    28.197175      3521.9944    
       640   1.28           330.61757      139342.08     -807622.82     -9887.4226      0.36330636     0.058157755    28.217052      3521.6343    
       650   1.3            324.19867      138273.92     -807621.6      -9901.9503      0.36329711     0.058244689    28.215656      3521.2771    
       660   1.32           325.07116      139148.99     -807622.66     -9867.7084      0.36328772     0.058044774    28.229569      3520.8936    
       670   1.34           324.37114      134665.39     -807628.19     -9688.2876      0.36327819     0.056990863    28.192755      3520.5795    
       680   1.36           320.6702       134054.39     -807628.54     -9659.2405      0.36326851     0.056821509    28.168013      3520.3099    
       690   1.38           325.96508      130691.26     -807632.29     -9561.4625      0.36325869     0.05624784     28.160684      3520.051     
       700   1.4            324.06018      130639.1      -807634.28     -9485.367       0.36324873     0.055801718    28.197003      3519.7244    
       710   1.42           323.44432      132028.68     -807632.19     -9546.5258      0.36323863     0.056163074    28.209641      3519.3749    
       720   1.44           334.6493       135601.42     -807627.31     -9749.867       0.36322838     0.057360967    28.121508      3519.1784    
       730   1.46           329.76257      138132.41     -807622.98     -9860.8787      0.36321798     0.058015737    28.126685      3518.9687    
       740   1.48           322.5277       138666.52     -807623.15     -9818.5061      0.36320745     0.057768117    28.104303      3518.793     
       750   1.5            327.64269      138417.91     -807623.53     -9819.4714      0.36319677     0.057775495    27.585327      3519.4983    
       760   1.52           333.16644      135261.33     -807625.58     -9774.7265      0.36318595     0.05751394     28.137601      3519.2465    
       770   1.54           327.02782      133434.42     -807628.52     -9643.5933      0.36317498     0.056744073    28.144636      3518.9804    
       780   1.56           313.85862      131400.14     -807631.49     -9483.5033      0.36316387     0.055803791    28.132028      3518.7324    
       790   1.58           334.59494      130953.79     -807633.03     -9516.7873      0.36315262     0.056001379    28.175579      3518.4126    
       800   1.6            339.05084      132363.85     -807629.92     -9630.7036      0.36314122     0.056673496    28.214477      3518.0314    
       810   1.62           331.53973      135973.63     -807624.8      -9752.8979      0.36312968     0.057394392    28.204684      3517.6658    
       820   1.64           344.0807       137675.68     -807625.81     -9770.5919      0.363118       0.057500369    28.169404      3517.3542    
       830   1.66           324.97816      139309.05     -807621.24     -9824.1036      0.36310618     0.057817171    28.137927      3517.089     
       840   1.68           336.1953       138405.66     -807622.11     -9842.5723      0.36309421     0.057927773    28.133781      3516.8279    
       850   1.7            335.42155      135400.95     -807625.24     -9735.6174      0.3630821      0.057300208    28.171155      3516.5095    
       860   1.72           329.5793       133132.19     -807629.32     -9571.22        0.36306984     0.056334528    28.164212      3516.2003    
       870   1.74           332.58138      130652.36     -807632.47     -9479.0548      0.36305745     0.055793965    28.201407      3515.8368    
       880   1.76           340.19867      131331.54     -807630.41     -9576.4717      0.3630449      0.056369311    28.198024      3515.4782    
       890   1.78           335.57146      132937.89     -807628.14     -9626.9093      0.36303222     0.056668178    28.219883      3515.0892    
       900   1.8            344.13136      135801.09     -807627.45     -9682.518       0.36301939     0.056997529    28.202923      3514.7243    
       910   1.82           341.66671      137334.37     -807623.64     -9792.354       0.36300642     0.057646154    28.197658      3514.3669    
       920   1.84           333.97281      139792.7      -807619.65     -9888.1151      0.36299331     0.058211988    28.179905      3514.0337    
       930   1.86           338.5278       137421.87     -807622.51     -9816.7725      0.36298005     0.0577941      28.158302      3513.729     
       940   1.88           333.37127      135889.37     -807626.49     -9665.4809      0.36296665     0.056905505    28.147536      3513.4375    
       950   1.9            325.5861       132586.51     -807628.72     -9560.2542      0.36295311     0.056288083    28.18412       3513.0965    
       960   1.92           343.89345      131548.45     -807630.88     -9574.7993      0.36293942     0.056375846    28.178513      3512.7626    
       970   1.94           333.4348       131746.97     -807630.22     -9552.6084      0.36292559     0.056247331    28.165171      3512.4454    
       980   1.96           326.55635      134005.89     -807627.02     -9627.3723      0.36291162     0.056689736    28.142579      3512.1563    
       990   1.98           334.48479      136016.75     -807626.32     -9692.6652      0.3628975      0.057076426    28.176344      3511.8232    
      1000   2              339.72255      139131.85     -807621.56     -9871.8327      0.36288325     0.05813376     28.189775      3511.4729    
      1010   2.02           335.19874      138039.21     -807622.07     -307.57565      0.36286884     0.057962857    28.26745       3511.027     
      1020   2.04           337.88425      137216.42     -807625.76     -304.41729      0.3628543      0.057369963    28.197741      3510.6678    
      1030   2.06           341.19503      133581.59     -807630.24     -300.65445      0.36283961     0.056663117    28.225785      3510.2748    
      1040   2.08           323.14766      132500.59     -807628.35     -300.34038      0.36282478     0.05660624     28.207674      3509.9042    
      1050   2.1            322.76784      131913.66     -807630.7      -298.17429      0.3628098      0.056200308    28.255317      3509.4776    
      1060   2.12           329.70921      131817.03     -807632.63     -297.47062      0.36279469     0.056070015    28.220072      3509.0936    
      1070   2.14           321.50236      134477.25     -807627.98     -301.30536      0.36277943     0.056795212    28.274461      3508.6472    
      1080   2.16           318.10896      137033.23     -807623.34     -305.73811      0.36276402     0.05763322     28.262495      3508.2162    
      1090   2.18           334.46276      138328.84     -807624.17     -307.30705      0.36274848     0.057931456    28.269091      3507.779     
      1100   2.2            334.00162      136535.25     -807626.26     -305.33852      0.36273279     0.057562851    28.266033      3507.3469    
      1110   2.22           331.13329      136485.35     -807626.93     -304.42054      0.36271695     0.057392299    28.263924      3506.9185    
      1120   2.24           326.82911      132561.21     -807628.83     -302.10083      0.36270098     0.056957473    28.258825      3506.4971    
      1130   2.26           326.1038       132213.56     -807631.21     -299.6293       0.36268486     0.056494006    28.268483      3506.0663    
      1140   2.28           317.29562      130101.56     -807633.52     -296.19687      0.3626686      0.055849338    28.285984      3505.6179    
      1150   2.3            326.64273      132909.59     -807632.09     -298.96118      0.36265219     0.056373113    28.249436      3505.2104    
      1160   2.32           322.08409      133970.55     -807627.7      -302.79282      0.36263564     0.057098224    28.267032      3504.7851    
      1170   2.34           331.03533      136619.76     -807625.68     -306.05247      0.36261895     0.057715559    28.265084      3504.3631    
      1180   2.36           332.61383      137274.32     -807626.83     -305.14047      0.36260212     0.057546246    28.255914      3503.9518    
      1190   2.38           323.56434      138503.49     -807623.97     -306.66319      0.36258514     0.057836121    28.272591      3503.5242    
      1200   2.4            330.12911      134811.05     -807626.45     -305.09217      0.36256802     0.057542547    28.237931      3503.1335    
      1210   2.42           324.74257      134411.58     -807628.59     -302.09084      0.36255076     0.056979188    28.260303      3502.7206    
      1220   2.44           322.13716      130743.68     -807633.74     -296.55174      0.36253335     0.055937111    28.240304      3502.3289    
      1230   2.46           327.1054       131618.09     -807632.89     -297.96317      0.3625158      0.056206062    28.226775      3501.9515    
      1240   2.48           313.54353      132342.94     -807629.36     -299.61328      0.36249811     0.056520088    28.23748       3501.5637    
      1250   2.5            331.44599      135276.29     -807627.94     -303.41602      0.36248028     0.057240265    28.25156       3501.1626    
      1260   2.52           325.34792      136369.33     -807626.54     -303.8135       0.3624623      0.057318095    28.280453      3500.7338    
      1270   2.54           329.90352      138616.19     -807623.72     -307.15506      0.36244418     0.057951417    28.244599      3500.3411    
      1280   2.56           327.82266      137815.33     -807623.42     -307.09906      0.36242592     0.057943771    28.198674      3499.9935    
      1290   2.58           332.07188      135437.15     -807627.61     -303.31537      0.36240751     0.057232767    28.218537      3499.6267    
      1300   2.6            333.53155      132237.85     -807631.71     -299.29294      0.36238896     0.056476664    28.223629      3499.2552    
      1310   2.62           330.55742      130127.73     -807632.94     -297.56133      0.36237027     0.056152805    28.216106      3498.8911    
      1320   2.64           324.78972      131164.87     -807631.12     -298.44256      0.36235143     0.056322029    28.309848      3498.4395    
      1330   2.66           328.1632       132024.44     -807631.36     -298.58397      0.36233245     0.056351666    28.320817      3497.9791    
      1340   2.68           322.05664      135914.41     -807627.26     -301.69466      0.36231333     0.056941751    28.24359       3497.5914    
      1350   2.7            325.23731      137577.42     -807623.5      -305.7822       0.36229407     0.057716302    28.22988       3497.2168    
      1360   2.72           336.07762      138996.83     -807622.82     -307.81917      0.36227466     0.058103892    28.200679      3496.8691    
      1370   2.74           330.21454      137000.4      -807624.63     -305.04143      0.36225511     0.057582674    28.192927      3496.5283    
      1380   2.76           341.69219      135132.92     -807628.66     -302.45457      0.36223542     0.057097457    28.189114      3496.1908    
      1390   2.78           322.61496      132629.5      -807628.69     -299.71241      0.36221558     0.056582888    28.199018      3495.8441    
      1400   2.8            333.5081       131697.92     -807631.68     -298.0742       0.3621956      0.056276715    28.226307      3495.4732    
      1410   2.82           327.71612      130110.23     -807633.36     -295.60095      0.36217548     0.055812861    28.22278       3495.1057    
      1420   2.84           334.93556      133636.09     -807629.99     -299.80872      0.36215522     0.056610506    28.275996      3494.692     
      1430   2.86           323.20976      134727.64     -807626        -302.28011      0.36213481     0.057080374    28.28766       3494.2691    
      1440   2.88           333.4796       138197.95     -807622.97     -306.63462      0.36211426     0.057905935    28.232318      3493.8946    
      1450   2.9            332.26397      137559.58     -807624.32     -305.09579      0.36209357     0.05761863     28.259477      3493.4972    
      1460   2.92           334.16932      139023.32     -807624.09     -305.47378      0.36207273     0.057693333    28.261061      3493.0992    
      1470   2.94           323.29675      133718.61     -807626.53     -301.60355      0.36205176     0.056965682    28.265022      3492.6984    
      1480   2.96           327.29758      133714        -807629.05     -299.50476      0.36203064     0.056572572    28.259851      3492.3025    
      1490   2.98           323.12025      129668.95     -807633.1      -294.88691      0.36200937     0.055703591    28.309635      3491.866     
      1500   3              329.85614      131914.09     -807631.26     -297.55648      0.36198796     0.056211193    28.311639      3491.429     
      1510   3.02           341.04194      132433.59     -807631.21     -9574.9776      0.36196642     0.056528444    28.248081      3491.045     
      1520   3.04           340.52699      135954.85     -807626.91     -9708.9079      0.36194472     0.057322572    28.166904      3490.7275    
      1530   3.06           333.1662       137295.54     -807624.38     -9756.5168      0.36192289     0.057607136    28.137269      3490.4335    
      1540   3.08           337.48015      139359.92     -807623.03     -9819.402       0.36190091     0.057981961    28.137214      3490.1388    
      1550   3.1            328.35707      136947.88     -807623.26     -9773.4276      0.36187879     0.057714018    28.148393      3489.8343    
      1560   3.12           321.11899      135689.88     -807625.17     -9678.8337      0.36185653     0.057158938    28.12432       3489.5484    
      1570   3.14           325.84221      132283.44     -807630.57     -9527.1858      0.36183412     0.056266856    28.099885      3489.2809    
      1580   3.16           323.68983      131553.23     -807631.73     -9480.9283      0.36181157     0.055997153    28.123281      3488.994     
      1590   3.18           337.79869      131150.16     -807632.56     -9515.639       0.36178888     0.05620569     28.154553      3488.6817    
      1600   3.2            335.13086      132355.29     -807629.81     -9592.1843      0.36176605     0.056661393    28.156857      3488.367     
      1610   3.22           339.69591      135496.51     -807627.77     -9676.8995      0.36174307     0.05716544     28.202745      3488.0166    
      1620   3.24           323.93963      137187.45     -807623.99     -9729.8678      0.36171995     0.057482019    28.192871      3487.6736    
      1630   3.26           345.89093      138299.3      -807624.53     -9810.6686      0.36169669     0.0579631      28.156109      3487.3585    
      1640   3.28           319.74656      136695.88     -807623.63     -9724.3517      0.36167329     0.057456844    28.144276      3487.0518    
      1650   3.3            326.32191      135467.84     -807628.13     -9608.7472      0.36164974     0.056777484    28.150922      3486.7395    
      1660   3.32           313.1804       131565.79     -807630.12     -9487.4467      0.36162605     0.0560644      28.20859       3486.3837    
      1670   3.34           343.9907       131059.83     -807633.44     -9517.6509      0.36160222     0.056246594    28.202967      3486.0321    
      1680   3.36           320.59498      131195.01     -807630.11     -9522.054       0.36157824     0.056276346    28.245172      3485.6494    
      1690   3.38           327.47281      134504.06     -807628.96     -9588.7165      0.36155413     0.056674109    28.213815      3485.29      
      1700   3.4            322.80719      135554.81     -807625.93     -9667.709       0.36152987     0.057144828    28.194193      3484.9449    
      1710   3.42           329.88969      138359.32     -807622.35     -9815.2065      0.36150546     0.058020586    28.159947      3484.6244    
      1720   3.44           340.0934       137357.38     -807624.38     -9795.7907      0.36148092     0.057909746    28.184037      3484.2863    
      1730   3.46           332.36532      135891.27     -807625.88     -9713.1809      0.36145623     0.057425304    28.139         3483.9801    
      1740   3.48           331.24137      134002.06     -807629.59     -9588.8866      0.3614314      0.056694358    28.142097      3483.6712    
      1750   3.5            327.9721       131562.94     -807630.63     -9544.1126      0.36140643     0.05643353     28.147303      3483.3581    
      1760   3.52           326.18633      131027.72     -807632.53     -9475.7355      0.36138131     0.056033116    28.132116      3483.0552    
      1770   3.54           322.92331      130958.23     -807632.19     -9476.8164      0.36135605     0.056043425    28.153463      3482.7368    
      1780   3.56           325.19686      134631.03     -807628.05     -9621.1319      0.36133065     0.05690087     28.16091       3482.4128    
      1790   3.58           328.55998      135712.58     -807626.26     -9700.154       0.36130511     0.057372274    28.107337      3482.1255    
      1800   3.6            327.01338      138910.15     -807623.31     -9789.1525      0.36127942     0.057902779    28.124458      3481.8257    
      1810   3.62           333.0237       136300.25     -807625.38     -9754.7142      0.3612536      0.057703201    28.130878      3481.5208    
      1820   3.64           326.22351      136785.81     -807625.48     -9724.563       0.36122763     0.05752898     28.125391      3481.2192    
      1830   3.66           328.31883      132164.78     -807629.79     -9602.3699      0.36120151     0.056810212    28.086755      3480.9432    
      1840   3.68           314.52214      132591.65     -807630.51     -9520.6759      0.36117526     0.056330983    28.11008       3480.6505    
      1850   3.7            320.53348      129251.16     -807634.48     -9428.0112      0.36114886     0.055786791    28.123331      3480.3483    
      1860   3.72           321.52398      132549.27     -807630.97     -9547.7319      0.36112232     0.056499346    28.167941      3480.0158    
      1870   3.74           320.35182      132820.78     -807629.17     -9608.3701      0.36109564     0.056862379    28.209001      3479.656     
      1880   3.76           323.47399      136811.16     -807626.16     -9718.9825      0.36106881     0.057521256    28.22446       3479.286     
      1890   3.78           319.43947      136833.38     -807625.64     -9723.8268      0.36104184     0.057554225    28.208212      3478.9268    
      1900   3.8            319.85016      137946.44     -807623.7      -9790.1126      0.36101474     0.057950915    28.232524      3478.5519    
      1910   3.82           319.04265      135109.91     -807626.38     -9703.3164      0.36098748     0.057441476    28.227871      3478.1803    
      1920   3.84           318.30519      133303.59     -807630.18     -9578.643       0.36096009     0.05670774     28.206034      3477.8228    
      1930   3.86           319.88848      129679.4      -807633.83     -9469.9989      0.36093255     0.05606882     28.201984      3477.4679    
      1940   3.88           320.43725      131669.3      -807632.77     -9505.339       0.36090487     0.056282374    28.169077      3477.134     
      1950   3.9            314.60158      131639.22     -807631.21     -9533.3388      0.36087705     0.056452516    28.158152      3476.8068    
      1960   3.92           330.49306      134654.91     -807630.71     -9616.5393      0.36084909     0.056949608    28.164611      3476.4752    
      1970   3.94           316.82885      135729.2      -807626.81     -9678.7575      0.36082098     0.057322532    28.142279      3476.1574    
      1980   3.96           314.56357      137927.54     -807623.52     -9770.4646      0.36079273     0.057870199    28.186888      3475.8114    
      1990   3.98           325.2177       137107.25     -807625.63     -9744.9175      0.36076434     0.057723426    28.1493        3475.4886    
      2000   4              327.12501      135199.4      -807628.4      -9659.1514      0.36073581     0.057219922    28.191578      3475.1394    
      2010   4.02           316.17599      133690.46     -807630.25     -298.19315      0.36070713     0.056531492    28.219593      3474.773     
      2020   4.04           313.63875      131690.42     -807630.85     -297.02815      0.36067831     0.05631513     28.19356       3474.4226    
      2030   4.06           342.19107      130732.35     -807634.75     -296.76919      0.36064935     0.056270551    28.198435      3474.0691    
      2040   4.08           330.51849      131760.13     -807632.05     -297.53279      0.36062025     0.056419891    28.26596       3473.675     
      2050   4.1            315.58839      135360.18     -807627.71     -299.42297      0.36059101     0.056782922    28.245234      3473.2937    
      2060   4.12           329.85717      136279.15     -807626.25     -302.61552      0.36056162     0.057393038    28.279263      3472.8924    
      2070   4.14           325.31599      139064.77     -807623.46     -304.46576      0.36053209     0.057748678    28.278453      3472.492     
      2080   4.16           324.58413      136054.93     -807624.47     -303.04689      0.36050242     0.057484288    28.241395      3472.1139    
      2090   4.18           328.35208      136451.38     -807626.44     -301.18481      0.36047261     0.0571358      28.246772      3471.7329    
      2100   4.2            327.09124      131834.66     -807629.54     -297.73632      0.36044265     0.056486304    28.254291      3471.3478    
      2110   4.22           332.71711      133451.44     -807629.51     -298.16791      0.36041256     0.056572909    28.242242      3470.9699    
      2120   4.24           333.40578      130329.23     -807632.64     -295.00992      0.36038232     0.055978424    28.271105      3470.5756    
      2130   4.26           333.58772      134349.32     -807629.43     -297.98525      0.36035193     0.056547763    28.261697      3470.1871    
      2140   4.28           334.18052      132106.21     -807629.8      -297.68458      0.36032141     0.05649549     28.269392      3469.7945    
      2150   4.3            342.83149      138117.77     -807624.33     -304.07328      0.36029075     0.057712869    28.278235      3469.3972    
      2160   4.32           337.67082      134599.87     -807625.12     -302.64222      0.36025994     0.057446167    28.278788      3469.0001    
      2170   4.34           333.53357      139240.27     -807623.59     -303.30797      0.36022899     0.057577484    28.2389        3468.6258    
      2180   4.36           328.24838      133904.22     -807626.89     -299.40038      0.36019789     0.056840604    28.222813      3468.2608    
      2190   4.38           337.02455      136274.53     -807627.15     -300.149        0.36016666     0.056987671    28.180093      3467.9198    
      2200   4.4            339.10532      130125.83     -807631.51     -296.1728       0.36013528     0.05623763     28.173455      3467.5825    
      2210   4.42           333.72554      133129.36     -807630.14     -296.60087      0.36010377     0.056323843    28.234901      3467.2108    
      2220   4.44           334.39262      130746.33     -807631.79     -295.17513      0.36007211     0.056058026    28.24076       3466.836     
      2230   4.46           333.08974      136133.88     -807625.23     -301.41968      0.3600403      0.057249013    28.245919      3466.4586    
      2240   4.48           343.16321      133818.91     -807626.43     -301.74803      0.36000836     0.057316463    28.271306      3466.0676    
      2250   4.5            334.81366      138034.16     -807624.4      -302.50406      0.35997627     0.057465191    28.209146      3465.7107    
      2260   4.52           334.44755      135352.86     -807625.68     -301.277        0.35994404     0.057237217    28.176876      3465.3714    
      2270   4.54           334.17138      136892.43     -807624.02     -302.86757      0.35991167     0.057544571    28.196058      3465.0215    
      2280   4.56           331.04287      133134.33     -807628.1      -298.44132      0.35987916     0.056708711    28.211052      3464.6636    
      2290   4.58           346.18088      132282.6      -807632.83     -295.82869      0.35984651     0.056217369    28.188809      3464.3176    
      2300   4.6            329.30384      130780.34     -807631.26     -295.18841      0.35981371     0.056100807    28.257742      3463.9348    
      2310   4.62           320.81813      134212.98     -807627.12     -298.17433      0.35978077     0.056673472    28.250461      3463.5561    
      2320   4.64           337.33402      133311.11     -807629.11     -298.66335      0.35974769     0.056771638    28.261206      3463.1719    
      2330   4.66           332.7409       136762.9      -807626.85     -300.33495      0.35971447     0.057094658    28.246844      3462.7955    
      2340   4.68           325.59917      137805.01     -807623.69     -302.60159      0.35968111     0.057530889    28.258155      3462.4134    
      2350   4.7            328.73286      137044.03     -807624.17     -302.70145      0.3596476      0.057555238    28.250979      3462.0353    
      2360   4.72           338.75195      135421.15     -807628.28     -300.08676      0.35961396     0.057063423    28.21143       3461.6779    
      2370   4.74           330.25502      131828.08     -807630.43     -296.94459      0.35958017     0.056471224    28.22628       3461.3129    
      2380   4.76           334.16097      132200.71     -807631.51     -296.51821      0.35954624     0.05639546     28.245206      3460.9382    
      2390   4.78           324.26965      131169.99     -807631.5      -295.34985      0.35951216     0.05617857     28.27283       3460.5495    
      2400   4.8            328.78358      132843.54     -807630.52     -297.0563       0.35947795     0.056508533    28.286427      3460.1543    
      2410   4.82           335.43766      131972.03     -807631.33     -297.52213      0.35944359     0.056602556    28.271369      3459.767     
      2420   4.84           322.21269      137924.02     -807625.01     -302.09822      0.35940909     0.057478658    28.274278      3459.3785    
      2430   4.86           329.40489      135287.9      -807627.49     -300.95283      0.35937446     0.057266251    28.213328      3459.021     
      2440   4.88           326.30526      137499.74     -807626.17     -301.9662       0.35933967     0.057464639    28.179695      3458.6804    
      2450   4.9            317.3763       132992.22     -807629.61     -297.64572      0.35930475     0.05664795     28.195116      3458.332     
      2460   4.92           318.07811      134872.18     -807628.8      -298.63206      0.35926969     0.056841219    28.262218      3457.9501    
      2470   4.94           318.62365      129945.92     -807632.73     -295.09117      0.35923448     0.056172754    28.32357       3457.5382    
      2480   4.96           313.09545      132796.14     -807630.24     -296.83105      0.35919913     0.056509514    28.320898      3457.1281    
      2490   4.98           328.98508      130322.33     -807634.09     -295.48447      0.35916364     0.056258715    28.270119      3456.7433    
      2500   5              325.75983      135470.54     -807628.21     -300.98897      0.35912801     0.05731243     28.248969      3456.369     
[...]
     98740   197.48         327.5251       134555.29     -807627.02     -9686.8743      0.36236891     0.057125534    27.613819      44.562266    
     98750   197.5          326.3895       135600.88     -807626.97     -9683.2104      0.36238762     0.05710098     27.562772      44.208713    
     98760   197.52         321.74756      133221.74     -807627.8      -9640.6322      0.36240618     0.056846989    27.591485      43.855153    
     98770   197.54         328.34737      134700.53     -807627.82     -9668.859       0.36242459     0.057010533    27.550998      43.501598    
     98780   197.56         323.68535      133114.47     -807628.92     -9617.5631      0.36244287     0.056705218    27.573425      43.148038    
     98790   197.58         318.52249      135379.06     -807627.17     -9648.0567      0.362461       0.056882164    27.571811      42.794476    
     98800   197.6          336.53196      133026.06     -807629.82     -9646.3117      0.36247899     0.056869053    27.60116       42.440907    
     98810   197.62         326.93124      136106.79     -807626.39     -9712.8885      0.36249683     0.057258732    27.653284      42.087329    
     98820   197.64         329.70811      134252.06     -807628.33     -9664.2533      0.36251453     0.05696924     27.633511      41.733752    
     98830   197.66         319.84491      135824.86     -807626.14     -9690.7137      0.36253209     0.057122452    27.614341      41.380176    
     98840   197.68         316.00303      134862.66     -807625.92     -9682.1405      0.36254951     0.057069176    27.634343      41.026595    
     98850   197.7          334.72771      134974.68     -807628.63     -9677.5913      0.36256678     0.057039644    27.642452      40.673012    
     98860   197.72         328.40625      133983.43     -807628.56     -9651.2608      0.36258391     0.056881764    27.669851      40.319422    
     98870   197.74         336.36496      133968.76     -807630.09     -9637.1597      0.3626009      0.056795996    27.638279      39.965836    
     98880   197.76         326.05261      133833.12     -807628.19     -9651.3899      0.36261774     0.056877218    27.598814      39.612254    
     98890   197.78         328.77372      135241.07     -807627.58     -9683.5398      0.36263445     0.057064055    27.603485      39.25867     
     98900   197.8          333.49562      134870.85     -807628.19     -9684.6634      0.362651       0.05706807     27.612354      38.905082    
     98910   197.82         321.24591      135829.98     -807625.36     -9718.6632      0.36266742     0.057265826    27.586908      38.551497    
     98920   197.84         324.32127      135869.43     -807626.31     -9704.7232      0.36268369     0.057181121    27.534912      38.197917    
     98930   197.86         320.26444      135961.61     -807626.09     -9692.0028      0.36269982     0.057103632    27.589305      37.844328    
     98940   197.88         335.25911      133875.85     -807628.5      -9680.8504      0.36271581     0.05703541     27.624346      37.490731    
     98950   197.9          332.89573      133554.59     -807628.67     -9664.579       0.36273165     0.056937059    27.632369      37.137132    
     98960   197.92         332.85506      134013.1      -807628.68     -9663.8369      0.36274735     0.056930223    27.646567      36.78353     
     98970   197.94         313.02308      134245.06     -807626.39     -9649.9467      0.36276291     0.056845957    27.612801      36.42993     
     98980   197.96         339.40992      135105.89     -807629.17     -9676.8844      0.36277832     0.05700222     27.613148      36.076329    
     98990   197.98         317.93453      134572.48     -807626.2      -9676.2764      0.36279359     0.056996239    27.603188      35.722727    
     99000   198            323.83045      136494.21     -807625.61     -9720.4644      0.36280872     0.057254132    27.652237      35.369117    
     99010   198.02         329.38967      134744.16     -807627.23     -302.94553      0.3628237      0.057097411    27.681416      35.015501    
     99020   198.04         326.9733       136278.57     -807626.2      -303.56508      0.36283855     0.057211839    27.693238      34.661882    
     99030   198.06         332.13259      132952.45     -807628.75     -301.7346       0.36285324     0.056864552    27.713585      34.30826     
     99040   198.08         331.07218      134687.97     -807627.78     -302.5277       0.3628678      0.057011731    27.670043      33.954641    
     99050   198.1          318.76368      133273.6      -807628.01     -300.6829       0.36288221     0.056661826    27.619161      33.601027    
     99060   198.12         321.64598      135769.02     -807625.76     -303.20781      0.36289648     0.057135384    27.617494      33.247412    
     99070   198.14         336.27054      133649.76     -807629.25     -301.86308      0.36291061     0.056879774    27.677842      32.893787    
     99080   198.16         326.8147       137094.45     -807625.26     -304.42849      0.36292459     0.05736096     27.70864       32.540157    
     99090   198.18         338.10989      134214.96     -807627.74     -303.57456      0.36293843     0.057197881    27.698664      32.186527    
     99100   198.2          332.97184      136493.1      -807626.88     -303.61683      0.36295213     0.057203686    27.679896      31.832898    
     99110   198.22         331.34532      133590.2      -807628.44     -301.92599      0.36296568     0.056882995    27.706715      31.479264    
     99120   198.24         341.27095      134485.76     -807628.69     -303.05324      0.36297909     0.05709326     27.702143      31.125629    
     99130   198.26         321.5928       133200.02     -807627.87     -301.22172      0.36299236     0.056746139    27.684247      30.771995    
     99140   198.28         319.93295      135614.6      -807626.35     -302.45084      0.36300548     0.056975629    27.665402      30.418361    
     99150   198.3          325.14429      133438.03     -807628.72     -300.89105      0.36301846     0.056679769    27.682567      30.064724    
     99160   198.32         339.10552      135640.64     -807627.74     -303.7258       0.3630313      0.057211736    27.711589      29.711082    
     99170   198.34         331.31752      135247.36     -807626.31     -304.11279      0.36304399     0.057282629    27.677226      29.357442    
     99180   198.36         331.09906      136824.13     -807626.52     -303.83913      0.36305655     0.057229105    27.667931      29.003802    
     99190   198.38         327.01972      134626.9      -807626.81     -302.96474      0.36306895     0.057062461    27.68459       28.650158    
     99200   198.4          338.40756      134761.3      -807627.64     -303.73011      0.36308122     0.057204683    27.69297       28.296512    
     99210   198.42         330.63287      134785.86     -807626.76     -303.55883      0.36309334     0.057170515    27.675611      27.942867    
     99220   198.44         324.64311      134171.99     -807628.35     -301.1326       0.36310532     0.056711702    27.682385      27.589219    
     99230   198.46         333.91395      133995.33     -807629.17     -301.56314      0.36311715     0.056790933    27.661089      27.235571    
     99240   198.48         340.22887      133099.8      -807629.91     -301.78571      0.36312885     0.056831018    27.675423      26.881921    
     99250   198.5          321.5422       136979.71     -807624.93     -304.11297      0.3631404      0.057267456    27.67911       26.528269    
     99260   198.52         331.58908      133722.21     -807627.26     -303.29664      0.3631518      0.05711194     27.653514      26.174617    
     99270   198.54         334.04887      136580.34     -807627.16     -303.63822      0.36316306     0.057174489    27.669931      25.820963    
     99280   198.56         323.25336      135339.48     -807626.02     -303.41657      0.36317418     0.057131002    27.604997      25.467313    
     99290   198.58         333.46222      137149.4      -807625.22     -305.62061      0.36318516     0.057544266    27.635127      25.113659    
     99300   198.6          339.16415      132705.57     -807629.65     -302.12274      0.36319599     0.056883969    27.658156      24.76        
     99310   198.62         329.62105      136529.12     -807627.66     -302.68134      0.36320668     0.056987465    27.668963      24.40634     
     99320   198.64         329.1545       131599.01     -807629.89     -300.65234      0.36321723     0.056603809    27.690254      24.052675    
     99330   198.66         333.15472      136652.63     -807626.29     -304.76089      0.36322763     0.057375683    27.739588      23.699005    
     99340   198.68         325.83133      132422.9      -807628.86     -301.39876      0.36323789     0.05674111     27.703804      23.345337    
     99350   198.7          328.76033      136676.43     -807626.36     -304.17639      0.36324801     0.057262431    27.687331      22.991668    
     99360   198.72         330.52299      132355.56     -807629.75     -301.37088      0.36325798     0.056732725    27.665472      22.638       
     99370   198.74         341.03238      137608.79     -807626.87     -305.66125      0.36326781     0.057538825    27.65408       22.284332    
     99380   198.76         330.91191      132372.29     -807628.91     -302.51642      0.3632775      0.056945312    27.664392      21.93066     
     99390   198.78         323.05912      137156.23     -807627.04     -303.1734       0.36328704     0.057067481    27.67576       21.576987    
     99400   198.8          322.86527      131790.05     -807629.53     -300.9662       0.36329644     0.056650547    27.706136      21.223309    
     99410   198.82         331.96565      136304.31     -807627.13     -304.60013      0.3633057      0.057333096    27.716863      20.869629    
     99420   198.84         325.49124      133194.8      -807628.11     -302.96969      0.36331481     0.057024777    27.72719       20.515947    
     99430   198.86         325.76516      135450.18     -807627.94     -303.12343      0.36332378     0.057052305    27.712196      20.162265    
     99440   198.88         330.24165      133740.92     -807629.49     -302.37096      0.36333261     0.056909296    27.688032      19.808583    
     99450   198.9          316.74332      136617.48     -807624.8      -305.2413       0.36334129     0.057448151    27.664633      19.454901    
     99460   198.92         329.70021      134514.31     -807628.1      -303.81926      0.36334983     0.057179171    27.687722      19.101216    
     99470   198.94         328.62839      135484.46     -807628.53     -303.30637      0.36335823     0.057081324    27.675787      18.74753     
     99480   198.96         319.3236       134834.01     -807627.32     -303.30341      0.36336648     0.057079472    27.665595      18.393844    
     99490   198.98         325.63078      134995.22     -807627.26     -304.26838      0.3633746      0.057259793    27.632593      18.040158    
     99500   199            313.97609      134894.09     -807626.28     -303.63293      0.36338256     0.057138956    27.697052      17.686466    
     99510   199.02         322.98618      134164.44     -807629.32     -9659.3518      0.36339039     0.056803107    27.656489      17.332775    
     99520   199.04         320.64228      134136.19     -807627.57     -9703.6557      0.36339807     0.057062435    27.636167      16.979084    
     99530   199.06         328.9937       134018.12     -807627.65     -9739.7229      0.3634056      0.057273341    27.593442      16.625394    
     99540   199.08         334.24595      135672.99     -807628.08     -9744.5239      0.363413       0.057300407    27.610214      16.271702    
     99550   199.1          328.16527      133453.96     -807629.07     -9683.6959      0.36342025     0.056941586    27.576861      15.918009    
     99560   199.12         331.84909      136418.84     -807627.85     -9734.5674      0.36342736     0.057239598    27.589577      15.564314    
     99570   199.14         329.55573      132589.33     -807628.52     -9704.3773      0.36343432     0.057060986    27.610789      15.210616    
     99580   199.16         316.65163      136499.55     -807625.4      -9739.5067      0.36344114     0.05726647     27.619268      14.856916    
     99590   199.18         321.22445      132620.29     -807629.77     -9619.6569      0.36344782     0.056560736    27.594825      14.503216    
     99600   199.2          316.97337      136523.57     -807625.84     -9718.8932      0.36345435     0.057143189    27.606631      14.149513    
     99610   199.22         335.53068      133049.48     -807629.24     -9692.35        0.36346074     0.056986124    27.616263      13.795808    
     99620   199.24         327.09029      137660.7      -807624.24     -9803.6553      0.36346699     0.057639552    27.642788      13.4421      
     99630   199.26         330.99525      133559.96     -807628.5      -9683.105       0.3634731      0.056929833    27.633847      13.08839     
     99640   199.28         327.31017      137248.1      -807624.86     -9771.179       0.36347906     0.057446704    27.615374      12.73468     
     99650   199.3          331.8385       132843.07     -807628.16     -9685.5915      0.36348487     0.056942607    27.664344      12.380966    
     99660   199.32         328.05578      136619.85     -807625.54     -9740.2571      0.36349055     0.057263098    27.619534      12.027253    
     99670   199.34         326.37912      132069.41     -807629.13     -9615.8987      0.36349608     0.056531133    27.61539       11.673538    
     99680   199.36         325.36961      136163.45     -807626.56     -9682.5477      0.36350147     0.056922114    27.595298      11.319822    
     99690   199.38         343.5378       132406.71     -807629.51     -9666.7709      0.36350671     0.056828545    27.603949      10.966104    
     99700   199.4          337.35232      136844.79     -807625.04     -9771.8781      0.36351181     0.057445638    27.609995      10.612384    
     99710   199.42         331.96598      134942.31     -807626.59     -9696.4256      0.36351677     0.0570013      27.561148      10.258665    
     99720   199.44         333.78666      136778.77     -807625.02     -9746.8373      0.36352158     0.057296891    27.543848      9.9049436    
     99730   199.46         342.12909      135441.57     -807626.02     -9749.5765      0.36352625     0.057312257    27.600261      9.5512188    
     99740   199.48         333.82113      135680.36     -807625.19     -9735.199       0.36353078     0.057227028    27.638471      9.197491     
     99750   199.5          341.60333      134355.18     -807629        -9645.3266      0.36353516     0.056698041    27.596032      8.843763     
     99760   199.52         328.47655      135066.6      -807626.95     -9648.9812      0.3635394      0.056718862    27.556608      8.4900344    
     99770   199.54         327.18589      136019.96     -807625.16     -9702.154       0.3635435      0.057030781    27.574253      8.1363035    
     99780   199.56         348.41322      133475.53     -807628.74     -9681.5877      0.36354745     0.05690927     27.591873      7.7825703    
     99790   199.58         338.86243      136124.11     -807626.04     -9722.3091      0.36355126     0.057148035    27.610927      7.4288349    
     99800   199.6          328.89561      134837.53     -807625.68     -9693.7157      0.36355493     0.056979388    27.562751      7.075099     
     99810   199.62         333.1868       138188.94     -807622.54     -9811.6186      0.36355845     0.057671859    27.610357      6.7213601    
     99820   199.64         342.30143      133727.34     -807627.11     -9710.0811      0.36356183     0.057074499    27.639544      6.3676188    
     99830   199.66         338.17586      136805.83     -807626.56     -9707.0278      0.36356507     0.057056045    27.627784      6.0138761    
     99840   199.68         331.81645      133706.99     -807627.91     -9643.855       0.36356816     0.056684245    27.631788      5.6601318    
     99850   199.7          331.36319      136581.61     -807625.32     -9727.8304      0.36357111     0.057177368    27.626963      5.3063859    
     99860   199.72         340.83293      132537.95     -807629.65     -9638.0774      0.36357392     0.056649389    27.647496      4.9526379    
     99870   199.74         331.56539      136787.08     -807626.36     -9703.8298      0.36357658     0.057035441    27.633921      4.5988886    
     99880   199.76         327.50283      134763.06     -807626.55     -9692.785       0.3635791      0.056970129    27.61515       4.245138     
     99890   199.78         343.84524      137466.66     -807625.29     -9812.8092      0.36358148     0.057675204    27.640067      3.8913854    
     99900   199.8          338.95481      134556.85     -807628.31     -9709.4308      0.36358371     0.057067243    27.623813      3.5376313    
     99910   199.82         326.19388      136680.46     -807625.72     -9746.1922      0.3635858      0.057282979    27.579517      3.1838761    
     99920   199.84         331.18477      134084.3      -807628.83     -9687.0343      0.36358775     0.056934975    27.546036      2.8301195    
     99930   199.86         331.97084      134710.62     -807628.45     -9713.1846      0.36358955     0.057088389    27.587636      2.4763607    
     99940   199.88         324.58131      133873.45     -807628.55     -9690.1987      0.36359121     0.056953031    27.649733      2.1225996    
     99950   199.9          318.2538       133829.68     -807628.34     -9679.1862      0.36359273     0.056888069    27.619374      1.7688372    
     99960   199.92         323.89217      135165.39     -807628.06     -9720.6438      0.3635941      0.057131515    27.598468      1.4150732    
     99970   199.94         316.93836      135458.38     -807626.72     -9741.8629      0.36359533     0.057256034    27.578438      1.0613075    
     99980   199.96         325.4236       135780.81     -807626.98     -9773.2794      0.36359641     0.057440507    27.583029      0.70754011   
     99990   199.98         321.69666      134329.41     -807628.47     -9711.9488      0.36359736     0.0570799      27.629357      0.35377087   
    100000   200            323.18645      135781.1      -807627.67     -9745.6538      0.36359816     0.057277868    27.584118      0            
Loop time of 3537.72 on 32 procs for 100000 steps with 1080 atoms

Performance: 4.885 ns/day, 4.913 hours/ns, 28.267 timesteps/s, 30.528 katom-step/s
62.6% CPU use with 32 MPI tasks x 1 OpenMP threads

MPI task timing breakdown:
Section |  min time  |  avg time  |  max time  |%varavg| %total
---------------------------------------------------------------
Pair    | 2554.9     | 2800.8     | 3137       | 264.6 | 79.17
Neigh   | 0.0016406  | 0.0017564  | 0.0019302  |   0.2 |  0.00
Comm    | 327.68     | 663.45     | 908.9      | 543.4 | 18.75
Output  | 2.3493     | 2.3588     | 2.3679     |   0.2 |  0.07
Modify  | 64.004     | 64.66      | 65.93      |   6.5 |  1.83
Other   |            | 6.412      |            |       |  0.18

Nlocal:          33.75 ave          44 max          25 min
Histogram: 4 1 4 1 4 10 5 1 0 2
Nghost:        1044.41 ave        1059 max        1027 min
Histogram: 2 2 2 2 5 5 4 5 4 1
Neighs:              0 ave           0 max           0 min
Histogram: 32 0 0 0 0 0 0 0 0 0
FullNghs:      5316.81 ave        6989 max        3885 min
Histogram: 4 1 4 1 4 10 5 1 0 2

Total # of neighbors = 170138
Ave neighs/atom = 157.53519
Neighbor list builds = 4
Dangerous builds = 0

Total wall time: 1:02:28
