
units		metal
atom_style	atomic

read_data ${STRUCTURE}.data
read_data BaTiO3-sc333.data
Reading data file ...
  orthogonal box = (0 0 0) to (11.898253 11.898253 12.912076)
  2 by 4 by 4 MPI processor grid
  reading atoms ...
  135 atoms
  read_data CPU = 0.011 seconds
replicate $L $L $L
replicate 2 $L $L
replicate 2 2 $L
replicate 2 2 2
Replication is creating a 2x2x2 = 8 times larger system...
  orthogonal box = (0 0 0) to (23.796507 23.796507 25.824152)
  2 by 4 by 4 MPI processor grid
  1080 atoms
  replicate CPU = 0.004 seconds

pair_style allegro
pair_coeff	* * ${MODEL}.pth Ba Ti O
pair_coeff	* * BaTiO3-E0.pth Ba Ti O
mass 1 137.3
mass 2 47.9
mass 3 15.9994

timestep 0.002
compute polarization all allegro polarization 3
compute allegro will evaluate the quantity polarization of length 3 (src/compute_allegro.cpp:53)
compute polarizability all allegro polarizability 9
compute allegro will evaluate the quantity polarizability of length 9 (src/compute_allegro.cpp:53)

thermo_style custom pe fmax fnorm spcpu cpuremain

variable efield equal 1e-2*36.36
fix born all addbornforce 0.0 0.0 ${efield}
fix born all addbornforce 0.0 0.0 0.3636

thermo 10
min_style fire
#minimize 0.0 1e-6 100 100
velocity all create ${TEMP} ${SEED} dist gaussian rot yes mom yes
velocity all create 340 ${SEED} dist gaussian rot yes mom yes
velocity all create 340 28941 dist gaussian rot yes mom yes
fix nvt all nvt temp ${TEMP} ${TEMP} $(100*dt)
fix nvt all nvt temp 340 ${TEMP} $(100*dt)
fix nvt all nvt temp 340 340 $(100*dt)
fix nvt all nvt temp 340 340 0.2000000000000000111
run 5000
Neighbor list info ...
  update: every = 1 steps, delay = 0 steps, check = yes
  max neighbors/atom: 2000, page size: 100000
  master list distance cutoff = 8
  ghost atom cutoff = 8
  binsize = 8, bins = 3 3 4
  1 neighbor lists, perpetual/occasional/extra = 1 0 0
  (1) pair allegro/kk, perpetual
      attributes: full, newton on, kokkos_device
      pair build: full/bin/kk/device
      stencil: full/bin/3d
      bin: kk/device
Per MPI rank memory allocation (min/avg/max) = 3.516 | 3.516 | 3.516 Mbytes
    PotEng          Fmax          Fnorm          S/CPU         CPULeft    
-807708.29      1.5959817      37.043506      0              0            
-807644.47      3.6081835      45.750719      2.0573654      2425.433     
-807635.71      2.7314044      35.663619      25.890491      1306.4605    
-807606.84      3.5891697      38.519603      25.89833       933.19282    
-807604.17      4.3841942      50.072735      25.840467      746.47312    
-807564.52      3.7690548      41.596727      25.824169      634.31069    
-807597.63      2.772374       40.189091      25.904487      559.3078     
-807641.86      3.91867        35.289575      25.874644      505.65534    
-807681.69      2.6864304      35.464668      25.861138      465.33185    
-807666.05      3.8412189      35.31784       25.843638      433.89746    
-807650.43      3.8504719      36.520403      25.894209      408.63553    
-807659.38      3.1895028      29.876214      25.908293      387.88712    
-807627.71      3.3234587      32.581473      25.886363      370.54577    
-807585.01      3.6312257      41.45069       25.886381      355.81287    
-807564.54      3.5821774      40.02351       25.918663      343.11278    
-807627.44      3.6154844      36.115354      25.849475      332.08798    
-807650.06      4.2586216      33.009816      25.852033      322.39177    
-807661.82      3.0580691      35.822687      25.834299      313.79832    
-807643.5       4.8382977      46.496015      25.871914      306.10162    
-807677.94      3.0271739      37.84077       25.807329      299.1989     
-807639.88      5.1818298      41.483972      25.796263      292.9517     
-807617.8       3.2588887      39.171365      25.865931      287.23873    
-807560         4.7338412      47.182032      25.8911        282.00181    
-807600.18      4.4280703      50.506079      25.844222      277.20122    
-807608.61      5.0025963      40.945092      25.793595      272.78348    
-807638.4       3.1868265      36.91502       25.855156      268.67063    
-807639.29      5.8004241      46.710386      25.889115      264.83515    
-807679.27      3.3018456      38.425714      25.823992      261.27222    
-807662.33      3.857226       36.203739      25.782977      257.94652    
-807635.89      2.9668846      33.423248      25.85088       254.80687    
-807607.43      3.6158129      34.65441       25.898415      251.83963    
-807602.63      4.1926775      41.787175      25.86845       249.04568    
-807593.5       3.3208091      38.332287      25.807543      246.41553    
-807603.19      3.1615716      35.054146      25.874756      243.90705    
-807638.63      3.0428137      31.033875      25.894686      241.51932    
-807669.41      2.7189712      32.741352      25.856739      239.2535     
-807674.3       2.8689683      34.137258      25.777779      237.10733    
-807640.14      4.4080503      40.800521      25.846195      235.04337    
-807646.71      2.8760204      32.959033      25.882881      233.06099    
-807618.58      4.4672437      37.18226       25.87948       231.16107    
-807598.34      3.9320574      45.258457      25.852416      229.34147    
-807562.85      4.2205767      44.821505      25.847329      227.59261    
-807616.49      3.9000178      38.762068      25.87673       225.90383    
-807642.34      4.9181443      38.645087      25.845253      224.2806     
-807668.6       3.2635018      36.587974      25.828222      222.71623    
-807638.63      5.473204       48.042023      25.852873      221.20044    
-807661.96      3.2179968      36.924388      25.830812      219.737      
-807645         4.1190465      37.806017      25.812935      218.32195    
-807624.2       3.0065849      38.000342      25.826251      216.94783    
-807564.96      3.8504159      43.993237      25.854498      215.6101     
-807593.12      3.9708826      44.350249      25.862254      214.30936    
-807618.68      3.8379436      36.440753      25.736929      213.06105    
-807649.33      2.9823591      33.749458      25.786079      211.83942    
-807638.64      5.4729672      41.870787      25.842006      210.64218    
-807667.25      2.9716691      35.184121      25.825026      209.47705    
-807664.54      3.9933263      35.554899      25.732595      208.35146    
-807641.57      3.7436323      33.244374      25.808101      207.24318    
-807600.3       4.4462464      36.368346      25.855487      206.15467    
-807594.03      3.6163788      39.311115      25.859008      205.08996    
-807602.42      4.6397231      41.605457      25.789214      204.05605    
-807611.44      4.940396       35.018417      25.858821      203.03603    
-807630.2       3.7922901      34.509308      25.872914      202.03526    
-807657.46      5.2172295      36.182045      25.867179      201.0549     
-807672.26      3.3255155      37.102856      25.754766      200.1051     
-807642.94      5.9136258      40.969651      25.814378      199.16674    
-807632.18      3.9539892      35.709502      25.852397      198.24152    
-807614.6       5.5337826      37.53938       25.882511      197.32966    
-807604.06      4.173828       45.891998      25.836867      196.43789    
-807576.74      5.5188889      41.817497      25.837268      195.56093    
-807607.68      3.5693801      38.391272      25.881543      194.69404    
-807638.94      4.2264016      37.222183      25.883003      193.84074    
-807668.03      3.228365       36.943706      25.811781      193.00703    
-807647.85      4.7081293      41.140322      25.817119      192.18525    
-807649.54      3.5124947      36.402943      25.815983      191.37546    
-807642.02      5.6746458      35.719987      25.831404      190.57577    
-807626.72      3.3413023      37.353804      25.806384      189.7892     
-807581.51      4.1235267      39.419056      25.839893      189.01033    
-807586.43      4.0866148      39.632848      25.882722      188.23812    
-807621.41      3.8754792      33.770144      25.823508      187.4806     
-807653.03      3.1870656      32.496538      25.821621      186.73261    
-807649.08      4.0570409      35.741949      25.833259      185.99271    
-807652.74      4.3182854      36.527802      25.769344      185.26649    
-807662.68      2.8166317      33.48461       25.774739      184.54811    
-807643.3       3.6702936      33.360666      25.788076      183.83668    
-807608.36      3.9537689      35.399886      25.835702      183.12942    
-807585.07      4.0300425      39.761034      25.863217      182.42768    
-807605.76      4.3598706      41.224756      25.801883      181.73769    
-807621.18      3.8950062      35.471098      25.793488      181.05525    
-807635.81      3.0795395      34.725667      25.861895      180.37471    
-807646.4       4.5132452      38.627784      25.88852       179.69894    
-807667.67      2.8824669      36.939474      25.864109      179.03126    
-807650.77      3.5210085      37.153198      25.787965      178.37489    
-807631.02      3.0083796      35.51404       25.861694      177.71946    
-807605.46      3.8757479      37.481192      25.864946      177.06959    
-807605.78      3.8370664      43.103641      25.870745      176.42495    
-807592.44      4.2303757      39.366094      25.789354      175.79094    
-807612.7       3.5979361      36.868726      25.834867      175.15919    
-807634.18      4.018499       36.349972      25.863067      174.53073    
-807663.27      2.9738236      35.769683      25.819954      173.90986    
-807655.08      3.5080119      37.44972       25.798842      173.29499    
-807645.42      3.1816903      36.10381       25.835263      172.68247    
-807632.27      4.0535583      35.316055      25.86325       172.07277    
-807623.41      3.4606019      36.230148      25.836345      171.46901    
-807593.9       3.5671357      38.854449      25.781315      170.87264    
-807585.1       2.9126521      40.489501      25.824844      170.27779    
-807617.5       2.9733077      35.131305      25.802845      169.68814    
-807650.23      2.8488726      34.472903      25.75189       169.10516    
-807655.57      3.4748518      35.492054      25.794975      168.52342    
-807645.89      3.7843922      38.567302      25.787663      167.94569    
-807652.51      3.2251679      34.962305      25.740496      167.37398    
-807640.76      3.4917788      34.920518      25.812409      166.80177    
-807613.61      3.2253762      37.394096      25.78993       166.23408    
-807579.54      3.9215423      41.196125      25.8604        165.66593    
-807600.95      3.9857757      39.601682      25.835683      165.10227    
-807623.43      3.7046843      36.356713      25.794813      164.54378    
-807643.81      2.9699598      34.60302       25.820462      163.98697    
-807641.05      4.3643179      39.527284      25.853573      163.43144    
-807660.57      2.9471944      36.522272      25.819097      162.88048    
-807650.42      3.7877833      37.402324      25.806426      162.33292    
-807632.41      3.0229634      35.617923      25.80997       161.78788    
-807597.98      4.7493778      39.537747      25.860049      161.24308    
-807600.23      4.0305393      41.66105       25.836396      160.70201    
-807600.45      4.5187035      39.514629      25.81071       160.16466    
-807621.27      3.0275881      35.960692      25.853937      159.62776    
-807630.89      5.2001434      37.470936      25.843913      159.09373    
-807658.57      3.5219872      35.530778      25.841842      158.56215    
-807656.12      3.9676271      36.54158       25.798916      158.03478    
-807644.95      4.4675468      35.652766      25.786738      157.51015    
-807624.84      3.729132       35.267304      25.822506      156.98609    
-807616.9       3.7934124      36.889377      25.841329      156.46335    
-807598.05      4.3348878      40.457376      25.804751      155.94425    
-807596.93      3.2858888      39.067792      25.828552      155.42615    
-807616.41      4.1627061      36.0022        25.774581      154.9123     
-807645.81      3.4004402      35.129756      25.752954      154.40124    
-807655.98      3.2852893      37.157501      25.665435      153.89563    
-807646.86      3.9376293      37.845276      25.694913      153.39054    
-807642.31      4.3506699      36.138314      25.799743      152.88291    
-807635.59      3.0351919      34.22281       25.803189      152.3769     
-807615.39      3.4549955      37.589342      25.76804       151.87399    
-807586.71      4.0548091      39.365643      25.740144      151.37382    
-807600.73      2.9725799      37.649574      25.814745      150.87237    
-807626.83      3.2872269      34.894168      25.836549      150.3717     
-807648.2       3.5890012      34.990972      25.811031      149.87359    
-807644.81      5.2857331      38.692474      25.802998      149.37733    
-807652.61      3.4115775      35.87207       25.834708      148.88141    
-807647.28      4.6164434      35.844917      25.826553      148.38729    
-807634.97      3.3460569      34.955065      25.836885      147.89426    
-807599.08      4.0479294      38.305454      25.858723      147.40188    
-807596.67      3.4202724      39.938043      25.886881      146.90993    
-807606.45      3.8241975      37.791684      25.865594      146.42015    
-807630.95      3.423197       35.228144      25.854124      145.93215    
-807637.54      3.9958481      36.150734      25.774418      145.44825    
-807652.77      3.5625653      35.250351      25.814894      144.96422    
-807655.6       3.3961968      35.429756      25.74014       144.484      
-807646.87      3.1760962      34.752585      25.821379      144.00223    
-807622.86      3.3198287      35.145367      25.852102      143.52065    
-807606.56      3.2459049      36.791756      25.851038      143.04033    
-807603.6       3.4086104      39.403516      25.794082      142.56306    
-807608.02      3.3313512      37.201832      25.82305       142.08598    
-807623.74      4.3101766      34.507905      25.848999      141.6092     
-807642.69      3.3994527      34.382455      25.813576      141.13467    
-807660.42      3.4405724      34.084038      25.770587      140.66259    
-807650.53      2.9401305      35.596379      25.77163       140.19151    
-807640.01      4.2249401      34.788189      25.782824      139.7211     
-807625.3       3.7085728      35.303975      25.819158      139.25058    
-807614.45      4.506442       38.730763      25.786176      138.78207    
-807593.5       3.531151       39.893719      25.777885      138.31479    
-807603.75      3.0102755      38.294917      25.777022      137.84848    
-807625.95      3.7993738      36.111039      25.800697      137.38241    
-807650.86      2.8984733      35.747424      25.789571      136.91758    
-807646.7       3.762778       38.357938      25.780479      136.45393    
-807648.53      3.312675       35.858324      25.809663      135.99033    
-807640.49      3.3138951      35.520994      25.800204      135.52788    
-807630.07      3.6751775      35.689833      25.805793      135.06614    
-807601.99      3.5430559      37.143102      25.812618      134.60505    
-807593.54      3.3285139      39.713395      25.888164      134.14271    
-807610.05      3.2733419      36.696783      25.828179      133.68289    
-807634.53      2.8402152      35.064758      25.82995       133.22384    
-807642.11      4.4087136      36.09862       25.859946      132.76478    
-807647.77      3.4623094      36.796461      25.852728      132.30673    
-807649.57      3.563113       37.027726      25.796104      131.85097    
-807642.66      3.4084154      35.651717      25.793344      131.39605    
-807620.3       4.6701725      36.09831       25.821663      130.94112    
-807598.84      3.9371292      38.924136      25.862062      130.48588    
-807600.34      4.3182705      39.568396      25.81824       130.03251    
-807613.54      5.4643903      37.282358      25.837095      129.57937    
-807629.45      3.1244412      34.481776      25.84146       129.12684    
-807638.06      4.357925       36.954325      25.806328      128.67589    
-807654.11      3.0212411      35.690862      25.795602      128.22588    
-807648.26      3.2384338      36.701451      25.788721      127.7767     
-807636.81      3.5745258      34.989062      25.83786       127.32696    
-807615.57      3.7204444      35.780581      25.810659      126.87855    
-807609.67      3.3120539      37.906677      25.824201      126.43044    
-807601.15      3.6443524      38.584699      25.786933      125.98385    
-807612.06      3.2976857      36.375477      25.795765      125.53765    
-807626.43      4.8848724      35.815974      25.807914      125.09178    
-807648.1       3.3055447      35.317225      25.797159      124.64675    
-807648.16      4.1420145      36.276901      25.722161      124.20404    
-807644.62      3.4012609      35.944592      25.752408      123.76117    
-807633.76      3.9400406      35.723861      25.768435      123.3185     
-807623.38      3.466798       37.287109      25.823651      122.87512    
-807607.28      3.6662967      37.85098       25.81831       122.43242    
-807599.03      3.8224958      38.806282      25.850609      121.98955    
-807611.08      4.4142241      37.224099      25.845532      121.54735    
-807635.11      2.7796923      34.508154      25.842794      121.10575    
-807644.57      3.172013       35.664664      25.839893      120.66475    
-807644.25      3.347625       37.152621      25.846101      120.22413    
-807643.04      3.3687242      36.018992      25.816439      119.78467    
-807638.03      4.3858627      35.17824       25.809938      119.34584    
-807621.75      3.3299669      35.205741      25.825081      118.90719    
-807600.21      4.0817893      38.406065      25.836032      118.4688     
-807603.19      3.3782939      38.483553      25.83138       118.031      
-807620.66      3.5285429      36.091502      25.83979       117.5935     
-807634.94      2.8083503      34.236945      25.788159      117.15752    
-807639.61      3.6091715      35.971215      25.790584      116.72194    
-807649.74      3.0582097      34.813322      25.809826      116.28642    
-807646.07      3.2629233      35.461996      25.79484       115.85164    
-807634.97      4.9022312      34.911413      25.824881      115.41671    
-807612.31      3.8319105      36.205316      25.833086      114.98206    
-807605.55      4.0525719      38.255698      25.834699      114.54781    
-807607.85      3.4570697      38.174689      25.836983      114.11395    
-807620.2       3.7408087      35.938629      25.835668      113.68053    
-807630.52      3.9521516      36.648538      25.81947       113.24784    
-807646.07      3.6095466      36.350391      25.795133      112.81601    
-807650.16      3.0148181      35.848971      25.817337      112.38416    
-807643.77      3.8916676      35.378885      25.819125      111.95267    
-807629.33      4.2865353      35.793963      25.802561      111.52188    
-807616.99      3.2687209      36.289116      25.815936      111.09123    
-807608.39      3.6943672      37.013026      25.819134      110.6609     
-807608.37      3.8533315      37.063636      25.832778      110.2307     
-807618.17      4.3197259      35.949247      25.842864      109.8007     
-807636.6       3.496124       34.934105      25.830336      109.37129    
-807645.51      3.4857602      35.60854       25.827625      108.94229    
-807645.23      3.2070613      36.331418      25.827168      108.51366    
-807636.67      3.4763687      36.694312      25.802036      108.08581    
-807631.82      3.0141728      35.135761      25.841334      107.65764    
-807619.22      3.7465312      36.907335      25.861422      107.22948    
-807602.87      3.2437667      38.059893      25.838899      106.80205    
-807607.01      3.6264951      38.076322      25.878268      106.37431    
-807621.76      3.4424759      37.170367      25.848798      105.94739    
-807636.29      3.8178287      37.07994       25.846731      105.52085    
-807639.84      4.6785516      37.277812      25.829642      105.0949     
-807642.15      4.8078667      37.555916      25.836801      104.66917    
-807639.27      3.6552152      37.026883      25.794812      104.24442    
-807631.61      3.3391004      35.955794      25.820811      103.81956    
-807608.61      3.5856315      37.585342      25.807384      103.39522    
-807602.85      3.6339838      38.796888      25.802008      102.97126    
-807609.31      3.7797405      38.117255      25.8167        102.54737    
-807626.35      3.3068444      36.518824      25.806016      102.12394    
-807632.51      4.0345076      36.691377      25.775685      101.70125    
-807643.47      3.3888845      35.920616      25.797419      101.27852    
-807644.65      3.5495701      36.897117      25.787885      100.85621    
-807639.32      3.2475987      35.747335      25.819297      100.43371    
-807624.67      2.9667923      35.648667      25.835072      100.01125    
-807608.95      3.2001816      37.311156      25.835379      99.589073    
-807606.13      3.0779164      37.777026      25.809556      99.167541    
-807612.16      4.082022       38.050483      25.830984      98.745969    
-807623.57      2.9162025      36.122175      25.838811      98.324553    
-807635.64      2.9598468      35.458425      25.821928      97.903642    
-807644.33      3.5601846      36.320053      25.808607      97.483177    
-807644.33      3.5282095      35.680966      25.835948      97.062586    
-807634.84      4.1701636      35.620168      25.8626        96.641888    
-807622.19      3.4000509      35.527528      25.863889      96.221432    
-807614.09      3.154975       37.477949      25.868795      95.801167    
-807607.25      3.4228829      37.851513      25.833506      95.381629    
-807613.41      3.3160316      36.185203      25.858685      94.962002    
-807623.43      3.2346683      35.850339      25.863721      94.542556    
-807640.01      3.1380979      35.671827      25.832196      94.123768    
-807643.1       3.2072934      36.208057      25.833664      93.705197    
-807640.73      4.3454379      36.540305      25.818902      93.28705     
-807634.8       2.8523614      34.948917      25.828999      92.869002    
-807627.51      4.0398331      35.48983       25.805788      92.451477    
-807612.3       3.2416268      36.652885      25.793483      92.034328    
-807606.39      4.0159792      36.993458      25.814489      91.617132    
-807612.93      3.2132359      35.989417      25.787685      91.200485    
-807630.15      3.3749993      35.214204      25.797075      90.783933    
-807638.6       3.3325614      35.664329      25.807026      90.367469    
-807644.17      3.6469648      35.311671      25.785233      89.951478    
-807641.73      3.9473848      35.767482      25.8035        89.535471    
-807638.86      3.2254057      35.157899      25.812502      89.11956     
-807623.45      3.7445028      35.72945       25.80697       88.703919    
-807607.15      3.1568423      37.223158      25.817556      88.288353    
-807606.9       4.9703402      37.591014      25.816615      87.872999    
-807619.31      3.0133136      35.568339      25.820672      87.457797    
-807630.05      3.3678765      35.073317      25.787208      87.043173    
-807637.9       3.9281227      35.075425      25.772712      86.628902    
-807644.69      4.7707775      35.568295      25.826135      86.214214    
-807643.44      2.680145       35.280624      25.794302      85.800072    
-807634.89      3.4745845      35.306888      25.837805      85.385633    
-807616.26      3.0796657      36.30572       25.863507      84.971104    
-807609.86      3.1967917      37.471386      25.87638       84.556627    
-807610.1       3.593874       38.043283      25.885853      84.142241    
-807618.25      3.5081753      36.169747      25.879757      83.728113    
-807626.5       4.0528785      35.772024      25.863526      83.314345    
-807641.49      3.0067761      35.658772      25.870367      82.900689    
-807642.69      3.8796104      36.875171      25.871807      82.487203    
-807639.22      3.7892263      36.260505      25.884828      82.073765    
-807626.05      4.7803385      36.373102      25.856856      81.660796    
-807618.23      3.0915596      37.15167       25.86247       81.247945    
-807607.01      4.281905       37.931185      25.821333      80.835684    
-807610.31      3.0181861      37.601552      25.841769      80.423385    
-807614.65      2.8937661      36.723828      25.836565      80.011305    
-807632.53      2.9176152      35.351122      25.852243      79.599238    
-807641.04      2.9212543      36.033905      25.826331      79.187589    
-807643.42      3.6160868      35.900386      25.812842      78.776233    
-807634.62      3.1790089      36.470778      25.803116      78.365126    
-807628.41      3.5259933      35.663275      25.803027      77.954174    
-807618.06      3.2340322      36.606147      25.829424      77.543126    
-807606.62      3.0507955      37.389409      25.881749      77.131745    
-807607.51      3.4348965      36.890994      25.842697      76.720887    
-807622.34      3.6558285      35.584256      25.826042      76.310335    
-807634.02      3.1606735      34.794121      25.846531      75.899748    
-807641.51      3.1266119      35.165038      25.836952      75.489399    
-807638.68      3.6512515      36.77216       25.843905      75.079136    
-807638.48      4.0136496      35.286263      25.823531      74.669203    
-807631.91      2.9602363      34.778482      25.807948      74.259551    
-807613.9       2.8479294      35.772807      25.845328      73.849713    
-807608.8       2.6838838      36.17997       25.852145      73.439961    
-807611.33      2.8518363      37.120153      25.834192      73.030507    
-807625.85      2.8074326      35.063898      25.826452      72.621259    
-807631.92      2.9368226      35.566348      25.851912      72.211934    
-807641.17      3.2322568      35.41693       25.85836       71.802697    
-807641.17      4.1782642      36.277629      25.848976      71.393676    
-807641.48      3.2283237      36.029481      25.864909      70.984661    
-807623.25      3.260228       36.074486      25.853224      70.575881    
-807615.53      3.0895621      35.64734       25.871522      70.167088    
-807610.05      3.3563526      37.657509      25.876076      69.758395    
-807617         3.2179181      36.20455       25.833917      69.350172    
-807623.18      3.0623691      35.086788      25.870933      68.941787    
-807634.38      3.2884322      34.76711       25.856889      68.533645    
-807641.64      3.5079834      35.87177       25.856926      68.125632    
-807645.71      3.3483195      34.49834       25.779041      67.718344    
-807632.3       3.5081539      36.134317      25.818158      67.310875    
-807624.21      2.9187566      36.273914      25.832519      66.903419    
-807615.96      3.3535625      36.799195      25.790181      66.496401    
-807611.37      3.6464566      36.944723      25.800935      66.089418    
-807612.93      3.0870857      36.46183       25.798173      65.682571    
-807625.53      3.5854125      35.18504       25.826941      65.275629    
-807638.63      3.0952965      34.460362      25.799666      64.869001    
-807643.89      4.2919823      35.129508      25.810064      64.46241     
-807640.3       2.9875475      35.048936      25.787115      64.056095    
-807632.86      3.3483838      35.8407        25.830776      63.649582    
-807626.83      3.048057       35.18736       25.847343      63.243068    
-807613.16      3.0667509      36.853581      25.832649      62.836769    
-807607.3       3.2819509      37.312965      25.902618      62.430108    
-807613.6       3.7552684      36.814638      25.861073      62.023844    
-807628.32      3.321329       36.565656      25.845197      61.6178      
-807636.66      4.0003508      35.909206      25.848337      61.211845    
-807639.71      2.7672732      36.118215      25.86105       60.805917    
-807638.98      5.2729318      36.060096      25.846102      60.400195    
-807634.52      3.6352947      35.838494      25.813629      59.99479     
-807622.18      4.2604501      36.330819      25.838355      59.58933     
-807608.2       3.7016911      37.718502      25.901264      59.18358     
-807606.86      3.2766074      37.911901      25.866595      58.778157    
-807616.8       3.3189558      36.925912      25.810274      58.373187    
-807627.17      3.1796071      35.68871       25.815979      57.968282    
-807633.46      3.5718719      37.004427      25.805878      57.563537    
-807640.91      3.6201854      36.381841      25.835287      57.158711    
-807639.41      2.8799142      36.314166      25.806617      56.754155    
-807628.95      3.1784142      36.016347      25.779079      56.349857    
-807618.9       3.8665828      36.309103      25.852435      55.945222    
-807609.76      3.1543758      37.473764      25.844558      55.540731    
-807612.34      3.9916777      37.563918      25.827449      55.136434    
-807619.1       4.0492865      35.953419      25.791616      54.732435    
-807627.02      4.0240075      36.465535      25.837217      54.32827     
-807635.7       3.6041164      36.428325      25.82016       53.924293    
-807640.51      3.79113        36.810356      25.784273      53.520604    
-807635.27      4.1631861      37.093679      25.808041      53.116873    
-807627.09      3.4375483      37.023052      25.834975      52.713085    
-807618.28      3.4910827      36.919508      25.809362      52.309524    
-807611.87      3.2108413      38.100431      25.787269      51.906167    
-807611.05      4.0632697      38.253665      25.801414      51.50282     
-807617.03      3.3770921      37.07909       25.841386      51.099351    
-807631.97      4.7791262      36.694219      25.799717      50.696183    
-807636.34      3.2568603      36.70993       25.821152      50.292991    
-807640.73      4.4392878      35.953421      25.816147      49.889908    
-807634.12      4.1094529      35.825565      25.848132      49.486751    
-807630.94      3.1805864      35.246314      25.855782      49.083643    
-807619.25      3.2308378      36.390069      25.879242      48.680508    
-807611         2.8510709      36.521158      25.859509      48.277555    
-807611         3.2041466      37.165674      25.850955      47.874729    
-807621.61      3.8189906      35.767538      25.857753      47.471955    
-807633.06      3.5119652      35.667245      25.90386       47.069051    
-807638.37      4.4772018      35.796792      25.846793      46.666497    
-807639.91      3.0543479      35.168792      25.820612      46.264142    
-807636.93      3.6703997      35.489003      25.852341      45.861724    
-807628.79      2.7503034      35.261596      25.842123      45.459432    
-807616.21      3.1182719      36.369008      25.823457      45.057301    
-807609.92      2.88554        37.186419      25.819336      44.655264    
-807614.13      3.3148249      36.815028      25.798954      44.25339     
-807625.08      3.9649318      35.308664      25.852496      43.851363    
-807632.49      3.5868266      35.658089      25.822251      43.449541    
-807637.9       3.6287832      36.062257      25.850428      43.047676    
-807640.45      2.8317985      35.748917      25.783103      42.646162    
-807635.53      3.7190576      36.199289      25.791802      42.244683    
-807625.98      4.1428626      35.424975      25.794297      41.843264    
-807616.11      3.6386542      36.505026      25.8437        41.441719    
-807612.93      3.1941746      37.023355      25.773561      41.040521    
-807616.33      3.3957445      37.290751      25.76627       40.639417    
-807623.95      3.0550668      35.483117      25.821836      40.238168    
-807633.99      3.2256042      35.667765      25.890627      39.836731    
-807640.23      3.3876094      35.765594      25.839973      39.435556    
-807639.32      3.1834016      35.578262      25.804501      39.034582    
-807631.26      3.9445265      35.958094      25.841195      38.633542    
-807626.61      3.4454954      34.804012      25.863876      38.232491    
-807617.82      3.5630907      35.852887      25.847045      37.831571    
-807613.22      3.0656416      36.081172      25.833208      37.430767    
-807614.61      3.1973084      36.396121      25.865609      37.02992     
-807626.87      2.9884493      34.580728      25.858392      36.629167    
-807633.96      4.1477913      35.639508      25.829019      36.228581    
-807639.16      2.9081658      35.745757      25.848108      35.827997    
-807637.19      3.3755808      36.080192      25.840645      35.427504    
-807631.51      3.9135989      36.864619      25.886213      35.026931    
-807624.94      4.1734146      35.810826      25.82805       34.626611    
-807616.21      3.6780978      36.494722      25.813126      34.2264      
-807609.3       3.2626009      38.079871      25.82647       33.826211    
-807616.42      3.3390662      37.00759       25.903358      33.425851    
-807626.41      4.1216208      36.588032      25.817837      33.025815    
-807632.57      3.2304645      35.899534      25.796979      32.625901    
-807637.34      3.6190879      36.566597      25.752363      32.226176    
-807636.56      2.8884798      36.188515      25.762478      31.826475    
-807630.25      2.8601694      35.45416       25.796254      31.426735    
-807622.51      2.9442532      35.969758      25.816836      31.026994    
-807611.27      3.7544635      36.864199      25.80838       30.627335    
-807612.37      3.4463523      37.022937      25.810744      30.227727    
-807617.98      5.4488893      36.555719      25.789707      29.828233    
-807626.37      3.2159616      35.705226      25.796826      29.428774    
-807633.51      3.7638307      36.128798      25.793024      29.029381    
-807639         3.2251874      35.185298      25.799549      28.630026    
-807638.32      4.1376945      35.842331      25.772916      28.230792    
-807630.07      3.5367598      34.8052        25.84914       27.831425    
-807620.21      3.004815       35.627292      25.853018      27.432105    
-807613.39      2.7016762      37.1015        25.863031      27.032821    
-807613.61      3.1689701      37.781014      25.881862      26.633551    
-807617.96      3.6773478      36.618787      25.862507      26.234384    
-807627.9       4.0298138      36.465858      25.829867      25.835348    
-807634.47      3.0806177      36.213624      25.829159      25.436368    
-807638.86      3.7913021      36.588541      25.828921      25.037443    
-807636.3       3.5884224      35.861353      25.88246       24.638458    
-807630.25      3.9493534      35.597584      25.887084      24.239521    
-807621.7       3.051481       35.491207      25.889705      23.840636    
-807615.82      2.9207127      36.553972      25.875697      23.441836    
-807613.48      2.8092079      36.083167      25.853863      23.043135    
-807620.74      2.9342063      35.82404       25.840467      22.644514    
-807627.79      3.1337909      36.36968       25.828325      22.245968    
-807635.81      2.9658311      35.937994      25.813764      21.8475      
-807637.31      3.7785375      36.208589      25.854344      21.449008    
-807633.8       3.8667175      36.431602      25.821692      21.050626    
-807629.95      3.7077722      36.170793      25.832206      20.652276    
-807620.97      3.1417012      36.965784      25.86329       20.253923    
-807615.42      3.2668081      35.812828      25.833263      19.855672    
-807613.5       3.3575067      37.053412      25.786905      19.457546    
-807621.89      3.1672217      35.840586      25.763195      19.059504    
-807631.78      3.7127416      35.271436      25.768355      18.661497    
-807634.69      3.8090782      35.491273      25.793102      18.263496    
-807636.74      4.647543       36.009784      25.764942      17.865583    
-807634.6       3.9348058      36.90684       25.810012      17.467647    
-807629.22      3.5970376      35.966519      25.811626      17.069754    
-807618.57      3.8427971      36.892044      25.814339      16.671904    
-807613.26      3.9653916      37.435909      25.831841      16.274076    
-807617.01      3.3143766      37.215226      25.8496        15.876271    
-807622.15      3.3344834      36.264573      25.825691      15.478544    
-807629.4       3.729884       36.503022      25.847258      15.080836    
-807635.46      4.3289249      36.523878      25.844398      14.683178    
-807638.55      3.3435207      36.219215      25.86758       14.285539    
-807632.86      3.2768571      36.425062      25.876588      13.887938    
-807627.52      2.8221077      36.255732      25.907345      13.490351    
-807619.01      3.263627       36.565326      25.863832      13.09286     
-807615.08      3.2975044      37.392211      25.911973      12.695366    
-807617.12      3.7230431      36.78876       25.86887       12.297964    
-807621.68      3.0374836      37.189516      25.881228      11.900596    
-807628.2       2.8958947      36.274899      25.879558      11.503277    
-807637.67      3.6754127      36.460712      25.887616      11.105996    
-807637.29      4.0784623      35.719808      25.821518      10.708819    
-807631.78      3.713528       36.329787      25.855738      10.311655    
-807624         2.9084412      35.708224      25.873647      9.9145208    
-807620.15      2.9058777      35.787683      25.87512       9.5174303    
-807614.69      3.3804238      36.784779      25.799171      9.1204391    
-807615.71      3.0659803      37.19464       25.847118      8.7234542    
-807620.37      3.4737779      37.99331       25.842844      8.3265141    
-807631.19      3.8147996      36.949981      25.780437      7.9296547    
-807634.27      3.6087848      38.063906      25.762388      7.5328433    
-807632.34      4.6265644      37.695391      25.79398       7.1360501    
-807629.51      3.497154       37.300358      25.759969      6.7393125    
-807623.09      3.3358508      37.199156      25.795434      6.3425927    
-807618.12      3.4286363      37.138038      25.801709      5.9459072    
-807614.75      3.5000136      37.22237       25.796986      5.5492613    
-807615.59      4.0699935      36.785055      25.841664      5.1526344    
-807624.32      2.9693104      36.796551      25.924354      4.7560168    
-807632.21      2.8570959      36.296258      25.924218      4.3594438    
-807631.91      3.2001272      36.492561      25.916663      3.9629172    
-807632.22      3.1477122      37.032874      25.87895       3.5664444    
-807630.58      4.5472139      36.895904      25.910238      3.170005     
-807623.39      3.2081035      37.118014      25.895299      2.7736112    
-807612.81      3.4264925      38.20744       25.884476      2.3772608    
-807616.21      3.7180569      35.988954      25.887237      1.9809505    
-807617.64      3.3056268      36.686246      25.919539      1.5846767    
-807626.01      4.6372544      36.354258      25.860558      1.1884503    
-807626.31      4.0521295      37.314858      25.896282      0.79226005   
-807636.42      3.5851647      35.817319      25.869594      0.39611083   
-807635.02      3.360267       36.374637      25.84256       0            
Loop time of 198.046 on 32 procs for 5000 steps with 1080 atoms

Performance: 4.363 ns/day, 5.501 hours/ns, 25.247 timesteps/s, 27.266 katom-step/s
66.9% CPU use with 32 MPI tasks x 1 OpenMP threads

MPI task timing breakdown:
Section |  min time  |  avg time  |  max time  |%varavg| %total
---------------------------------------------------------------
Pair    | 102.24     | 144.49     | 193.82     | 310.7 | 72.96
Neigh   | 0          | 0          | 0          |   0.0 |  0.00
Comm    | 1.9596     | 51.273     | 93.528     | 521.4 | 25.89
Output  | 0.030719   | 0.031508   | 0.032834   |   0.2 |  0.02
Modify  | 1.9083     | 1.9256     | 1.9463     |   0.9 |  0.97
Other   |            | 0.3232     |            |       |  0.16

Nlocal:          33.75 ave          48 max          21 min
Histogram: 8 8 0 0 0 0 0 8 0 8
Nghost:        1106.25 ave        1119 max        1092 min
Histogram: 8 0 8 0 0 0 0 0 8 8
Neighs:              0 ave           0 max           0 min
Histogram: 32 0 0 0 0 0 0 0 0 0
FullNghs:       5494.5 ave        7896 max        3378 min
Histogram: 8 8 0 0 0 0 0 8 0 8

Total # of neighbors = 175824
Ave neighs/atom = 162.8
Neighbor list builds = 0
Dangerous builds = 0

reset_timestep 0


variable interval equal 1000
thermo 10

variable nintervals equal $(v_PERIOD/v_interval)
variable nintervals equal 100
variable efield equal 1e-2*36.36*cos((step/${PERIOD})*2*3.14)
variable efield equal 1e-2*36.36*cos((step/100000)*2*3.14)
fix born all addbornforce 0.0 0.0 v_efield

variable Px equal f_born[1]+c_polarization[1]
variable Py equal f_born[2]+c_polarization[2]
variable Pz equal (f_born[3]+c_polarization[3])/vol
variable pe equal pe

fix aveP all ave/time 1 $(v_interval/2) ${interval} v_efield v_Pz v_pe f_born file Pz.${MODEL}.${STRUCTURE}.${TEMP}.$L.${ITER}
fix aveP all ave/time 1 500 ${interval} v_efield v_Pz v_pe f_born file Pz.${MODEL}.${STRUCTURE}.${TEMP}.$L.${ITER}
fix aveP all ave/time 1 500 1000 v_efield v_Pz v_pe f_born file Pz.${MODEL}.${STRUCTURE}.${TEMP}.$L.${ITER}
fix aveP all ave/time 1 500 1000 v_efield v_Pz v_pe f_born file Pz.BaTiO3-E0.${STRUCTURE}.${TEMP}.$L.${ITER}
fix aveP all ave/time 1 500 1000 v_efield v_Pz v_pe f_born file Pz.BaTiO3-E0.BaTiO3-sc333.${TEMP}.$L.${ITER}
fix aveP all ave/time 1 500 1000 v_efield v_Pz v_pe f_born file Pz.BaTiO3-E0.BaTiO3-sc333.340.$L.${ITER}
fix aveP all ave/time 1 500 1000 v_efield v_Pz v_pe f_born file Pz.BaTiO3-E0.BaTiO3-sc333.340.2.${ITER}
fix aveP all ave/time 1 500 1000 v_efield v_Pz v_pe f_born file Pz.BaTiO3-E0.BaTiO3-sc333.340.2.9

thermo_style custom step time temp press pe f_born v_efield v_Pz spcpu cpuremain

# dump 4a all custom 1000 dump.hyst.${MODEL}.${STRUCTURE}.${TEMP}.$L.${ITER}.bin id type xu yu zu fx fy fz
# dump_modify 4a sort id

fix nvt all nvt temp ${TEMP} ${TEMP} $(100*dt)
fix nvt all nvt temp 340 ${TEMP} $(100*dt)
fix nvt all nvt temp 340 340 $(100*dt)
fix nvt all nvt temp 340 340 0.2000000000000000111

run $(v_PERIOD)
run 100000
WARNING: non-constant efield is experimental, strongly distrust scalar/vector output (src/fix_addbornforce.cpp:193)
Per MPI rank memory allocation (min/avg/max) = 3.516 | 3.516 | 3.516 Mbytes
   Step          Time           Temp          Press          PotEng         f_born        v_efield         v_Pz          S/CPU         CPULeft    
         0   0              338.06513      128928.36     -807635.01     -292.70206      0.3636         0.055048999    0              0            
        10   0.02           349.45014      130658.88     -807631.6      -297.83008      0.36359993     0.056013445    30.800241      3246.4228    
        20   0.04           347.66914      138034.51     -807621.97     -307.29633      0.36359971     0.057793814    30.724433      3250.0926    
        30   0.06           352.42202      141289.82     -807618.47     -311.55214      0.36359935     0.05859427     30.774932      3249.3194    
        40   0.08           337.6275       143449.3      -807615.98     -311.98219      0.36359885     0.058675232    30.776903      3248.7181    
        50   0.1            334.50366      140437.71     -807617.55     -310.04698      0.36359821     0.058311376    30.84647       3246.7638    
        60   0.12           350.44217      136169.21     -807624.17     -305.81244      0.36359742     0.057515099    30.841447      3245.4399    
        70   0.14           337.73493      131709.51     -807629.94     -298.30893      0.36359649     0.056104035    30.860718      3244.1119    
        80   0.16           345.12149      127570.88     -807637.25     -292.13348      0.36359541     0.054942759    30.842071      3243.2809    
        90   0.18           329.71175      129390.22     -807632.59     -294.75452      0.36359419     0.055435895    30.765377      3243.4584    
       100   0.2            337.68071      132481.34     -807628.07     -300.67407      0.36359283     0.056549424    30.771096      3243.4759    
       110   0.22           337.79408      138661.14     -807621.52     -307.36792      0.36359132     0.057808612    30.813332      3243.0268    
       120   0.24           343.03245      141077.92     -807620.16     -309.63581      0.36358968     0.058235413    30.802831      3242.6898    
       130   0.26           338.93692      143322.16     -807617.52     -311.87505      0.36358788     0.058656852    30.839474      3242.0587    
       140   0.28           335.82385      140153.17     -807619.14     -310.13338      0.36358595     0.058329592    30.836804      3241.4919    
       150   0.3            349.69075      135204.73     -807627.77     -303.63641      0.36358387     0.057107975    30.850994      3240.8575    
       160   0.32           337.83443      129192.23     -807634.39     -295.62786      0.36358165     0.055602065    30.850746      3240.264     
       170   0.34           319.91357      128292.84     -807635.1      -292.6836       0.36357928     0.055048663    30.842114      3239.755     
       180   0.36           329.50234      128092.76     -807633.39     -296.08572      0.36357677     0.055688927    30.808428      3239.4634    
       190   0.38           327.97324      133049.82     -807628.97     -300.60349      0.36357412     0.05653906     30.865144      3238.8552    
       200   0.4            341.77783      137725.41     -807625.93     -305.85461      0.36357132     0.057527159    30.868192      3238.259     
       210   0.42           329.97378      141786.97     -807618.59     -311.75592      0.36356838     0.058637591    30.851511      3237.7722    
       220   0.44           325.28894      142925.98     -807616.8      -313.14842      0.3635653      0.058900002    30.86251       3237.2478    
       230   0.46           349.77225      138781.9      -807624.44     -309.10619      0.36356207     0.058140216    30.822236      3236.9244    
       240   0.48           340.22643      133964.44     -807630.61     -301.68921      0.3635587      0.056745673    30.792063      3236.7332    
       250   0.5            327.61578      129206.49     -807634.67     -296.05126      0.36355519     0.055685751    30.782802      3236.5704    
       260   0.52           317.84678      128095.36     -807635.37     -294.03882      0.36355153     0.055307777    30.723598      3236.6349    
       270   0.54           329.3708       128573.57     -807635.46     -295.6295       0.36354773     0.055607561    30.72553       3236.6633    
       280   0.56           332.19834      133067.48     -807630.67     -300.82373      0.36354379     0.056585203    30.755685      3236.5527    
       290   0.58           323.5501       138586.5      -807622.6      -307.77599      0.3635397      0.057893581    30.746393      3236.4608    
       300   0.6            332.93863      141505.57     -807619.67     -312.00178      0.36353547     0.058689147    30.704057      3236.5027    
       310   0.62           333.59066      140378.72     -807620.23     -311.45518      0.3635311      0.058587034    30.744656      3236.3824    
       320   0.64           337.36288      137328.55     -807624.93     -307.15794      0.36352658     0.057779408    30.772276      3236.1585    
       330   0.66           334.7336       132328.62     -807630.1      -301.46512      0.36352192     0.056709261    30.827279      3235.7532    
       340   0.68           326.19338      129022.18     -807633.49     -296.74115      0.36351712     0.055821361    30.798951      3235.4403    
       350   0.7            316.01906      128900.7      -807634.01     -294.67134      0.36351217     0.055432754    30.801376      3235.1193    
       360   0.72           320.64977      131215.66     -807632.29     -296.76792      0.36350708     0.055827939    30.791163      3234.828     
       370   0.74           338.16533      134890.11     -807628.5      -302.80587      0.36350185     0.056964617    30.808832      3234.4848    
       380   0.76           337.10983      139014.45     -807622.18     -308.72889      0.36349647     0.058079731    30.853293      3234.0197    
       390   0.78           337.42467      142066.59     -807619.27     -311.36251      0.36349095     0.058576071    30.855221      3233.5569    
       400   0.8            340.60459      139294.97     -807621.1      -309.7782       0.36348529     0.058278925    30.837272      3233.1478    
       410   0.82           335.60056      138258.06     -807622.86     -307.00681      0.36347948     0.057758462    30.828242      3232.766     
       420   0.84           330.5411       132194.22     -807628.72     -300.26909      0.36347353     0.056491792    30.830724      3232.3809    
       430   0.86           330.1564       131054.97     -807632.18     -296.4352       0.36346744     0.055771431    30.824472      3232.0136    
       440   0.88           330.98754      128502.18     -807634.08     -294.50305      0.3634612      0.055408866    30.797229      3231.7133    
       450   0.9            331.74746      132055.3      -807629.63     -298.92573      0.36345482     0.056241951    30.831183      3231.3328    
       460   0.92           342.38473      134243.3      -807627.83     -302.19673      0.3634483      0.056858402    30.839603      3230.9356    
       470   0.94           341.20223      139696.54     -807620.91     -308.77623      0.36344163     0.058097401    30.830213      3230.5624    
       480   0.96           351.273        140017.17     -807621.07     -310.05436      0.36343482     0.058338979    30.881647      3230.0793    
       490   0.98           337.44462      141566.27     -807618.47     -310.67083      0.36342786     0.058456092    30.857661      3229.6538    
       500   1              341.66834      136036.58     -807624.89     -304.83675      0.36342077     0.057359465    30.803663      3229.3453    
       510   1.02           335.66153      133569.41     -807628.85     -9599.3909      0.36341353     0.056446904    30.70546       3229.2389    
       520   1.04           332.01763      129489.8      -807632.69     -9459.3181      0.36340614     0.05562437     30.691914      3229.1513    
       530   1.06           343.30454      129618.96     -807634.13     -9460.9256      0.36339862     0.055634975    30.702438      3229.0339    
       540   1.08           326.48009      132284.63     -807628.86     -9554.0895      0.36339095     0.056184012    30.693368      3228.9266    
       550   1.1            343.96895      135903.61     -807626.64     -9702.4468      0.36338313     0.057057672    30.709615      3228.7801    
       560   1.12           334.38574      140356.12     -807620.07     -9868.2257      0.36337518     0.058033847    30.694743      3228.6551    
       570   1.14           344.57585      140209.81     -807619.49     -9931.3034      0.36336707     0.058406101    30.672538      3228.5643    
       580   1.16           334.17053      141420.91     -807618.51     -9912.5654      0.36335883     0.058297225    30.680445      3228.451     
       590   1.18           344.85489      136357.72     -807625.65     -9730.7144      0.36335044     0.057229055    30.69475       3228.3049    
       600   1.2            340.36747      133333.94     -807628.26     -9623.8055      0.36334191     0.056601622    30.682509      3228.1743    
       610   1.22           337.63037      128737.91     -807633.18     -9456.1769      0.36333324     0.055617056    30.693677      3228.018     
       620   1.24           330.8691       131323.86     -807630.65     -9504.1931      0.36332442     0.055900823    30.723091      3227.8063    
       630   1.26           332.69598      131715.35     -807629.82     -9539.6457      0.36331546     0.056110728    30.721397      3227.5937    
       640   1.28           334.17839      137788.66     -807623.13     -9758.0738      0.36330636     0.057396926    30.744762      3227.3393    
       650   1.3            349.16588      138515.34     -807622.51     -9847.6512      0.36329711     0.057925295    30.765466      3227.0492    
       660   1.32           345.19239      141892.78     -807618.97     -9937.2169      0.36328772     0.058453643    30.702694      3226.8581    
       670   1.34           333.48943      138318.77     -807620.96     -9822.9275      0.36327819     0.057782876    30.716342      3226.6414    
       680   1.36           345.84991      136256.32     -807625.12     -9741.1687      0.36326851     0.05730346     30.695638      3226.4537    
       690   1.38           353.85407      131083.86     -807631.26     -9581.5954      0.36325869     0.056366277    30.733596      3226.204     
       700   1.4            340.46503      131149.87     -807632.18     -9489.7607      0.36324873     0.055827566    30.721733      3225.97      
       710   1.42           325.00338      131162.07     -807630.35     -9477.8862      0.36323863     0.05575926     30.723658      3225.7306    
       720   1.44           342.76509      133174.95     -807629.2      -9593.3393      0.36322838     0.056440074    30.729632      3225.48      
       730   1.46           348.20801      136833.95     -807624.96     -9753.966       0.36321798     0.057386724    30.737212      3225.2165    
       740   1.48           347.73796      139332.66     -807621.66     -9857.3449      0.36320745     0.057996629    30.737541      3224.9509    
       750   1.5            335.97947      141494.28     -807619.09     -9885.6816      0.36319677     0.05816506     30.687139      3224.7543    
       760   1.52           333.96003      139285.31     -807621.18     -9812.2154      0.36318595     0.057734523    30.65996       3224.5922    
       770   1.54           341.07606      136563.83     -807624.64     -9731.8642      0.36317498     0.057263469    30.659875      3224.4258    
       780   1.56           341.26523      131318.83     -807630.26     -9553.6663      0.36316387     0.056216651    30.732059      3224.1579    
       790   1.58           341.08756      131143.78     -807631.97     -9494.5867      0.36315262     0.05587074     30.728939      3223.8927    
       800   1.6            332.82447      130998.07     -807630.71     -9501.5771      0.36314122     0.055913629    30.76575       3223.5777    
       810   1.62           337.56005      135035.18     -807626.64     -9654.8051      0.36312968     0.056817131    30.776622      3223.2484    
       820   1.64           347.40168      136998.37     -807625.19     -9747.4819      0.363118       0.057364366    30.779738      3222.9152    
       830   1.66           341.21791      140596.12     -807620.44     -9870.9671      0.36310618     0.058092974    30.744432      3222.6268    
       840   1.68           338.8125       138861.29     -807621.02     -9845.1394      0.36309421     0.057942881    30.743745      3222.3384    
       850   1.7            336.46045      139309.33     -807621.43     -9821.2738      0.3630821      0.05780435     30.734407      3222.0607    
       860   1.72           350.60292      134114.51     -807628.24     -9669.4182      0.36306984     0.056912506    30.713673      3221.8071    
       870   1.74           348.6819       132025.64     -807631.62     -9552.3686      0.36305745     0.056225492    30.713594      3221.552     
       880   1.76           339.36371      129170.99     -807633.02     -9470.1076      0.3630449      0.055743227    30.716368      3221.292     
       890   1.78           333.53706      131660.66     -807630.02     -9544.5445      0.36303222     0.056183343    30.740214      3221.0024    
       900   1.8            335.91287      133564.46     -807628.28     -9615.8063      0.36301939     0.056604821    30.77559       3220.6708    
       910   1.82           336.71882      137753.53     -807623.41     -9778.5632      0.36300642     0.057564969    30.766874      3220.3494    
       920   1.84           332.55913      139236.55     -807620.99     -9844.4282      0.36299331     0.0579548      30.747812      3220.0496    
       930   1.86           331.3557       141516.9      -807619.22     -9897.7714      0.36298005     0.058270964    30.744927      3219.7525    
       940   1.88           344.41111      136807.75     -807624.69     -9785.3347      0.36296665     0.057611144    30.745145      3219.4546    
       950   1.9            338.11839      134631.85     -807627.71     -9664.4318      0.36295311     0.056901452    30.700087      3219.2058    
       960   1.92           328.63623      132157.78     -807631.09     -9517.9692      0.36293942     0.056041234    30.675423      3218.9826    
       970   1.94           325.45025      130761.05     -807631.85     -9484.8932      0.36292559     0.055848613    30.721845      3218.7068    
       980   1.96           336.9193       130741.15     -807632.38     -9522.9985      0.36291162     0.056075142    30.750566      3218.3993    
       990   1.98           334.37004      133850.51     -807628.37     -9643.6554      0.3628975      0.056787826    30.731835      3218.1114    
      1000   2              339.39729      137476.22     -807624.62     -9789.745       0.36288325     0.057650357    30.5765        3217.9863    
      1010   2.02           334.80069      139534.6      -807620.99     -309.06144      0.36286884     0.058242855    30.764388      3217.6615    
      1020   2.04           333.65251      140165        -807621.34     -308.63943      0.3628543      0.05816566     30.756359      3217.3448    
      1030   2.06           339.26597      136144.83     -807626.18     -304.6501       0.36283961     0.057416161    30.759497      3217.0248    
      1040   2.08           327.395        135038.96     -807627.81     -301.40562      0.36282478     0.056807009    30.749655      3216.7147    
      1050   2.1            324.14568      131336.83     -807631.85     -297.00621      0.3628098      0.055980146    30.750711      3216.4031    
      1060   2.12           330.83509      131430.02     -807633.69     -296.04692      0.36279469     0.055801663    30.789434      3216.0532    
      1070   2.14           331.62001      130643.83     -807632.61     -297.35115      0.36277943     0.056049855    30.834037      3215.6603    
      1080   2.16           330.20111      135061.63     -807627.03     -302.61592      0.36276402     0.05704467     30.848925      3215.2544    
      1090   2.18           340.4653       136454.89     -807626.5      -304.66283      0.36274848     0.057432986    30.921756      3214.7806    
      1100   2.2            329.95584      140479.76     -807620.65     -308.95564      0.36273279     0.058244756    30.91301       3214.3178    
      1110   2.22           333.94824      138472.39     -807622.87     -307.25339      0.36271695     0.057926375    30.884831      3213.8838    
      1120   2.24           327.25945      138255.04     -807623.67     -305.32053      0.36270098     0.057564509    30.853578      3213.4807    
      1130   2.26           334.50426      132076.92     -807630.15     -299.7557       0.36268486     0.056517838    30.850188      3213.0821    
      1140   2.28           334.71602      131033.41     -807632.43     -297.21605      0.3626686      0.05604151     30.78631       3212.7432    
      1150   2.3            332.19663      128903.03     -807633.1      -296.01238      0.36265219     0.055817077    30.807222      3212.3856    
      1160   2.32           330.67296      133848.64     -807629.01     -299.59838      0.36263564     0.056495841    30.806353      3212.0293    
      1170   2.34           331.40816      135183.37     -807626.8      -301.65652      0.36261895     0.056886568    30.764818      3211.7106    
      1180   2.36           337.00103      139265.14     -807621.43     -307.34418      0.36260212     0.057961842    30.849696      3211.3169    
      1190   2.38           346.14572      138324.82     -807621.93     -307.82592      0.36258514     0.05805541     30.858772      3210.9164    
      1200   2.4            343.69458      139642.98     -807620.88     -308.03128      0.36256802     0.058096884    30.841483      3210.5322    
      1210   2.42           346.21717      134955.5      -807626.25     -302.72858      0.36255076     0.057099476    30.858193      3210.1346    
      1220   2.44           334.74007      133876.11     -807627.55     -299.50422      0.36253335     0.056494021    30.812572      3209.777     
      1230   2.46           340.42495      131309.41     -807630.43     -297.12334      0.3625158      0.056047641    30.777812      3209.4495    
      1240   2.48           352.64294      130908.77     -807632.82     -296.21517      0.36249811     0.055879056    30.811895      3209.0933    
      1250   2.5            336.95217      133856.59     -807627.91     -298.6935       0.36248028     0.056349349    30.814594      3208.7354    
      1260   2.52           331.66737      136915.44     -807622.86     -302.88083      0.3624623      0.057142134    30.764798      3208.4193    
      1270   2.54           349.41379      139809.07     -807621.4      -306.70462      0.36244418     0.057866433    30.798097      3208.0756    
      1280   2.56           346.55683      139156.07     -807620.63     -306.9838       0.36242592     0.057922023    30.845423      3207.6938    
      1290   2.58           340.6753       139196.11     -807620.21     -306.40348      0.36240751     0.057815465    30.779553      3207.366     
      1300   2.6            355.15733      134532.63     -807627.46     -301.17781      0.36238896     0.056832339    30.754826      3207.0581    
      1310   2.62           335.68133      134448.89     -807626.05     -299.74235      0.36237027     0.056564385    30.724119      3206.7744    
      1320   2.64           358.78796      130254.09     -807633.3      -295.70503      0.36235143     0.055805402    30.748354      3206.4709    
      1330   2.66           332.73901      133609.55     -807628.54     -296.80541      0.36233245     0.056016       30.77768       3206.1441    
      1340   2.68           340.78502      133561.54     -807627.38     -299.14608      0.36231333     0.056460734    30.859271      3205.754     
      1350   2.7            344.72184      137444.87     -807623.23     -303.86092      0.36229407     0.05735366     30.863568      3205.3617    
      1360   2.72           348.48322      137599.76     -807621.78     -305.90875      0.36227466     0.057743281    30.843177      3204.9858    
      1370   2.74           346.18876      140535.29     -807620.13     -307.18652      0.36225511     0.057987602    30.810888      3204.6352    
      1380   2.76           336.46127      137400.26     -807620.72     -305.38939      0.36223542     0.057651492    30.760722      3204.3229    
      1390   2.78           357.17727      135945.05     -807626.15     -302.81657      0.36221558     0.057168924    30.748347      3204.0195    
      1400   2.8            342.21667      132044.71     -807628.95     -298.09736      0.3621956      0.056281087    30.762254      3203.7056    
      1410   2.82           353.03611      131065.56     -807631.39     -297.23303      0.36217548     0.056121017    30.801549      3203.3625    
      1420   2.84           330.20591      131866.13     -807628.35     -297.2485       0.36215522     0.056127078    30.824048      3203.0031    
      1430   2.86           346.38515      134323.2      -807627.68     -300.32871      0.36213481     0.056711886    30.863269      3202.6159    
      1440   2.88           351.24565      136378.53     -807625.83     -303.06183      0.36211426     0.057231237    30.868938      3202.2255    
      1450   2.9            347.04329      138517.75     -807622.4      -306.11488      0.36209357     0.057811088    30.851963      3201.848     
      1460   2.92           331.68097      140660.34     -807619.33     -307.25875      0.36207273     0.058030451    30.74632       3201.5465    
      1470   2.94           336.98407      138251.35     -807622.91     -304.64891      0.36205176     0.057540879    30.780678      3201.2203    
      1480   2.96           344.86345      135378.04     -807626.83     -301.95876      0.36203064     0.057036102    30.777422      3200.8964    
      1490   2.98           326.81109      132462.77     -807628.67     -297.88158      0.36200937     0.05626928     30.749345      3200.5922    
      1500   3              332.27957      132124.77     -807629.96     -297.46017      0.36198796     0.056192999    30.768494      3200.2743    
      1510   3.02           343.63003      131252.46     -807632.47     -9496.6954      0.36196642     0.056066284    30.707798      3199.9983    
      1520   3.04           333.50681      134581.01     -807627.47     -9615.3966      0.36194472     0.05677047     30.722524      3199.7115    
      1530   3.06           336.13819      134850.02     -807626.53     -9664.9987      0.36192289     0.05706677     30.744234      3199.4094    
      1540   3.08           337.10436      139335.46     -807622.71     -9793.7642      0.36190091     0.057830574    30.745106      3199.1064    
      1550   3.1            341.98991      137757.49     -807623.89     -9784.1434      0.36187879     0.057777296    30.73076       3198.8128    
      1560   3.12           338.51441      138105.01     -807625.08     -9730.4365      0.36185653     0.057463682    30.716276      3198.5285    
      1570   3.14           333.39788      134243.78     -807628.61     -9599.5364      0.36183412     0.056694154    30.722682      3198.2393    
      1580   3.16           331.02241      133190.16     -807628.77     -9584.1322      0.36181157     0.056606706    30.741904      3197.937     
      1590   3.18           336.72461      129923.58     -807632.21     -9502.263       0.36178888     0.056126682    30.74267       3197.634     
      1600   3.2            335.8738       132102.81     -807631.6      -9517.7748      0.36176605     0.056221853    30.746816      3197.328     
      1610   3.22           328.05413      133819.82     -807628        -9598.5834      0.36174307     0.056702794    30.721305      3197.0382    
      1620   3.24           330.33187      136753.63     -807624.26     -9728.738       0.36171995     0.057475344    30.747628      3196.731     
      1630   3.26           344.84225      137339.57     -807625.41     -9753.3158      0.36169669     0.057624251    30.760985      3196.4151    
      1640   3.28           335.25654      137457.05     -807623.83     -9760.3393      0.36167329     0.057669478    30.710413      3196.1313    
      1650   3.3            336.87495      135868.38     -807625.96     -9697.7126      0.36164974     0.057303176    30.708667      3195.848     
      1660   3.32           335.17139      134324.14     -807627.5      -9637.8699      0.36162605     0.0569533      30.724298      3195.5543    
      1670   3.34           332.59794      132161.5      -807629.68     -9553.4745      0.36160222     0.056458301    30.735879      3195.2531    
      1680   3.36           332.74855      131623.24     -807631.65     -9487.2322      0.36157824     0.056070545    30.713232      3194.9657    
      1690   3.38           327.61945      132987.03     -807629.37     -9533.3962      0.36155413     0.056347138    30.731954      3194.6662    
      1700   3.4            338.06534      135101.26     -807627.33     -9643.2279      0.36152987     0.057000123    30.712007      3194.3787    
      1710   3.42           344.96228      135764.32     -807626.61     -9693.6172      0.36150546     0.057301836    30.723553      3194.0836    
      1720   3.44           346.25381      137862.78     -807625.95     -9716.1557      0.36148092     0.057438968    30.715321      3193.7933    
      1730   3.46           333.91879      138211.62     -807623.6      -9736.9617      0.36145623     0.057565898    30.673997      3193.5274    
      1740   3.48           336.68229      136367.96     -807624.91     -9703.2927      0.3614314      0.057370785    30.707192      3193.2409    
      1750   3.5            341.6539       133806.3      -807629.07     -9590.2108      0.36140643     0.056706105    30.686909      3192.9661    
      1760   3.52           324.18244      132691.75     -807629.35     -9501.1743      0.36138131     0.056183544    30.700226      3192.6828    
      1770   3.54           335.59369      132433.57     -807630.27     -9519.4722      0.36135605     0.05629568     30.710564      3192.3929    
      1780   3.56           333.40762      132904.89     -807628.41     -9567.5111      0.36133065     0.056583748    30.701009      3192.1082    
      1790   3.58           345.34717      135834.24     -807628.51     -9613.0075      0.36130511     0.05685684     30.701773      3191.8226    
      1800   3.6            338.05047      136536.31     -807625.47     -9674.6427      0.36127942     0.057225454    30.719604      3191.5263    
      1810   3.62           344.40229      137593.15     -807623.91     -9750.5801      0.3612536      0.057678747    30.741105      3191.2173    
      1820   3.64           336.24624      137472.84     -807623.72     -9717.853       0.36122763     0.057489285    30.756795      3190.8991    
      1830   3.66           335.85747      135706.7      -807624.51     -9685.5523      0.36120151     0.057302341    30.746901      3190.5865    
      1840   3.68           342.32925      132655.96     -807629.8      -9542.9671      0.36117526     0.056462873    30.694895      3190.3032    
      1850   3.7            332.72958      133735.12     -807627.66     -9563.0542      0.36114886     0.056585858    30.698488      3190.0174    
      1860   3.72           339.65008      131472        -807630.66     -9497.6683      0.36112232     0.056203091    30.733425      3189.7116    
      1870   3.74           331.35822      134857.82     -807628.1      -9535.1906      0.36109564     0.056429302    30.751504      3189.3955    
      1880   3.76           346.73127      133798.81     -807628.8      -9579.8446      0.36106881     0.056697776    30.785224      3189.0607    
      1890   3.78           342.86976      138049.81     -807624.15     -9705.3059      0.36104184     0.057444602    30.76612       3188.7366    
      1900   3.8            348.51976      136840.86     -807624.79     -9709.5773      0.36101474     0.0574742      30.723651      3188.4356    
      1910   3.82           342.77413      137704.47     -807623.52     -9716.9787      0.36098748     0.057522354    30.706579      3188.1437    
      1920   3.84           345.05986      134839.23     -807626.54     -9628.3943      0.36096009     0.057002279    30.706586      3187.8514    
      1930   3.86           338.79174      135696.03     -807625.94     -9615.1227      0.36093255     0.056928052    30.734573      3187.5437    
      1940   3.88           339.86501      132636.59     -807629.25     -9512.8252      0.36090487     0.0563267      30.71258       3187.2476    
      1950   3.9            336.78466      133169.92     -807628.81     -9504.7725      0.36087705     0.056283358    30.72621       3186.9439    
      1960   3.92           341.14827      132688.3      -807629.19     -9509.0008      0.36084909     0.05631276     30.722419      3186.642     
      1970   3.94           351.5747       134826.43     -807626.93     -9623.5898      0.36082098     0.056995801    30.738855      3186.3312    
      1980   3.96           348.46436      136107.66     -807624.69     -9675.8841      0.36079273     0.057310001    30.706823      3186.0371    
      1990   3.98           350.98983      136831.01     -807624.63     -9686.3877      0.36076434     0.057376728    30.655904      3185.7693    
      2000   4              340.46456      136721.29     -807623.51     -9670.3948      0.36073581     0.057286527    30.667762      3185.4947    
      2010   4.02           348.21002      135856.07     -807626.18     -300.56361      0.36070713     0.056980885    30.763595      3185.1701    
      2020   4.04           335.57198      135160.23     -807624.27     -300.54828      0.36067831     0.05698253     30.796362      3184.8287    
      2030   4.06           342.32676      133161.05     -807628.63     -297.0684       0.36064935     0.056327284    30.793977      3184.4887    
      2040   4.08           344.15677      132336.54     -807629.17     -296.55717      0.36062025     0.056234887    30.779983      3184.1559    
      2050   4.1            348.89016      132443.6      -807628.71     -297.60743      0.36059101     0.056438621    30.762016      3183.8323    
      2060   4.12           353.64786      135737.81     -807625.64     -301.22913      0.36056162     0.0571301      30.790388      3183.4944    
      2070   4.14           342.6828       136924.88     -807624.01     -301.26146      0.36053209     0.057140912    30.824904      3183.1394    
      2080   4.16           349.78103      137125.67     -807624.79     -301.3613       0.36050242     0.057164553    30.822011      3182.7862    
      2090   4.18           343.07259      136943        -807623.01     -302.15838      0.36047261     0.057320489    30.765757      3182.461     
      2100   4.2            353.88406      134674.52     -807625.45     -301.21637      0.36044265     0.057146535    30.748909      3182.1442    
      2110   4.22           344.04175      134526.02     -807626.4      -298.82704      0.36041256     0.056697968    30.751933      3181.8257    
      2120   4.24           343.41483      133327.79     -807629.02     -296.10626      0.36038232     0.056186456    30.727845      3181.519     
      2130   4.26           341.57095      134595.49     -807628.01     -296.80047      0.36035193     0.05632293     30.754391      3181.1992    
      2140   4.28           352.09938      133293.5      -807627.89     -298.4887       0.36032141     0.056648099    30.835094      3180.8405    
      2150   4.3            345.63516      136391.71     -807625.04     -300.40535      0.36029075     0.057016699    30.828063      3180.4854    
      2160   4.32           350.0975       134970.75     -807626.37     -299.82365      0.36025994     0.056911159    30.847111      3180.1215    
      2170   4.34           342.14358      138235.55     -807622.88     -302.21188      0.36022899     0.057369411    30.860482      3179.7516    
      2180   4.36           342.23023      135572.55     -807623.62     -301.77619      0.36019789     0.057291648    30.822455      3179.4002    
      2190   4.38           351.60426      136860.85     -807625.71     -301.06577      0.36016666     0.057161733    30.798839      3179.06      
      2200   4.4            339.44232      132616.79     -807628.67     -296.64973      0.36013528     0.056328191    30.754305      3178.741     
      2210   4.42           338.6937       134543.83     -807627.93     -297.43252      0.36010377     0.056481772    30.780221      3178.4097    
      2220   4.44           340.48759      131250.92     -807628.92     -297.02539      0.36007211     0.056409417    30.825242      3178.0576    
      2230   4.46           337.62505      134723.54     -807626.94     -298.79764      0.3600403      0.056751005    30.833155      3177.7022    
      2240   4.48           334.78752      133315.66     -807628.37     -297.30055      0.36000836     0.056471671    30.842998      3177.3424    
      2250   4.5            346.55973      137322.55     -807625.64     -301.81051      0.35997627     0.05733344     30.845563      3176.9818    
      2260   4.52           326.90691      135988.06     -807623.17     -301.8716       0.35994404     0.05735018     30.838673      3176.6247    
      2270   4.54           346.59386      137148.59     -807626.15     -301.75777      0.35991167     0.05733371     30.807838      3176.2818    
      2280   4.56           343.58157      133386.93     -807628.8      -298.94907      0.35987916     0.056805191    30.817559      3175.9347    
      2290   4.58           332.69649      135168.24     -807627.3      -299.01027      0.35984651     0.056821976    30.792825      3175.5989    
      2300   4.6            340.69832      131614.18     -807630.33     -297.33422      0.35981371     0.056508619    30.802974      3175.2587    
      2310   4.62           331.82805      133073.63     -807629.65     -296.88932      0.35978077     0.056429232    30.843098      3174.9007    
      2320   4.64           340.81622      132483.28     -807631.45     -296.47854      0.35974769     0.056356337    30.85826       3174.5364    
      2330   4.66           327.2093       134761.29     -807626.03     -300.0433       0.35971447     0.057039214    30.80359       3174.1965    
      2340   4.68           330.60975      136033.53     -807625.4      -301.25586      0.35968111     0.057275039    30.77799       3173.8679    
      2350   4.7            335.68278      135820.07     -807626.29     -301.06745      0.3596476      0.05724455     30.797989      3173.5307    
      2360   4.72           348.42663      135225.48     -807629.06     -300.0521       0.35961396     0.057056831    30.841634      3173.1745    
      2370   4.74           325.47332      134451.77     -807626.86     -299.10158      0.35958017     0.056881428    30.824942      3172.8259    
      2380   4.76           323.60271      135071.05     -807626.92     -298.66292      0.35954624     0.056803367    30.811085      3172.4834    
      2390   4.78           330.93946      131597.6      -807630.68     -295.87073      0.35951216     0.056277646    30.75869       3172.1637    
      2400   4.8            344.55598      133307.05     -807631.29     -296.98258      0.35947795     0.05649451     30.834474      3171.8114    
      2410   4.82           332.26738      133016.04     -807628.9      -297.62249      0.35944359     0.056621649    30.878236      3171.4407    
      2420   4.84           332.22968      136051.53     -807626.6      -299.75594      0.35940909     0.057033006    30.858757      3171.0787    
      2430   4.86           333.2218       134530.88     -807627.83     -298.5256       0.35937446     0.056804389    30.811867      3170.7368    
      2440   4.88           344.61652      135973.82     -807627.62     -300.02692      0.35933967     0.057095592    30.773194      3170.4114    
      2450   4.9            337.76412      134230.83     -807627.07     -299.5389       0.35930475     0.057008261    30.776058      3170.0847    
      2460   4.92           333.85473      136310.86     -807626.16     -299.62923      0.35926969     0.057031017    30.801249      3169.7475    
      2470   4.94           335.73577      133692.52     -807629.68     -296.15563      0.35923448     0.056375383    30.790068      3169.4151    
      2480   4.96           335.97198      133997.19     -807628.81     -296.70589      0.35919913     0.056485686    30.855452      3169.0556    
      2490   4.98           341.7417       133204.67     -807628.81     -297.26881      0.35916364     0.056598445    30.892346      3168.6813    
      2500   5              337.61845      135647.43     -807626.85     -298.33333      0.35912801     0.05680676     30.854009      3168.3231    
[...]
     98740   197.48         342.29727      133835.47     -807627.64     -9613.8394      0.36236891     0.056694832    27.511576      42.626687    
     98750   197.5          355.55389      135349.14     -807627.32     -9681.2194      0.36238762     0.057089239    27.505609      42.2887      
     98760   197.52         330.55495      134953.07     -807623.9      -9679.1118      0.36240618     0.057073888    27.510651      41.950706    
     98770   197.54         343.34207      134782.39     -807627.46     -9618.2157      0.36242459     0.056711925    27.492665      41.612711    
     98780   197.56         352.03405      133652.95     -807629.28     -9597.2231      0.36244287     0.056585293    27.468593      41.274714    
     98790   197.58         340.13363      135725.43     -807624.44     -9699.1955      0.362461       0.057183663    27.430041      40.936718    
     98800   197.6          335.01304      136123.84     -807623.76     -9698.558       0.36247899     0.057177067    27.438993      40.598715    
     98810   197.62         347.33651      136314.12     -807626.82     -9653.6265      0.36249683     0.056909375    27.452856      40.260705    
     98820   197.64         347.0333       135912.98     -807626.36     -9667.2635      0.36251453     0.056986984    27.495674      39.922683    
     98830   197.66         341.95183      136126.15     -807624.59     -9703.0861      0.36253209     0.057195382    27.432422      39.584665    
     98840   197.68         346.30807      135531.56     -807625.74     -9683.4132      0.36254951     0.057076677    27.393374      39.246648    
     98850   197.7          339.97111      133369.54     -807627.61     -9598.0949      0.36256678     0.056571093    27.387438      38.908627    
     98860   197.72         342.17996      134437.09     -807627.37     -9614.5481      0.36258391     0.05666539     27.44874       38.570591    
     98870   197.74         353.94154      133648.56     -807626.98     -9682.2882      0.3626009      0.057061958    27.519386      38.232538    
     98880   197.76         338.74375      136177.19     -807624.17     -9704.5529      0.36261774     0.057190517    27.49889       37.894484    
     98890   197.78         342.76041      134675.15     -807626.82     -9639.2447      0.36263445     0.056803028    27.458742      37.55643     
     98900   197.8          352.02946      135433.78     -807627.72     -9653.5736      0.362651       0.05688487     27.481736      37.218368    
     98910   197.82         343.34944      136659.33     -807624.31     -9728.1098      0.36266742     0.057321489    27.509029      36.880297    
     98920   197.84         346.62046      134286.78     -807626.2      -9687.1199      0.36268369     0.057077401    27.522206      36.542218    
     98930   197.86         340.50325      134542.44     -807627.84     -9609.6141      0.36269982     0.056618211    27.495759      36.204138    
     98940   197.88         337.92655      134249.57     -807627.86     -9605.5624      0.36271581     0.056591845    27.484316      35.866055    
     98950   197.9          329.6763       136123.96     -807623.97     -9700.6956      0.36273165     0.057149833    27.530249      35.52796     
     98960   197.92         339.52755      135161.84     -807625.74     -9699.0668      0.36274735     0.057137764    27.516509      35.189862    
     98970   197.94         341.59928      135566.41     -807627.68     -9654.3581      0.36276291     0.056871944    27.504373      34.85176     
     98980   197.96         337.63297      135949.46     -807626.87     -9675.5456      0.36277832     0.056994333    27.475535      34.513657    
     98990   197.98         341.86041      136009.15     -807625.72     -9745.8127      0.36279359     0.057405829    27.452124      34.175552    
     99000   198            333.29029      134699.73     -807626.52     -9695.4696      0.36280872     0.057106911    27.407238      33.837448    
     99010   198.02         327.23486      134753.15     -807627.93     -300.98316      0.3628237      0.056727555    27.4841        33.499328    
     99020   198.04         336.60363      134255.39     -807629.52     -301.11038      0.36283855     0.056749211    27.456709      33.161207    
     99030   198.06         325.92767      135136.84     -807625.72     -303.69523      0.36285324     0.057234049    27.460954      32.82308     
     99040   198.08         324.71756      134641.09     -807626.99     -302.53784      0.3628678      0.057013642    27.535988      32.484938    
     99050   198.1          328.74526      135217.79     -807629.1      -301.10676      0.36288221     0.056741699    27.529582      32.146791    
     99060   198.12         340.48734      134061.29     -807629.84     -302.1998       0.36289648     0.056945438    27.527264      31.80864     
     99070   198.14         326.65059      136396.72     -807625.01     -305.24434      0.36291061     0.0575169      27.488368      31.470489    
     99080   198.16         322.07848      134861.23     -807626.39     -303.30781      0.36292459     0.0571498      27.496371      31.132331    
     99090   198.18         324.31119      135244.22     -807627.98     -301.97505      0.36293843     0.05689651     27.529111      30.794165    
     99100   198.2          336.59998      133030.38     -807630.22     -301.53114      0.36295213     0.056810726    27.499392      30.455997    
     99110   198.22         326.04475      134383.6      -807626.51     -303.75337      0.36296568     0.057227273    27.478108      30.117826    
     99120   198.24         324.24471      133976.82     -807628.38     -301.56016      0.36297909     0.056811973    27.46922       29.779651    
     99130   198.26         327.13776      134415.51     -807629.54     -300.64717      0.36299236     0.056637902    27.528248      29.441464    
     99140   198.28         334.77399      134388.31     -807628.84     -302.37476      0.36300548     0.056961298    27.554366      29.103269    
     99150   198.3          339.60977      136207.96     -807626.36     -305.40567      0.36301846     0.057530203    27.521491      28.765073    
     99160   198.32         322.45098      135788.91     -807625.2      -303.96231      0.3630313      0.057256288    27.456462      28.426879    
     99170   198.34         330.34215      135441.88     -807628.43     -301.68903      0.36304399     0.056826091    27.448988      28.08868     
     99180   198.36         328.13252      135357.59     -807626.02     -303.5352       0.36305655     0.057171858    27.525555      27.750468    
     99190   198.38         333.1279       134501.51     -807625.69     -304.39261      0.36306895     0.057331395    27.545147      27.412249    
     99200   198.4          329.71211      134652.45     -807627.5      -301.80112      0.36308122     0.056841376    27.562184      27.074023    
     99210   198.42         323.61408      133643.32     -807628.63     -299.55659      0.36309334     0.056416757    27.534236      26.735795    
     99220   198.44         327.42922      135857.64     -807625.78     -302.71193      0.36310532     0.057009135    27.552118      26.39756     
     99230   198.46         342.86488      134816.44     -807626.21     -304.28866      0.36311715     0.057304209    27.571382      26.059318    
     99240   198.48         335.55104      135767.8      -807624.99     -304.15979      0.36312885     0.057278096    27.524237      25.721076    
     99250   198.5          338.90479      135295.94     -807627.75     -301.66095      0.3631404      0.056805717    27.516726      25.382829    
     99260   198.52         347.6067       136506.61     -807626.21     -304.267        0.3631518      0.057294664    27.538303      25.044575    
     99270   198.54         329.888        135624.77     -807623.36     -304.58154      0.36316306     0.057352114    27.585607      24.706312    
     99280   198.56         345.99457      135087.82     -807627.85     -302.12625      0.36317418     0.056888046    27.574382      24.368045    
     99290   198.58         336.91701      133230.94     -807629.45     -299.175        0.36318516     0.056330645    27.53018       24.029777    
     99300   198.6          336.22949      134718.53     -807626        -302.43304      0.36319599     0.056942391    27.505578      23.691507    
     99310   198.62         335.3338       135134.52     -807624.97     -303.37397      0.36320668     0.05711787     27.479247      23.353234    
     99320   198.64         348.58425      135668.94     -807627.44     -302.578        0.36321723     0.056966354    27.448277      23.014958    
     99330   198.66         340.04005      135654.16     -807626.93     -301.81637      0.36322763     0.056821335    27.454809      22.676677    
     99340   198.68         342.76698      136685.12     -807623.96     -305.15742      0.36323789     0.057448713    27.519936      22.338384    
     99350   198.7          341.7827       136042.6      -807623.91     -305.07314      0.36324801     0.057431248    27.502455      22.000089    
     99360   198.72         348.82508      135613.85     -807628.28     -301.62046      0.36325798     0.056779707    27.511904      21.661787    
     99370   198.74         340.60551      133843.05     -807628.13     -300.58695      0.36326781     0.05658362     27.518159      21.323479    
     99380   198.76         342.30622      135176.28     -807626.65     -302.31388      0.3632775      0.056907185    27.551964      20.985164    
     99390   198.78         338.32017      134186.98     -807625.67     -302.77315      0.36328704     0.05699214     27.527677      20.646846    
     99400   198.8          346.11695      135425.39     -807627.36     -302.13031      0.36329644     0.056869665    27.53924       20.308522    
     99410   198.82         333.1686       135760.66     -807625.75     -301.94772      0.3633057      0.056833848    27.512464      19.970195    
     99420   198.84         333.91864      136864.77     -807622.55     -305.3087       0.36331481     0.057465024    27.490564      19.631865    
     99430   198.86         341.13956      136335.95     -807623.83     -305.01642      0.36332378     0.057408593    27.475366      19.29353     
     99440   198.88         352.02335      135854.25     -807627.68     -302.66323      0.36333261     0.056964306    27.485973      18.95519     
     99450   198.9          340.16085      135045.74     -807626.46     -302.22205      0.36334129     0.05687991     27.469536      18.616846    
     99460   198.92         337.04003      133830.5      -807626.17     -302.19022      0.36334983     0.056872584    27.508458      18.278494    
     99470   198.94         348.42058      133907.73     -807627.63     -302.24489      0.36335823     0.056881558    27.527486      17.940135    
     99480   198.96         346.89323      133449.19     -807628.78     -300.96482      0.36336648     0.056639365    27.510752      17.601773    
     99490   198.98         339.42763      135877.15     -807626.03     -302.72926      0.3633746      0.056970148    27.493203      17.263406    
     99500   199            335.90268      135960.87     -807624.12     -304.27065      0.36338256     0.057258966    27.504331      16.925034    
     99510   199.02         337.01816      137158.19     -807623.66     -9757.1336      0.36339039     0.057378125    27.381048      16.586665    
     99520   199.04         337.44247      135553.91     -807625.83     -9692.712       0.36339807     0.056998081    27.436154      16.248287    
     99530   199.06         344.13515      135688.06     -807626.93     -9688.9792      0.3634056      0.056974949    27.47166       15.909901    
     99540   199.08         345.55303      133488.27     -807627.54     -9679.7028      0.363413       0.056919242    27.485329      15.57151     
     99550   199.1          336.21582      135564.67     -807625.86     -9693.5067      0.36342025     0.056999275    27.527486      15.233111    
     99560   199.12         346.32975      132995.58     -807630.14     -9607.1131      0.36342736     0.056490163    27.558863      14.894705    
     99570   199.14         339.63044      136287.94     -807626.58     -9691.4426      0.36343432     0.056984932    27.551624      14.556294    
     99580   199.16         333.48573      133966.56     -807626.1      -9688.2595      0.36344114     0.056965146    27.551566      14.217879    
     99590   199.18         341.52744      136718.44     -807624.85     -9767.0942      0.36344782     0.057427624    27.544464      13.879459    
     99600   199.2          342.09644      133913.4      -807627.26     -9703.6729      0.36345435     0.0570537      27.525375      13.541035    
     99610   199.22         341.35944      136869.31     -807625.37     -9763.7961      0.36346074     0.057406191    27.514669      13.202607    
     99620   199.24         338.04428      133675.4      -807627.5      -9694.6764      0.36346699     0.056998822    27.499291      12.864174    
     99630   199.26         331.13611      136855.13     -807625.97     -9717.1238      0.3634731      0.05712984     27.452393      12.525739    
     99640   199.28         341.79125      131471.71     -807630.49     -9632.1272      0.36347906     0.056629191    27.457741      12.187298    
     99650   199.3          325.33331      135362.4      -807626.42     -9695.6989      0.36348487     0.057002029    27.449114      11.848853    
     99660   199.32         328.52191      133355.64     -807627.45     -9689.0333      0.36349055     0.056961952    27.406493      11.510404    
     99670   199.34         316.46784      137385.28     -807623.28     -9773.6808      0.36349608     0.057458722    27.391949      11.17195     
     99680   199.36         336.24677      134572.36     -807628.79     -9694.5163      0.36350147     0.056992475    27.404311      10.833491    
     99690   199.38         335.94307      136632.3      -807626.57     -9766.3836      0.36350671     0.057414143    27.444479      10.495025    
     99700   199.4          328.75657      134891.2      -807627.34     -9718.4891      0.36351181     0.057131782    27.459769      10.156553    
     99710   199.42         325.09738      136165.04     -807626.93     -9717.2858      0.36351677     0.057123928    27.437637      9.8180762    
     99720   199.44         330.83735      132988.94     -807629.78     -9656.3564      0.36352158     0.056764998    27.424714      9.4795951    
     99730   199.46         332.31709      134114.93     -807629.37     -9675.8444      0.36352625     0.056878828    27.399717      9.1411096    
     99740   199.48         318.49211      134360.49     -807627.43     -9678.6224      0.36353078     0.05689445     27.436901      8.8026175    
     99750   199.5          327.48789      134851.76     -807628.17     -9694.0888      0.36353516     0.05698468     27.496286      8.4641183    
     99760   199.52         336.45012      135438.96     -807628.5      -9720.6603      0.3635394      0.057140208    27.509938      8.1256136    
     99770   199.54         331.51246      134627.76     -807627.84     -9718.0647      0.3635435      0.057124307    27.524094      7.7871034    
     99780   199.56         330.91547      136165.42     -807626.49     -9754.712       0.36354745     0.057339102    27.470711      7.4485898    
     99790   199.58         322.36519      133946.32     -807627.1      -9694.9861      0.36355126     0.05698743     27.46932       7.1100711    
     99800   199.6          333.12309      135650.83     -807627.88     -9708.2297      0.36355493     0.057064701    27.485292      6.7715469    
     99810   199.62         318.32354      132701.8      -807628.78     -9611.0868      0.36355845     0.05649315     27.477992      6.4330178    
     99820   199.64         327.8053       136681.47     -807625.92     -9733.0384      0.36356183     0.057209439    27.527883      6.0944825    
     99830   199.66         350.32886      131185.46     -807631.63     -9643.1913      0.36356507     0.056680826    27.528465      5.7559421    
     99840   199.68         325.97243      138430.08     -807624.29     -9753.1235      0.36356816     0.057326498    27.530673      5.4173968    
     99850   199.7          339.47238      133146.63     -807628.54     -9672.3517      0.36357111     0.05685128     27.531477      5.0788465    
     99860   199.72         333.08037      138570.32     -807622.48     -9821.4223      0.36357392     0.057727028    27.492739      4.740292     
     99870   199.74         333.44945      133819.24     -807627.73     -9652.7137      0.36357658     0.056735       27.457299      4.401733     
     99880   199.76         337.74534      137496.82     -807624.8      -9748.1984      0.3635791      0.057295826    27.474164      4.0631687    
     99890   199.78         330.31243      131508.08     -807627.4      -9629.9722      0.36358148     0.056600572    27.506878      3.7245988    
     99900   199.8          335.86632      137020.1      -807625.38     -9707.7457      0.36358371     0.057057339    27.533568      3.3860235    
     99910   199.82         339.2565       131792.42     -807628.8      -9612.5907      0.3635858      0.05649774     27.54093       3.0474432    
     99920   199.84         350.86207      136217.34     -807626.69     -9722.1531      0.36358775     0.057141384    27.501959      2.7088584    
     99930   199.86         335.33332      135619.63     -807625.43     -9695.4528      0.36358955     0.056984172    27.469172      2.370269     
     99940   199.88         340.11513      139046.58     -807623.74     -9765.6973      0.36359121     0.057396766    27.50347       2.0316741    
     99950   199.9          346.03558      135124.32     -807626.76     -9693.7382      0.36359273     0.056973597    27.493789      1.6930743    
     99960   199.92         342.98358      136667.78     -807625.3      -9723.2727      0.3635941      0.057146966    27.445315      1.3544697    
     99970   199.94         351.14926      135056.25     -807627.38     -9695.4134      0.36359533     0.056983035    27.411126      1.0158602    
     99980   199.96         336.55325      134971.92     -807625.79     -9679.9023      0.36359641     0.056891702    27.443574      0.67724527   
     99990   199.98         339.00948      135158.04     -807625.86     -9687.5829      0.36359736     0.056936695    27.470927      0.33862517   
    100000   200            346.08665      133574.58     -807627.98     -9652.2291      0.36359816     0.056728786    27.455214      0            
Loop time of 3386.28 on 32 procs for 100000 steps with 1080 atoms

Performance: 5.103 ns/day, 4.703 hours/ns, 29.531 timesteps/s, 31.893 katom-step/s
60.8% CPU use with 32 MPI tasks x 1 OpenMP threads

MPI task timing breakdown:
Section |  min time  |  avg time  |  max time  |%varavg| %total
---------------------------------------------------------------
Pair    | 2534.5     | 2803.2     | 3048.2     | 226.5 | 82.78
Neigh   | 0.0016506  | 0.0017454  | 0.0019841  |   0.2 |  0.00
Comm    | 262.99     | 507.71     | 776.16     | 532.0 | 14.99
Output  | 2.4967     | 2.5057     | 2.5139     |   0.3 |  0.07
Modify  | 66.338     | 66.704     | 67.109     |   2.8 |  1.97
Other   |            | 6.176      |            |       |  0.18

Nlocal:          33.75 ave          45 max          26 min
Histogram: 1 4 6 5 6 4 3 2 0 1
Nghost:        1028.12 ave        1046 max        1007 min
Histogram: 1 0 2 5 3 9 7 2 2 1
Neighs:              0 ave           0 max           0 min
Histogram: 32 0 0 0 0 0 0 0 0 0
FullNghs:      5365.56 ave        7189 max        4113 min
Histogram: 1 5 5 6 5 4 3 2 0 1

Total # of neighbors = 171698
Ave neighs/atom = 158.97963
Neighbor list builds = 4
Dangerous builds = 0

Total wall time: 0:59:58
