
units		metal
atom_style	atomic

read_data ${STRUCTURE}.data
read_data BaTiO3-sc333.data
Reading data file ...
  orthogonal box = (0 0 0) to (11.898253 11.898253 12.912076)
  2 by 4 by 4 MPI processor grid
  reading atoms ...
  135 atoms
  read_data CPU = 0.005 seconds
replicate $L $L $L
replicate 2 $L $L
replicate 2 2 $L
replicate 2 2 2
Replication is creating a 2x2x2 = 8 times larger system...
  orthogonal box = (0 0 0) to (23.796507 23.796507 25.824152)
  2 by 4 by 4 MPI processor grid
  1080 atoms
  replicate CPU = 0.003 seconds

pair_style allegro
pair_coeff	* * ${MODEL}.pth Ba Ti O
pair_coeff	* * BaTiO3-E0.pth Ba Ti O
mass 1 137.3
mass 2 47.9
mass 3 15.9994

timestep 0.002
compute polarization all allegro polarization 3
compute allegro will evaluate the quantity polarization of length 3 (src/compute_allegro.cpp:53)
compute polarizability all allegro polarizability 9
compute allegro will evaluate the quantity polarizability of length 9 (src/compute_allegro.cpp:53)

thermo_style custom pe fmax fnorm spcpu cpuremain

variable efield equal 1e-2*36.36
fix born all addbornforce 0.0 0.0 ${efield}
fix born all addbornforce 0.0 0.0 0.3636

thermo 10
min_style fire
#minimize 0.0 1e-6 100 100
velocity all create ${TEMP} ${SEED} dist gaussian rot yes mom yes
velocity all create 280 ${SEED} dist gaussian rot yes mom yes
velocity all create 280 241 dist gaussian rot yes mom yes
fix nvt all nvt temp ${TEMP} ${TEMP} $(100*dt)
fix nvt all nvt temp 280 ${TEMP} $(100*dt)
fix nvt all nvt temp 280 280 $(100*dt)
fix nvt all nvt temp 280 280 0.2000000000000000111
run 5000
Neighbor list info ...
  update: every = 1 steps, delay = 0 steps, check = yes
  max neighbors/atom: 2000, page size: 100000
  master list distance cutoff = 8
  ghost atom cutoff = 8
  binsize = 8, bins = 3 3 4
  1 neighbor lists, perpetual/occasional/extra = 1 0 0
  (1) pair allegro/kk, perpetual
      attributes: full, newton on, kokkos_device
      pair build: full/bin/kk/device
      stencil: full/bin/3d
      bin: kk/device
Per MPI rank memory allocation (min/avg/max) = 3.516 | 3.516 | 3.516 Mbytes
    PotEng          Fmax          Fnorm          S/CPU         CPULeft    
-807708.29      1.5958899      37.043467      0              0            
-807647.36      3.1137019      45.283676      2.1988235      2269.3961    
-807638.01      2.6043997      34.825926      25.875264      1228.6551    
-807609.07      3.4857662      37.415442      25.885673      881.45808    
-807606.14      4.2564795      49.804019      25.828671      707.772      
-807568.61      3.4624275      40.290538      25.78226       603.47453    
-807605.57      2.9476984      37.995818      25.878571      533.69474    
-807647.99      3.280562       33.216637      25.874563      483.74586    
-807686.68      2.2236744      33.398211      25.863785      446.19744    
-807668.9       3.0402634      33.216588      25.850467      416.91811    
-807656.49      3.0295161      33.012355      25.88316       393.39332    
-807663.47      2.3953595      25.018633      25.86556       374.08723    
-807630.94      2.4003011      28.857836      25.86186       357.93659    
-807587.97      2.7871012      38.143694      25.8533        344.21599    
-807574.25      2.6395763      36.368247      25.891482      332.38042    
-807636.35      2.9360871      31.606612      25.878757      322.07757    
-807657.6       2.6105329      28.871483      25.884772      313.01156    
-807666.06      2.77632        33.034345      25.868647      304.97353    
-807650.91      3.9262198      43.124524      25.894354      297.77538    
-807683.05      3.2415712      35.380088      25.855413      291.30901    
-807642.97      3.8092718      38.142566      25.855343      285.45062    
-807618.11      2.792664       38.187079      25.88282       280.10398    
-807566.05      4.1608321      44.042031      25.88809       275.20656    
-807611.17      4.2230567      47.843261      25.837506      270.7171     
-807616.8       3.9996532      37.493466      25.843667      266.56767    
-807645.77      3.0276395      34.095671      25.879186      262.70915    
-807646.72      4.1198207      43.460748      25.900879      259.11183    
-807685.06      2.6023106      36.582479      25.848262      255.76613    
-807663.26      3.7511373      33.999072      25.799679      252.64407    
-807641         2.570495       30.670216      25.879766      249.6911     
-807610         3.0524399      32.216874      25.89037       246.90676    
-807610.14      3.7502885      41.261311      25.844236      244.28757    
-807601.07      2.7606667      34.215463      25.784036      241.82111    
-807615.18      2.5300461      31.281206      25.88787       239.45861    
-807647.1       3.5232378      28.593851      25.878807      237.21421    
-807677.9       2.5387774      30.230259      25.850539      235.08159    
-807679.27      1.9522713      30.170318      25.775946      233.0604     
-807648.83      3.5648883      34.930108      25.858831      231.11193    
-807651.69      2.2345626      28.212147      25.87284       229.2431     
-807623.63      2.9257355      32.26078       25.850815      227.45419    
-807605.65      3.5700307      41.200911      25.796588      225.74473    
-807577.22      3.3955095      38.839827      25.879363      224.08586    
-807631.77      2.7795969      33.202179      25.890004      222.48587    
-807654.46      3.3762191      33.465021      25.876973      220.94438    
-807677.13      2.6408571      33.545538      25.852719      219.45917    
-807644.98      4.5031269      45.202657      25.885988      218.01774    
-807671.8       3.0724953      33.700381      25.828296      216.6307     
-807644.2       4.4909283      35.927816      25.831558      215.28574    
-807624.52      3.0067888      37.551648      25.857902      213.97697    
-807568.32      4.4306762      42.185911      25.880313      212.70276    
-807610.83      4.0356078      41.580913      25.894382      211.46217    
-807629.96      3.5241862      33.264632      25.848869      210.26107    
-807660.78      2.4201044      30.311546      25.859335      209.08994    
-807647.84      4.075843       39.730103      25.870189      207.94704    
-807678.16      2.4843752      32.290916      25.818716      206.83853    
-807668.96      3.1730486      30.547082      25.814527      205.75674    
-807643.36      2.8209472      29.004696      25.881108      204.69185    
-807602.31      2.9219838      32.68686       25.890964      203.64963    
-807601.72      3.2031282      37.420137      25.855156      202.6341     
-807611.96      3.282088       35.657601      25.808882      201.64508    
-807628.25      2.979605       29.817101      25.880013      200.66829    
-807646.06      2.927748       30.455697      25.880285      199.71083    
-807670.27      2.9791498      31.314613      25.85348       198.77463    
-807679.27      2.4610276      33.144991      25.764257      197.86515    
-807649.78      3.4769412      34.910396      25.834951      196.96473    
-807636.34      2.8423641      31.177274      25.868936      196.07671    
-807613.92      3.5576555      33.074569      25.878615      195.20293    
-807607.29      4.0433633      43.229455      25.802943      194.35102    
-807587.25      4.3093926      38.49656       25.843685      193.50889    
-807626.97      3.0572967      33.212358      25.884145      192.67617    
-807651.26      4.3541746      36.322126      25.869862      191.85752    
-807678.27      3.145008       35.333088      25.815057      191.056      
-807650.93      5.7747467      42.090298      25.793893      190.26787    
-807657.08      3.4323033      33.621137      25.849368      189.48584    
-807641.05      3.7689221      33.069226      25.877885      188.71205    
-807624.51      3.5239777      36.993519      25.853424      187.95065    
-807577.02      3.4413613      38.011401      25.857047      187.19881    
-807602         2.6319473      36.931169      25.888333      186.45388    
-807635.07      2.862923       30.556198      25.838168      185.72221    
-807665.96      2.5990643      30.90184       25.857178      184.99775    
-807655.06      3.4052183      36.102869      25.875617      184.28028    
-807664.82      2.7094975      33.06422       25.765013      183.57957    
-807666.61      3.193235       30.824776      25.835548      182.88108    
-807643.73      2.5380601      29.921943      25.853023      182.18878    
-807601.02      3.1606512      34.52972       25.870044      181.5025     
-807590.23      3.2571183      36.558413      25.90042       180.82105    
-807614.49      3.0180856      36.006544      25.822031      180.15211    
-807638.63      3.0878041      29.061817      25.805008      179.49087    
-807647.62      2.5207987      31.739878      25.848323      178.8328     
-807660.55      3.3268495      33.946564      25.868137      178.17946    
-807676.8       2.2479275      33.290513      25.79216       177.53723    
-807652.75      3.7497672      33.541149      25.800153      176.90006    
-807631.21      2.713282       32.041099      25.874799      176.26336    
-807603.42      3.761796       34.801986      25.862909      175.63281    
-807608.62      3.9466576      42.71512       25.818046      175.01036    
-807603.4       4.1687996      36.15723       25.822935      174.39254    
-807627.98      3.1770932      33.296643      25.887809      173.77544    
-807648.59      4.1211226      35.975291      25.889012      173.16303    
-807676.29      2.8916255      34.839557      25.840336      172.55821    
-807658.09      3.4693004      36.396779      25.820988      171.95897    
-807649.51      2.7963096      32.577065      25.858934      171.3617     
-807632.5       3.3677364      32.001312      25.87485       170.76766    
-807623.66      3.5553822      37.177928      25.854199      170.17889    
-807591.51      2.8833016      36.269976      25.828567      169.59552    
-807603.85      2.9281918      35.842297      25.884037      169.01277    
-807635.39      3.3710427      31.05214       25.858074      168.43522    
-807667.18      2.781713       30.622497      25.848589      167.86179    
-807662.37      3.0688919      32.744433      25.844889      167.29206    
-807657.22      3.3328022      33.192387      25.869455      166.72438    
-807658.01      2.9038995      29.821874      25.856758      166.1607     
-807642.16      2.5030977      29.631717      25.858411      165.60015    
-807608.65      2.7491607      33.925835      25.858822      165.04271    
-807586.37      3.4978612      36.644331      25.861311      164.48819    
-807619.8       2.9202511      34.231284      25.846853      163.93738    
-807642.89      3.5925631      30.999077      25.847613      163.38941    
-807655.96      3.4890977      31.717247      25.872924      162.84298    
-807652.36      4.3547688      37.812688      25.885899      162.29866    
-807670.65      3.1361488      33.238661      25.831964      161.75968    
-807651.78      3.0764989      33.671499      25.784835      161.22557    
-807630.73      2.770151       32.494778      25.825077      160.69198    
-807595.13      3.4664526      36.317902      25.876482      160.15839    
-807609.08      4.2554579      40.132277      25.869778      159.62755    
-807615.42      3.5336127      33.718031      25.775709      159.10344    
-807638.75      3.0892775      31.595879      25.820308      158.5795     
-807645.75      3.6880951      35.38629       25.898214      158.05423    
-807671.24      2.3159504      33.546965      25.813842      157.53497    
-807660.81      3.3638032      33.237783      25.79012       157.01885    
-807648.15      2.9941825      30.978868      25.859994      156.50169    
-807621.13      3.6667716      32.302436      25.83154       155.9878     
-807617.43      3.4674903      36.606646      25.906676      155.47265    
-807602.52      3.3571395      36.179525      25.8556        154.96165    
-807612.34      3.036569       33.850073      25.879443      154.45155    
-807634.9       3.50072        31.363358      25.881744      153.94323    
-807662.91      2.6719419      31.622853      25.797318      153.44023    
-807665.39      3.3183704      32.638271      25.821971      152.93794    
-807652.98      3.1475479      33.720382      25.841894      152.43654    
-807646.73      2.8902581      30.865906      25.841279      151.93686    
-807633.71      2.7965277      31.13502       25.879097      151.43732    
-807612.16      3.9118097      35.767672      25.857225      150.94028    
-807591.27      2.9075612      36.392823      25.862507      150.44462    
-807618.65      3.0600398      32.549106      25.880107      149.94984    
-807644.49      3.3371364      31.309891      25.870675      149.45695    
-807662.69      2.6139184      31.590728      25.825278      148.96728    
-807651.51      4.7067787      36.491475      25.84494       148.47831    
-807661.2       2.7653         32.453767      25.849233      147.99059    
-807648.74      3.4691405      32.038477      25.846316      147.50437    
-807631.62      2.6067535      32.640264      25.887954      147.01801    
-807591.93      3.1348937      36.233192      25.889672      146.53294    
-807604.61      3.7143482      37.701558      25.89486       146.04903    
-807622.8       3.5187779      33.014991      25.854068      145.56786    
-807648.76      2.6411667      31.342962      25.863591      145.08762    
-807646.53      3.8440558      35.58584       25.859111      144.60877    
-807665.91      2.3984813      32.780466      25.829745      144.13214    
-807659.64      2.8243319      32.984045      25.825492      143.65683    
-807647.28      2.8611288      30.581002      25.895562      143.1803     
-807614.32      3.2351699      32.690957      25.890576      142.70511    
-807607.98      2.8740106      35.130407      25.955268      142.22893    
-807607.9       3.170326       35.511424      25.84962       141.75736    
-807624.04      2.5288863      30.915158      25.865212      141.28635    
-807637.34      2.9718771      31.438703      25.919667      140.81466    
-807658.84      3.4447279      32.679249      25.857005      140.34603    
-807666.58      2.4268238      32.647576      25.86403       139.8782     
-807654.65      3.2645392      32.375294      25.868567      139.41122    
-807638.49      3.2861024      31.655107      25.878194      138.94494    
-807621.68      3.6580871      32.962419      25.908894      138.47869    
-807612.61      3.6179601      37.144333      25.841139      138.01547    
-807599.71      3.9825524      36.319564      25.882282      137.55194    
-807622.23      2.985512       32.357701      25.815574      137.09131    
-807643.53      4.1326987      32.565036      25.891798      136.62931    
-807666         2.8586646      32.115752      25.864226      136.169      
-807652.94      4.5767076      35.375733      25.835012      135.71042    
-807654.58      2.887102       31.592274      25.85743       135.25202    
-807641.76      4.0689968      31.146525      25.872882      134.79402    
-807629.5       3.0039917      32.255329      25.890065      134.33636    
-807596.99      4.1630681      34.96846       25.845934      133.88075    
-807607.22      3.4283911      34.934394      25.907759      133.42422    
-807628.44      3.9330077      31.311227      25.864969      132.96966    
-807653.5       2.6672012      30.847834      25.855894      132.51612    
-807653.49      3.1990931      33.318834      25.871778      132.0629     
-807658.91      2.9817651      32.613815      25.889976      131.60993    
-807656.9       3.1670045      32.047388      25.861591      131.15847    
-807644.77      3.3344053      30.801164      25.871704      130.70745    
-807614.74      2.8354799      32.948454      25.86111       130.25741    
-807601.44      3.5863568      35.034032      25.898757      129.8071     
-807613.45      3.6883227      34.563278      25.894722      129.35759    
-807633.52      2.9251356      30.45437       25.899481      128.90864    
-807645.14      3.6673391      31.194954      25.916803      128.45993    
-807655.7       3.9284566      32.928322      25.892947      128.01249    
-807665.48      2.7352013      32.226994      25.840926      127.56698    
-807654.06      3.652928       32.040729      25.860907      127.12161    
-807634.74      3.0559765      31.499233      25.877125      126.67646    
-807613.14      3.2789232      33.156485      25.915344      126.231      
-807611.55      3.7466897      37.296994      25.887577      125.78683    
-807610.11      3.4007555      34.484855      25.866041      125.34377    
-807628.75      3.4263736      31.722905      25.897588      124.90054    
-807644.62      3.2513147      32.120841      25.912732      124.45755    
-807665.15      2.6446805      32.363994      25.861169      124.01634    
-807656.07      3.6812443      33.82589       25.82965       123.57641    
-807648.99      3.3969266      31.770686      25.852054      123.13649    
-807632.23      3.3265253      31.951453      25.864901      122.69682    
-807622.3       2.8751954      34.397455      25.865719      122.25766    
-807602.7       2.9219947      35.291424      25.857787      121.8192     
-807610.26      2.7533782      34.054323      25.839527      121.38166    
-807629.53      3.74257        31.918787      25.881625      120.94369    
-807654.99      3.0058413      31.932852      25.836306      120.50721    
-807656.01      3.2566057      32.911578      25.815148      120.07168    
-807653.72      2.9848052      33.500937      25.795447      119.63703    
-807648.24      3.2279812      32.489471      25.851587      119.20164    
-807638.07      2.793912       31.81648       25.903014      118.76564    
-807614.69      3.1256342      34.116106      25.884947      118.3305     
-807597.92      3.2933814      36.373753      25.8969        117.89557    
-807614         2.7228719      34.292931      25.836884      117.46234    
-807637.96      2.4761125      31.901451      25.8598        117.02907    
-807651.2       3.1216021      32.256521      25.836501      116.59671    
-807651.15      2.9175758      34.395356      25.834772      116.16481    
-807659.37      3.7547396      33.210509      25.83762       115.73327    
-807649.45      2.9767548      32.485839      25.873614      115.30144    
-807634.02      3.0499714      31.899863      25.875465      114.86998    
-807603.23      3.1730773      34.554479      25.872211      114.439      
-807608.64      3.1693741      36.053715      25.897096      114.00796    
-807616.95      3.1717675      33.651966      25.823864      113.57871    
-807637.41      2.3821026      31.639976      25.844019      113.14946    
-807643.86      3.2517567      33.888605      25.847397      112.72053    
-807662.18      2.8639562      33.001478      25.85373       112.29186    
-807657.36      3.4220771      33.54355       25.895518      111.86279    
-807647.96      2.7565172      32.189107      25.906473      111.43391    
-807622.32      3.585499       33.587478      25.882804      111.00583    
-807615.13      3.2842197      34.859777      25.909914      110.57764    
-807606.57      3.1881102      35.604833      25.903332      110.14993    
-807618.17      2.6546862      33.258172      25.844289      109.72363    
-807632.92      3.3512155      31.462444      25.881709      109.29702    
-807655.2       2.6978334      31.752919      25.86699       108.87101    
-807661.36      4.0751545      32.417759      25.844233      108.44573    
-807653.59      2.8680975      32.489658      25.881213      108.02015    
-807642.32      3.3908803      31.191485      25.884227      107.59485    
-807630.54      3.5391609      32.406479      25.852554      107.17042    
-807614.26      3.1940269      34.056957      25.869916      106.74601    
-807601.96      3.125192       35.855487      25.875704      106.32183    
-807618.73      3.6020629      33.069677      25.848092      105.89842    
-807641.85      2.898005       30.921982      25.81897       105.4758     
-807656.4       3.0052063      31.296602      25.845236      105.05304    
-807653.55      3.1624582      33.289541      25.887114      104.62991    
-807653.77      2.8994653      32.024693      25.873707      104.20729    
-807645.74      3.16096        30.767686      25.871477      103.78501    
-807629.32      3.0598275      32.485057      25.810276      103.36398    
-807605.64      3.1625204      34.004353      25.840572      102.94275    
-807607.4       2.9355683      35.348411      25.865093      102.52142    
-807624.62      2.7128488      32.04409       25.848755      102.10062    
-807645.63      2.4879797      30.898919      25.802513      101.68081    
-807649.27      3.6145765      32.74488       25.853151      101.26048    
-807658.2       2.7702141      32.244363      25.859114      100.84034    
-807654.6       3.1607486      31.845114      25.852586      100.42055    
-807645.49      2.6954177      30.51469       25.857685      100.00096    
-807617.98      3.1009641      32.84612       25.898638      99.581025    
-807609.09      3.6655548      34.857903      25.87705       99.161671    
-807611.05      3.359191       34.200151      25.870785      98.742663    
-807627.5       3.6611121      32.300991      25.861351      98.324046    
-807637.37      4.0980172      32.162851      25.88996       97.905271    
-807654.46      2.632318       31.824946      25.861888      97.487143    
-807659.72      2.8337265      32.527516      25.834543      97.069638    
-807653.45      3.3937476      31.659418      25.853842      96.6521      
-807636.34      3.4988857      31.06184       25.876531      96.234488    
-807621.71      3.6841599      32.660705      25.862178      95.817308    
-807612.08      3.3184128      35.77291       25.806447      95.401113    
-807610.17      3.4656906      34.004679      25.818304      94.984976    
-807622.67      2.8179834      31.882059      25.84161       94.568747    
-807642.95      2.8546374      30.633796      25.877306      94.152268    
-807658.85      3.7854927      31.902445      25.8369        93.736541    
-807654.67      3.4172479      32.977268      25.858392      93.32075     
-807649.59      3.9672335      31.701134      25.866259      92.905075    
-807635.16      3.832248       31.186757      25.866521      92.489611    
-807624.93      3.9795535      34.055956      25.835208      92.074756    
-807603.01      2.7412175      34.997522      25.843942      91.659996    
-807609.05      2.8523011      34.819221      25.885137      91.244928    
-807625.82      3.5774265      33.360002      25.939596      90.8294      
-807651.13      2.9338791      31.441036      25.876366      90.414862    
-807651.32      3.5162053      34.051454      25.888848      90.000376    
-807653.85      2.6636744      33.363043      25.899835      89.585961    
-807648.07      3.8206259      33.492638      25.860569      89.172219    
-807640.17      2.7694838      32.456295      25.87169       88.758539    
-807615.04      2.9557985      33.724699      25.906775      88.344641    
-807604.74      2.9048717      35.957809      25.879219      87.931262    
-807613.61      2.9806915      34.235594      25.904094      87.517788    
-807634.71      2.5195254      31.705884      25.939902      87.104099    
-807645.01      3.2435238      31.564864      25.916402      86.690875    
-807652.64      2.8362269      33.302305      25.918602      86.277818    
-807656.5       3.5463181      32.670744      25.883597      85.865341    
-807651.18      2.9092903      31.729533      25.847283      85.453449    
-807632.44      2.7350455      31.20714       25.855366      85.041643    
-807615.57      2.9782834      32.335018      25.86675       84.629885    
-807609.86      2.8735522      34.627215      25.900111      84.21794     
-807617.38      2.9468776      33.219257      25.808441      83.807158    
-807630.74      2.8059276      31.626185      25.852299      83.396067    
-807645.62      2.9222906      31.311172      25.924952      82.984376    
-807659.28      3.2644226      31.831062      25.921892      82.572894    
-807655.87      3.4990902      33.515659      25.927426      82.161528    
-807646.95      2.5348725      31.373516      25.926848      81.750342    
-807629.38      3.2842152      31.465864      25.922994      81.339367    
-807619.99      3.091463       33.262739      25.897361      80.92882     
-807607.24      4.1047607      35.549092      25.904094      80.518369    
-807615.81      2.8249214      33.483         25.904853      80.108072    
-807632.07      3.1536522      31.890393      25.930605      79.697684    
-807652.64      3.2453047      31.511222      25.921488      79.287549    
-807656.81      2.7639723      32.261527      25.877175      78.878003    
-807653.38      3.1418962      32.124781      25.898382      78.468406    
-807643.65      4.3347239      32.35605       25.934682      78.058617    
-807633.07      3.2029096      30.918288      25.91423       77.649179    
-807614.64      3.3449241      33.05953       25.868647      77.240322    
-807607.25      3.5248962      34.131063      25.87335       76.831567    
-807616.8       3.1118762      32.504553      25.904014      76.422672    
-807639.4       2.6361782      30.478914      25.879925      76.014145    
-807651.23      3.0666805      31.22613       25.903953      75.605542    
-807653.17      3.0403333      32.948208      25.919939      75.196941    
-807652.98      3.5031095      31.553239      25.924628      74.788444    
-807645.7       2.8093013      31.420923      25.927477      74.380066    
-807630.84      2.9053654      30.767672      25.930041      73.97181     
-807610.44      3.0715597      33.8841        25.919461      73.563789    
-807609.47      2.7336047      34.140971      25.882741      73.156224    
-807624.06      2.4495168      32.124968      25.856338      72.749018    
-807639.41      2.748884       30.695616      25.860335      72.341907    
-807646.29      2.9824727      32.090608      25.905627      71.934543    
-807654.89      3.1624244      32.249435      25.918602      71.527203    
-807652.17      2.4979342      31.931804      25.882362      71.120297    
-807644.31      2.9160723      30.538255      25.906977      70.713316    
-807622.99      2.3553071      31.595286      25.929651      70.306282    
-807613.38      2.8425432      34.203521      25.879401      69.899782    
-807613.46      3.7171593      34.130097      25.926172      69.493033    
-807624.16      3.7471044      33.199505      25.920681      69.086457    
-807635.62      3.3302452      32.120593      25.928027      68.67995     
-807651.04      3.0443492      32.790526      25.929839      68.273555    
-807655.8       3.0452563      32.805896      25.909025      67.867446    
-807650.73      3.9368514      32.397825      25.86874       67.461765    
-807637.04      3.1957746      32.263044      25.913044      67.055865    
-807627.57      2.941959       32.056448      25.835418      66.650666    
-807613.47      2.8053426      34.336163      25.809478      66.24577     
-807611.74      2.5937185      34.295727      25.868708      65.840541    
-807622.29      3.036342       32.584771      25.917021      65.435071    
-807641.06      2.8327992      31.93504       25.857351      65.030148    
-807653.6       2.8730887      32.344839      25.89961       64.62503     
-807652.23      3.249665       33.460267      25.892458      64.220075    
-807647.79      3.4700126      32.345043      25.908664      63.815117    
-807639.67      3.7553672      32.198847      25.921089      63.410184    
-807625.52      2.9628937      33.451835      25.921136      63.005362    
-807610.19      3.2789598      34.573957      25.922502      62.600642    
-807611.22      3.2789224      34.183175      25.950113      62.195847    
-807628.28      3.2289108      32.633672      25.931783      61.791286    
-807644.59      3.1999921      31.81725       25.92675       61.386868    
-807648.84      2.7679486      32.564725      25.913846      60.982642    
-807652.29      2.8987484      32.705574      25.898308      60.578623    
-807649.79      3.0470941      32.899641      25.857005      60.174974    
-807639.65      2.8840863      31.330509      25.82934       59.771599    
-807620.67      3.4976764      32.502087      25.882408      59.367979    
-807610.81      2.8698586      34.758185      25.820219      58.964848    
-807616.33      3.2383588      33.483597      25.856598      58.56158     
-807629.4       2.9649043      32.854654      25.853741      58.158423    
-807640.67      2.9451757      32.159357      25.904051      57.755052    
-807650.55      3.3754234      32.59297       25.897164      57.351819    
-807652.45      2.8879073      33.244039      25.916514      56.948567    
-807649.16      3.2521228      32.526889      25.865253      56.545715    
-807634.46      3.7712803      32.542336      25.920079      56.142632    
-807620.98      3.0739457      33.194592      25.900092      55.739762    
-807613.19      3.0621111      34.481829      25.854847      55.337244    
-807617.88      3.3603152      33.434956      25.823945      54.93499     
-807628.03      2.7002017      32.266583      25.847702      54.532684    
-807643.09      3.2183821      32.022092      25.904374      54.130146    
-807653.59      3.4924562      32.191513      25.868291      53.727898    
-807653.1       3.2554117      32.515557      25.842122      53.32588     
-807644.51      3.3953515      32.052172      25.892663      52.923669    
-807634.7       2.8460288      31.821687      25.92666       52.521364    
-807621.91      2.8978776      33.18339       25.959701      52.118974    
-807613.3       3.0042969      34.575389      25.925481      51.716856    
-807615.44      2.5887755      33.873061      25.937434      51.314765    
-807633.04      2.7466895      31.709077      25.927707      50.912812    
-807647.44      3.8814515      32.625099      25.918198      50.510995    
-807651.1       3.034333       33.204765      25.922163      50.109243    
-807649.9       3.0179359      32.856127      25.92673       49.707554    
-807646.22      3.4339089      31.862876      25.919071      49.305988    
-807634.2       3.3948427      31.86559       25.923942      48.904481    
-807617.57      3.2167448      33.566036      25.888918      48.503226    
-807612.77      4.2597995      33.793934      25.912785      48.101937    
-807622.2       2.8939023      33.140362      25.896705      47.700805    
-807635.9       3.5157372      32.253589      25.885871      47.299801    
-807645.43      2.6055551      31.779214      25.900757      46.898806    
-807651.93      3.0882473      31.850631      25.931257      46.49775     
-807650.68      3.429704       32.790508      25.948127      46.096698    
-807646.87      2.8090182      31.447893      25.902252      45.695932    
-807628.44      3.2045578      32.938056      25.930345      45.295119    
-807617.61      3.1936814      33.017501      25.923824      44.894412    
-807615.61      3.5797809      34.206201      25.872848      44.494002    
-807624.48      2.7699069      32.780511      25.908645      44.09351     
-807633.84      3.4241436      32.103703      25.925247      43.693024    
-807646.07      2.936198       31.657738      25.925073      43.292614    
-807652.15      3.1821341      32.312585      25.917588      42.892309    
-807650.4       3.2175519      32.35372       25.8842        42.492213    
-807639.68      3.2069023      31.496511      25.898991      42.092128    
-807628.4       2.9253955      32.12289       25.89175       41.692143    
-807619.11      3.0949039      33.744228      25.919178      41.292119    
-807614.41      2.9377292      34.904181      25.938782      40.892092    
-807622.31      3.6430214      32.529578      25.922904      40.492198    
-807635.11      2.6097758      31.965403      25.914229      40.092407    
-807647.89      3.4756014      32.324624      25.920708      39.692662    
-807651.07      2.722536       32.427217      25.901385      39.293057    
-807646.51      3.3706647      32.674473      25.957875      38.893315    
-807639.96      2.3895371      31.618979      25.936565      38.493721    
-807628.62      2.9887369      32.150763      25.945212      38.094166    
-807616.55      3.1812556      34.072569      25.881126      37.694905    
-807611.73      3.4011886      35.204265      25.906484      37.29562     
-807623.72      2.5579175      33.552625      25.926031      36.896333    
-807640.17      3.3539824      31.271961      25.936081      36.497079    
-807646.34      2.9167176      32.403105      25.902879      36.098002    
-807650.22      3.2359715      32.539233      25.885562      35.699046    
-807647.16      3.1990904      32.464759      25.911083      35.300068    
-807638.98      3.0310574      31.862157      25.912424      34.901149    
-807625.19      3.0430783      32.814145      25.860703      34.502456    
-807614.24      3.147053       34.06923       25.875691      34.103775    
-807615.89      2.4926168      33.533938      25.883508      33.705128    
-807628.25      2.8966703      32.174375      25.881753      33.306546    
-807639.07      2.8309651      31.754936      25.928674      32.907883    
-807647.02      2.4680126      31.744009      25.874887      32.50944     
-807651.65      3.157907       32.047358      25.923777      32.110913    
-807647.25      3.6026433      31.951138      25.912701      31.712478    
-807636         3.3425275      32.277321      25.880663      31.314193    
-807622.91      3.0778553      32.60429       25.904567      30.915897    
-807617.11      2.8095985      33.504056      25.91211       30.51764     
-807619.48      3.1089612      33.196049      25.897042      30.119481    
-807628.67      3.373339       32.201416      25.919451      29.721319    
-807640.2       3.0477996      31.441244      25.935709      29.323173    
-807649.73      4.4196722      32.124406      25.922083      28.925121    
-807651.66      2.7903596      31.850306      25.943572      28.527073    
-807644.62      3.5027366      31.785053      25.897894      28.129196    
-807633.89      2.6721548      32.292136      25.888183      27.731397    
-807624.36      3.1818253      32.058502      25.855557      27.333729    
-807618.2       3.0058063      33.234417      25.812325      26.936214    
-807618.49      2.8018956      33.119682      25.847118      26.538665    
-807631.01      3.120685       31.609938      25.837337      26.141187    
-807643.68      2.9635876      31.560695      25.801737      25.743837    
-807649.94      2.7145467      32.065082      25.82392       25.346484    
-807649.8       3.0273325      32.072973      25.912404      24.948985    
-807644.35      2.6618407      31.221854      25.922664      24.551518    
-807636.07      3.2334498      31.754399      25.921613      24.154107    
-807624.93      2.4666399      31.329684      25.884751      23.756823    
-807614.43      2.7894431      33.230728      25.923969      23.359511    
-807620.85      2.7157046      32.252919      25.924452      22.96225     
-807632.56      3.2497024      31.564991      25.918811      22.565052    
-807644.59      2.6162651      30.96922       25.870145      22.167997    
-807647.99      3.0071527      32.264485      25.944548      21.770852    
-807648.73      3.1779522      32.513211      25.896221      21.373847    
-807645.31      3.8980578      31.945038      25.893926      20.976894    
-807634.18      3.3519734      31.272297      25.879039      20.580015    
-807620.28      2.8694461      32.913302      25.834577      20.183259    
-807616.66      3.0119689      33.179327      25.859016      19.786504    
-807623.4       3.181935       32.854829      25.815302      19.389866    
-807633.04      2.8008865      31.923481      25.858843      18.993199    
-807642.34      3.0220246      32.27605       25.879142      18.596544    
-807649.9       3.1996491      32.247438      25.907453      18.199892    
-807650.83      3.1244519      32.122314      25.852704      17.803368    
-807641.56      4.6039898      32.689205      25.910781      17.406802    
-807630.19      3.1515358      31.734369      25.88156       17.010324    
-807619.15      3.2280225      33.528953      25.926903      16.613828    
-807619.63      3.1672018      33.598324      25.920013      16.217389    
-807622.47      2.8269481      33.091919      25.868982      15.821062    
-807632.67      3.4828542      32.261275      25.888734      15.424752    
-807645.99      2.570663       31.874802      25.929386      15.028436    
-807650.23      3.4917651      32.465065      25.867276      14.63224     
-807646.67      3.1307048      32.235157      25.809979      14.236152    
-807639.46      3.4070613      32.035744      25.846632      13.840059    
-807629.29      3.0095707      32.901169      25.911288      13.443936    
-807621.13      2.5718792      33.310901      25.848032      13.047923    
-807616.88      3.1765587      33.657223      25.810946      12.651987    
-807622.51      3.4072134      33.0673        25.871524      12.256028    
-807636.46      3.1648384      32.485482      25.960415      11.860024    
-807646.56      3.0344245      32.329859      25.875583      11.464144    
-807647.88      3.7239126      32.43249       25.90734       11.068275    
-807644.44      2.8749569      32.522346      25.884882      10.672468    
-807639.16      3.1562718      32.291196      25.926222      10.276666    
-807629.66      2.7917807      32.728649      25.853698      9.8809645    
-807618.31      3.2594522      33.977208      25.863697      9.4852925    
-807618.18      3.3061747      34.544144      25.925884      9.0896137    
-807625.6       3.353199       34.352013      25.934318      8.6939707    
-807636.74      2.9244585      33.770135      25.869098      8.2984123    
-807642.99      3.9393154      33.41693       25.861118      7.9028964    
-807645.35      2.933129       33.495871      25.860903      7.5074174    
-807645.65      2.97732        32.588225      25.815391      7.1120004    
-807637.98      2.7455374      32.903495      25.847537      6.7165996    
-807624.84      2.6020046      32.57058       25.873441      6.3212214    
-807620.11      3.1682874      32.693678      25.913257      5.9258613    
-807620.76      2.4172269      32.888695      25.920369      5.5305371    
-807630.14      2.4331038      32.811402      25.920806      5.1352519    
-807636.5       2.5822439      32.123398      25.938335      4.7399991    
-807645.62      2.4601178      31.625209      25.945775      4.3447837    
-807650.17      2.9942239      31.913807      25.914467      3.9496177    
-807646.64      2.5663348      31.81381       25.906346      3.5544918    
-807634.9       2.5548935      32.128921      25.978747      3.1593855    
-807625.69      2.9614368      32.234627      25.967468      2.7643228    
-807621.08      3.4004133      33.299527      25.92918       2.3693073    
-807622.2       3.2220208      32.616811      25.904383      1.9743334    
-807627.88      2.6994783      31.871788      25.844075      1.5794027    
-807640.17      2.7509717      31.053113      25.920308      1.1844974    
-807648.54      2.9575392      31.319214      25.825369      0.78963435   
-807649.7       3.2469325      31.887404      25.888875      0.39480004   
-807642.24      3.2562898      32.359097      25.863706      0            
Loop time of 197.392 on 32 procs for 5000 steps with 1080 atoms

Performance: 4.377 ns/day, 5.483 hours/ns, 25.330 timesteps/s, 27.357 katom-step/s
67.0% CPU use with 32 MPI tasks x 1 OpenMP threads

MPI task timing breakdown:
Section |  min time  |  avg time  |  max time  |%varavg| %total
---------------------------------------------------------------
Pair    | 102.74     | 146.13     | 193.39     | 308.1 | 74.03
Neigh   | 0          | 0          | 0          |   0.0 |  0.00
Comm    | 1.7081     | 48.959     | 92.354     | 532.2 | 24.80
Output  | 0.026844   | 0.027558   | 0.029488   |   0.3 |  0.01
Modify  | 1.942      | 1.955      | 1.9664     |   0.4 |  0.99
Other   |            | 0.3158     |            |       |  0.16

Nlocal:          33.75 ave          48 max          21 min
Histogram: 8 8 0 0 0 0 0 8 0 8
Nghost:        1106.25 ave        1119 max        1092 min
Histogram: 8 0 8 0 0 0 0 0 8 8
Neighs:              0 ave           0 max           0 min
Histogram: 32 0 0 0 0 0 0 0 0 0
FullNghs:       5494.5 ave        7896 max        3378 min
Histogram: 8 8 0 0 0 0 0 8 0 8

Total # of neighbors = 175824
Ave neighs/atom = 162.8
Neighbor list builds = 0
Dangerous builds = 0

reset_timestep 0


variable interval equal 1000
thermo 10

variable nintervals equal $(v_PERIOD/v_interval)
variable nintervals equal 100
variable efield equal 1e-2*36.36*cos((step/${PERIOD})*2*3.14)
variable efield equal 1e-2*36.36*cos((step/100000)*2*3.14)
fix born all addbornforce 0.0 0.0 v_efield

variable Px equal f_born[1]+c_polarization[1]
variable Py equal f_born[2]+c_polarization[2]
variable Pz equal (f_born[3]+c_polarization[3])/vol
variable pe equal pe

fix aveP all ave/time 1 $(v_interval/2) ${interval} v_efield v_Pz v_pe f_born file Pz.${MODEL}.${STRUCTURE}.${TEMP}.$L.${ITER}
fix aveP all ave/time 1 500 ${interval} v_efield v_Pz v_pe f_born file Pz.${MODEL}.${STRUCTURE}.${TEMP}.$L.${ITER}
fix aveP all ave/time 1 500 1000 v_efield v_Pz v_pe f_born file Pz.${MODEL}.${STRUCTURE}.${TEMP}.$L.${ITER}
fix aveP all ave/time 1 500 1000 v_efield v_Pz v_pe f_born file Pz.BaTiO3-E0.${STRUCTURE}.${TEMP}.$L.${ITER}
fix aveP all ave/time 1 500 1000 v_efield v_Pz v_pe f_born file Pz.BaTiO3-E0.BaTiO3-sc333.${TEMP}.$L.${ITER}
fix aveP all ave/time 1 500 1000 v_efield v_Pz v_pe f_born file Pz.BaTiO3-E0.BaTiO3-sc333.280.$L.${ITER}
fix aveP all ave/time 1 500 1000 v_efield v_Pz v_pe f_born file Pz.BaTiO3-E0.BaTiO3-sc333.280.2.${ITER}
fix aveP all ave/time 1 500 1000 v_efield v_Pz v_pe f_born file Pz.BaTiO3-E0.BaTiO3-sc333.280.2.1

thermo_style custom step time temp press pe f_born v_efield v_Pz spcpu cpuremain

# dump 4a all custom 1000 dump.hyst.${MODEL}.${STRUCTURE}.${TEMP}.$L.${ITER}.bin id type xu yu zu fx fy fz
# dump_modify 4a sort id

fix nvt all nvt temp ${TEMP} ${TEMP} $(100*dt)
fix nvt all nvt temp 280 ${TEMP} $(100*dt)
fix nvt all nvt temp 280 280 $(100*dt)
fix nvt all nvt temp 280 280 0.2000000000000000111

run $(v_PERIOD)
run 100000
WARNING: non-constant efield is experimental, strongly distrust scalar/vector output (src/fix_addbornforce.cpp:193)
Per MPI rank memory allocation (min/avg/max) = 3.516 | 3.516 | 3.516 Mbytes
   Step          Time           Temp          Press          PotEng         f_born        v_efield         v_Pz          S/CPU         CPULeft    
         0   0              266.61322      124743.69     -807642.23     -295.64122      0.3636         0.055601772    0              0            
        10   0.02           282.40965      132036.17     -807635.48     -304.65979      0.36359993     0.057297921    29.085035      3437.8693    
        20   0.04           275.97154      140035.33     -807627.49     -311.72256      0.36359971     0.058626264    29.087451      3437.3712    
        30   0.06           265.27309      144393.19     -807619.66     -318.07418      0.36359935     0.059820884    29.09766       3436.5784    
        40   0.08           264.37985      143742.02     -807619.08     -318.50286      0.36359885     0.05990159     29.09241       3436.1619    
        50   0.1            293.46143      136047.12     -807632.15     -309.38882      0.36359821     0.058187594    29.113563      3435.2761    
        60   0.12           273.65477      127212.68     -807641.52     -297.08023      0.36359742     0.055872806    29.088893      3435.0569    
        70   0.14           274.08859      121967.57     -807648.6      -289.8896       0.36359649     0.054520581    29.093178      3434.7286    
        80   0.16           254.56981      121512.24     -807645.61     -290.08271      0.36359541     0.054557062    29.07268       3434.7004    
        90   0.18           272.26131      126187.28     -807642.61     -295.42701      0.36359419     0.055562372    29.041421      3435.0124    
       100   0.2            278.58652      132422.82     -807635.66     -303.10743      0.36359283     0.057007079    29.028903      3435.3415    
       110   0.22           286.90519      140661.82     -807624.99     -314.74207      0.36359132     0.059195516    29.042063      3435.4064    
       120   0.24           276.74972      145126.94     -807618.56     -319.53837      0.36358968     0.060097858    29.0796        3435.0331    
       130   0.26           278.7568       143101.94     -807622.45     -315.64102      0.36358788     0.059365147    29.080964      3434.6516    
       140   0.28           298.57032      133590.08     -807635.09     -305.47736      0.36358595     0.057453893    29.05938       3434.4583    
       150   0.3            287.05531      127008.22     -807641.47     -297.20476      0.36358387     0.05589831     29.058743      3434.2496    
       160   0.32           269.32925      121973.55     -807644.99     -290.98755      0.36358165     0.05472931     29.098003      3433.7343    
       170   0.34           258.78357      122520.51     -807645.39     -288.82054      0.36357928     0.05432209     29.100493      3433.2219    
       180   0.36           290.94046      125664.17     -807644.11     -294.42562      0.36357677     0.05537669     29.084467      3432.833     
       190   0.38           289.96668      135623.15     -807630.83     -307.44572      0.36357412     0.057825981    29.104574      3432.3245    
       200   0.4            290.45827      142948.18     -807621.61     -316.67327      0.36357132     0.059562004    29.135489      3431.6502    
       210   0.42           277.9415       145259.19     -807618.5      -317.83427      0.36356838     0.059780857    29.09592       3431.2293    
       220   0.44           293.27247      140900.18     -807625.54     -312.78753      0.3635653      0.058832123    29.081081      3430.8953    
       230   0.46           281.57912      134658.06     -807630.06     -306.63696      0.36356207     0.057675777    29.100834      3430.4588    
       240   0.48           282.98485      126963.02     -807639.06     -297.78518      0.3635587      0.056011351    29.069957      3430.1819    
       250   0.5            268.3934       122104.77     -807646.25     -288.40379      0.36355519     0.054247302    29.037102      3430.0549    
       260   0.52           275.44017      122739.9      -807646.89     -288.73416      0.36355153     0.054309987    29.032598      3429.9318    
       270   0.54           284.21126      128270.58     -807638.85     -298.1029       0.36354773     0.056072804    29.025635      3429.8229    
       280   0.56           299.3674       136635.59     -807629.61     -309.51517      0.36354379     0.058220071    29.074207      3429.492     
       290   0.58           290.85381      141781.21     -807623.76     -314.16835      0.3635397      0.059096002    29.071651      3429.1705    
       300   0.6            284.69858      144128.32     -807620.79     -316.32556      0.36353547     0.059502473    29.060009      3428.8935    
       310   0.62           279.42576      140574.09     -807622.62     -313.87835      0.3635311      0.05904285     29.053052      3428.6385    
       320   0.64           292.7159       134637.31     -807632        -306.35133      0.36352658     0.057627677    29.07798       3428.2862    
       330   0.66           287.37379      125133.49     -807643.92     -293.67152      0.36352192     0.055243189    29.062764      3427.9887    
       340   0.68           267.64547      123110.86     -807646.23     -288.61405      0.36351712     0.054292535    29.085553      3427.6093    
       350   0.7            269.00095      123151.1      -807643.61     -291.57805      0.36351217     0.054850853    29.016559      3427.4648    
       360   0.72           286.80938      129684.31     -807637.39     -300.39765      0.36350708     0.056510763    29.00676       3427.3415    
       370   0.74           303.17247      135406.4      -807632.44     -307.7309       0.36350185     0.057891127    29.025935      3427.1448    
       380   0.76           279.15799      142815.14     -807621.87     -314.98507      0.36349647     0.059256675    29.052545      3426.8576    
       390   0.78           273.5801       144396.49     -807618.7      -317.54044      0.36349095     0.059738312    29.0739        3426.5029    
       400   0.8            288.33843      139735.14     -807625.56     -312.75327      0.36348529     0.058838629    29.064428      3426.1768    
       410   0.82           297.85945      130856.06     -807637.5      -302.24909      0.36347948     0.056863373    29.0631        3425.8534    
       420   0.84           274.76522      124793.05     -807643.55     -293.04196      0.36347353     0.0551321      29.066688      3425.5191    
       430   0.86           264.81208      122405.05     -807644.65     -290.64597      0.36346744     0.054682242    29.113052      3425.0574    
       440   0.88           275.29347      123927.4      -807644.57     -292.32616      0.3634612      0.054999298    29.0931        3424.6544    
       450   0.9            287.75971      131049.06     -807638.43     -300.27751      0.36345482     0.056496285    29.069485      3424.3159    
       460   0.92           293.27942      136809.66     -807630.38     -309.30781      0.3634483      0.058196352    29.084011      3423.9399    
       470   0.94           273.9185       144092.76     -807619.06     -318.00479      0.36344163     0.059833789    29.080271      3423.5746    
       480   0.96           279.45722      142256.51     -807621.82     -316.12385      0.36343482     0.059480998    29.117001      3423.1203    
       490   0.98           278.47129      139139.23     -807627.19     -310.63638      0.36342786     0.058449609    29.094536      3422.7244    
       500   1              279.48018      129183.71     -807637.26     -300.89008      0.36342077     0.056616843    29.050705      3422.4337    
       510   1.02           280.65885      125481.22     -807643.22     -9441.4258      0.36341353     0.055518029    28.948121      3422.379     
       520   1.04           252.98759      121218.61     -807645.17     -9258.7159      0.36340614     0.054444753    28.974986      3422.2517    
       530   1.06           286.83199      125099.14     -807646.4      -9371.2876      0.36339862     0.055107859    28.940286      3422.194     
       540   1.08           279.14955      129457.98     -807637.43     -9632.1364      0.36339095     0.056642976    28.941532      3422.1228    
       550   1.1            284.92985      139620.25     -807626.45     -10008.826      0.36338313     0.058859413    28.954841      3422.0128    
       560   1.12           271.47186      141809.11     -807622.2      -10091.097      0.36337518     0.059344524    28.957201      3421.8896    
       570   1.14           278.17729      143247.4      -807623.67     -10072.803      0.36336707     0.059238262    28.99897       3421.6717    
       580   1.16           277.09073      135783.67     -807629.82     -9875.8978      0.36335883     0.058081578    28.999058      3421.4492    
       590   1.18           279.88331      131014.47     -807635.64     -9701.736       0.36335044     0.057058624    28.998136      3421.2246    
       600   1.2            264.53009      123551.02     -807644.66     -9347.9521      0.36334191     0.054979213    28.974687      3421.042     
       610   1.22           269.02555      122950.58     -807647.71     -9269.6728      0.36333324     0.054520121    28.979982      3420.844     
       620   1.24           266.89215      125372.48     -807642.56     -9429.4858      0.36332442     0.055461417    28.986594      3420.6285    
       630   1.26           278.34266      133401.33     -807633.94     -9761.1264      0.36331546     0.057413443    28.997966      3420.3877    
       640   1.28           275.684        138513.84     -807627.56     -9957.8899      0.36330636     0.058572243    29.006425      3420.1279    
       650   1.3            272.64199      142207.01     -807623.46     -10074.727      0.36329711     0.059260985    29.031662      3419.8197    
       660   1.32           276.30858      140639.43     -807624.94     -10049.72       0.36328772     0.059115419    29.069768      3419.4425    
       670   1.34           277.19956      136312.68     -807629.29     -9916.7927      0.36327819     0.058335033    29.119713      3418.9787    
       680   1.36           278.74802      128803.83     -807640.41     -9570.7682      0.36326851     0.056301061    29.098084      3418.5558    
       690   1.38           261.6431       123802.5      -807646.35     -9304.4233      0.36325869     0.054735739    29.048825      3418.2191    
       700   1.4            253.66633      123461.08     -807645.24     -9306.0947      0.36324873     0.054747072    29.024006      3417.9239    
       710   1.42           266.28968      125494.59     -807640.96     -9506.1141      0.36323863     0.055925328    28.985122      3417.692     
       720   1.44           278.29589      133295.81     -807634.59     -9761.4669      0.36322838     0.057429212    29.022723      3417.3952    
       730   1.46           274.41653      137887.01     -807628.76     -9933.5086      0.36321798     0.058443049    29.023641      3417.0957    
       740   1.48           268.242        143314.72     -807621.38     -10139.196      0.36320745     0.059654927    29.026236      3416.7909    
       750   1.5            280.6967       139731.51     -807625.54     -10063.262      0.36319677     0.059209902    29.03828       3416.4661    
       760   1.52           279.56013      135398.8      -807632.17     -9841.2988      0.36318595     0.057905648    29.058753      3416.1091    
       770   1.54           275.69018      126178.62     -807642.98     -9476.0958      0.36317498     0.055758497    29.053688      3415.7602    
       780   1.56           255.34284      125472.4      -807643.39     -9366.0443      0.36316387     0.055112627    29.025335      3415.4541    
       790   1.58           264.04788      121954.51     -807645.81     -9327.2203      0.36315262     0.054885875    29.001666      3415.1824    
       800   1.6            266.71122      129218.35     -807639.68     -9527.1128      0.36314122     0.056063898    29.019411      3414.8827    
       810   1.62           276.03979      131859.17     -807634.79     -9722.9713      0.36312968     0.057218279    29.014695      3414.5887    
       820   1.64           285.62079      142022.36     -807625.41     -10054.725      0.363118       0.059172506    29.048702      3414.2448    
       830   1.66           270.50694      141593.75     -807621.62     -10106.596      0.36310618     0.059479705    29.050081      3413.8988    
       840   1.68           288.78111      141530.15     -807626.11     -10029.625      0.36309421     0.059028656    29.068021      3413.5278    
       850   1.7            285.62168      131365.11     -807636.31     -9685.851       0.3630821      0.057007302    29.060116      3413.1684    
       860   1.72           280.52826      128319.26     -807639.6      -9546.1584      0.36306984     0.05618702     29.049303      3412.8241    
       870   1.74           262.00585      121591.36     -807644.65     -9296.5146      0.36305745     0.054719529    29.026206      3412.511     
       880   1.76           265.21665      125818.31     -807643.44     -9338.7695      0.3630449      0.054970141    29.013302      3412.2144    
       890   1.78           277.98479      126729.78     -807641.1      -9468.476       0.36303222     0.055735571    28.996409      3411.9391    
       900   1.8            288.43277      137856.66     -807629        -9893.4143      0.36301939     0.058239       28.997185      3411.6614    
       910   1.82           289.32107      139485.18     -807624.35     -10044.356      0.36300642     0.059129651    29.033428      3411.3351    
       920   1.84           282.11473      143905.81     -807620.98     -10109.41       0.36299331     0.059514767    29.048578      3410.9892    
       930   1.86           280.88286      137291.33     -807627.04     -9910.3907      0.36298005     0.058345257    29.062251      3410.6261    
       940   1.88           282.62971      134629.51     -807631.59     -9765.983       0.36296665     0.057497211    29.040865      3410.2901    
       950   1.9            273.18278      125740.27     -807640.25     -9444.7419      0.36295311     0.055607979    29.022341      3409.9768    
       960   1.92           268.2016       123810.88     -807644.25     -9287.4852      0.36293942     0.054684158    29.005203      3409.6838    
       970   1.94           279.62245      123202.31     -807645.38     -9299.971       0.36292559     0.05475976     28.992974      3409.4046    
       980   1.96           293.70728      130252.21     -807637.15     -9622.7828      0.36291162     0.056662711    28.996104      3409.1204    
       990   1.98           288.77406      136766.11     -807628.32     -9884.3931      0.3628975      0.058205439    28.993702      3408.8378    
      1000   2              295.73872      141681.9      -807624.49     -10035.333      0.36288325     0.059096588    28.870215      3408.6999    
      1010   2.02           287.21297      143056.69     -807622.58     -314.29725      0.36286884     0.059229547    29.10362       3408.2857    
      1020   2.04           281.70543      138797.53     -807625.3      -310.83262      0.3628543      0.058578985    29.06664       3407.9153    
      1030   2.06           289.2879       132734.28     -807633.97     -303.13635      0.36283961     0.057130871    29.126028      3407.478     
      1040   2.08           275.51194      124281.34     -807642.73     -292.46171      0.36282478     0.055121317    29.12434       3407.0443    
      1050   2.1            271.89866      124494.35     -807644.03     -290.51563      0.3628098      0.054756792    29.111975      3406.6262    
      1060   2.12           273.43996      123147.29     -807642.98     -291.95452      0.36279469     0.055030291    29.093679      3406.2296    
      1070   2.14           300.92892      131847.67     -807636.18     -302.54506      0.36277943     0.057028892    29.108318      3405.8181    
      1080   2.16           289.27417      135792.16     -807629.7      -307.56995      0.36276402     0.057978532    29.099893      3405.4169    
      1090   2.18           283.96152      144460.26     -807621.56     -314.90439      0.36274848     0.059363655    29.093821      3405.0232    
      1100   2.2            275.36979      140464.35     -807621.51     -314.03437      0.36273279     0.059202206    29.107927      3404.6155    
      1110   2.22           292.82232      139669.07     -807626.45     -311.4436       0.36271695     0.058716354    29.144406      3404.1707    
      1120   2.24           288.46141      128052.03     -807638.71     -298.8356       0.36270098     0.056341853    29.127195      3403.7455    
      1130   2.26           271.77072      127499.31     -807641.46     -293.66054      0.36268486     0.055368618    29.12569       3403.3234    
      1140   2.28           274.42409      121040.53     -807646.8      -289.04696      0.3626686      0.054501188    29.092644      3402.9365    
      1150   2.3            272.8168       127787.17     -807640.49     -295.16361      0.36265219     0.05565703     29.078665      3402.5645    
      1160   2.32           286.28037      129479.49     -807638.27     -299.59656      0.36263564     0.056495499    29.042915      3402.229     
      1170   2.34           284.06228      140115.43     -807627.49     -310.19418      0.36261895     0.058496606    29.048973      3401.8874    
      1180   2.36           274.61295      140780.77     -807623.15     -313.57276      0.36260212     0.059136485    29.094057      3401.5011    
      1190   2.38           276.31828      142776.72     -807621.71     -315.37447      0.36258514     0.059479052    29.111259      3401.0986    
      1200   2.4            276.83898      134748.27     -807631.22     -306.30104      0.36256802     0.057770549    29.111638      3400.6967    
      1210   2.42           282.34625      130700.71     -807638.25     -300.14971      0.36255076     0.05661306     29.107838      3400.2994    
      1220   2.44           270.05079      123669.54     -807643.85     -293.14949      0.36253335     0.05529536     29.112224      3399.8988    
      1230   2.46           261.95607      124405.47     -807644.52     -291.4321       0.3625158      0.054974079    29.049656      3399.5586    
      1240   2.48           273.26417      125096.03     -807644.73     -293.02693      0.36249811     0.055277616    29.064687      3399.2041    
      1250   2.5            278.87121      132054.81     -807636.83     -301.87461      0.36248028     0.056949475    29.097924      3398.8187    
      1260   2.52           278.61985      137467.38     -807628.25     -310.60035      0.3624623      0.058598515    29.106312      3398.4263    
      1270   2.54           273.18896      140654.56     -807623.99     -314.12177      0.36244418     0.059265838    29.136679      3398.0067    
      1280   2.56           267.9627       140613.02     -807625.46     -311.94447      0.36242592     0.058858008    29.145611      3397.5803    
      1290   2.58           279.05848      135533.19     -807632.02     -306.99131      0.36240751     0.057926384    29.144596      3397.1561    
      1300   2.6            271.75936      130094.89     -807637.58     -300.33938      0.36238896     0.056674126    29.089778      3396.7821    
      1310   2.62           263.56522      124068.66     -807643.89     -292.83879      0.36237027     0.055261615    29.086368      3396.4117    
      1320   2.64           262.48873      124082.47     -807645.68     -290.80891      0.36235143     0.054881407    29.063437      3396.062     
      1330   2.66           271.63099      125696.34     -807642.85     -294.88893      0.36233245     0.055654304    29.069048      3395.7074    
      1340   2.68           276.80353      133022.36     -807633.93     -304.39136      0.36231333     0.057450727    29.075211      3395.3476    
      1350   2.7            275.6039       136237.52     -807629.21     -308.9869       0.36229407     0.058321189    29.112603      3394.9558    
      1360   2.72           276.93083      141653.44     -807625.45     -312.71353      0.36227466     0.05902775     29.102253      3394.5736    
      1370   2.74           273.3749       137834.47     -807626.74     -310.94329      0.36225511     0.058696768    29.123403      3394.1739    
      1380   2.76           278.99214      136223.34     -807630.53     -307.72399      0.36223542     0.058092218    29.145599      3393.7564    
      1390   2.78           271.88053      127270.35     -807640.05     -297.12303      0.36221558     0.056094038    29.112218      3393.3678    
      1400   2.8            272.64718      126272.38     -807644.36     -292.63326      0.3621956      0.05524946     29.11558       3392.9771    
      1410   2.82           263.62659      122625.87     -807645        -290.74397      0.36217548     0.054895809    29.101502      3392.5988    
      1420   2.84           274.58552      129192.32     -807638.49     -298.6321       0.36215522     0.056388332    29.098569      3392.2232    
      1430   2.86           276.34474      132276.69     -807634.51     -302.86825      0.36213481     0.057191435    29.117842      3391.8325    
      1440   2.88           280.55942      140036.95     -807627.36     -310.37442      0.36211426     0.05861217     29.120495      3391.4402    
      1450   2.9            273.20033      139478.27     -807624.97     -311.7244       0.36209357     0.058870471    29.093886      3391.07      
      1460   2.92           276.55819      140868.58     -807624.35     -312.60179      0.36207273     0.059039567    29.105264      3390.6911    
      1470   2.94           273.62413      133049.59     -807633.38     -303.18545      0.36205176     0.057264466    29.099864      3390.3169    
      1480   2.96           284.48103      129273.13     -807641.61     -296.13567      0.36203064     0.055936195    29.104152      3389.9398    
      1490   2.98           267.03969      122952.03     -807644.4      -290.87831      0.36200937     0.054946374    29.111247      3389.5576    
      1500   3              272.98196      125508.01     -807642.32     -293.62993      0.36198796     0.055469431    29.107099      3389.1791    
      1510   3.02           268.16311      128028.38     -807638.29     -9501.8682      0.36196642     0.056096823    29.023164      3388.8659    
      1520   3.04           288.79032      134130.66     -807633.89     -9730.1025      0.36194472     0.057447708    29.037797      3388.5411    
      1530   3.06           276.61733      139249.78     -807625.34     -9946.8985      0.36192289     0.058731241    29.089748      3388.1764    
      1540   3.08           280.05877      141360.56     -807622.65     -10044.534      0.36190091     0.059311328    29.066906      3387.8292    
      1550   3.1            279.10678      138573.75     -807626.98     -9896.5359      0.36187879     0.058440996    29.067732      3387.4814    
      1560   3.12           294.59755      131631.65     -807636.5      -9656.4923      0.36185653     0.057027       29.026171      3387.1648    
      1570   3.14           285.14983      127586.03     -807640.17     -9492.7948      0.36183412     0.056063746    29.00374       3386.8645    
      1580   3.16           264.4363       124287.66     -807642.01     -9338.9842      0.36181157     0.055158789    28.99665       3386.569     
      1590   3.18           270.72933      126075.12     -807642.06     -9360.2508      0.36178888     0.055287863    28.976235      3386.2878    
      1600   3.2            284.79166      127709.89     -807640.49     -9473.027       0.36176605     0.055957526    29.015454      3385.9772    
      1610   3.22           278.92454      136851.29     -807628.59     -9822.5456      0.36174307     0.058025831    29.014001      3385.6672    
      1620   3.24           283.91258      138710.52     -807625.57     -9942.6584      0.36171995     0.058739141    29.006019      3385.3625    
      1630   3.26           282.14757      141975.25     -807623.8      -9983.8506      0.36169669     0.058986289    28.997643      3385.0633    
      1640   3.28           293.61666      135777.42     -807630.91     -9807.2601      0.36167329     0.057946712    29.057267      3384.7211    
      1650   3.3            282.55107      133410.44     -807632.52     -9699.6588      0.36164974     0.057314676    29.080844      3384.3623    
      1660   3.32           279.59173      125514.65     -807640.62     -9427.5783      0.36162605     0.055710619    29.059614      3384.0186    
      1670   3.34           277.34516      125647.8      -807643.4      -9321.7076      0.36160222     0.055088625    29.041525      3383.6874    
      1680   3.36           274.65694      124775.33     -807642.76     -9330.9934      0.36157824     0.055147157    29.024435      3383.368     
      1690   3.38           286.59585      131173.85     -807635.78     -9604.9363      0.36155413     0.056769976    29.035565      3383.0406    
      1700   3.4            285.80837      134784.29     -807629.66     -9797.258       0.36152987     0.057910579    29.001407      3382.7365    
      1710   3.42           284.47705      140547.86     -807625.2      -9929.4762      0.36150546     0.058696069    28.965332      3382.4565    
      1720   3.44           284.79195      138746.82     -807625.84     -9908.9119      0.36148092     0.058578484    29.003687      3382.1497    
      1730   3.46           291.46418      136753.81     -807628.48     -9852.4293      0.36145623     0.058248555    29.053836      3381.8087    
      1740   3.48           287.59438      131537.19     -807634.83     -9630.4618      0.3614314      0.056940172    29.013954      3381.4943    
      1750   3.5            276.47652      127344.16     -807639.72     -9419.7658      0.36140643     0.055698279    29.011709      3381.1811    
      1760   3.52           277.20641      124440.07     -807644.21     -9279.1597      0.36138131     0.0548707      28.990186      3380.8818    
      1770   3.54           285.2298       126483.59     -807641.13     -9413.9323      0.36135605     0.055671545    28.966222      3380.5979    
      1780   3.56           281.50461      131092.35     -807634.46     -9612.6962      0.36133065     0.056850979    28.995364      3380.2941    
      1790   3.58           283.67562      136104.17     -807629.55     -9779.7404      0.36130511     0.057842993    28.996544      3379.9891    
      1800   3.6            282.40423      140330.89     -807625.25     -9910.8591      0.36127942     0.058622672    29.027565      3379.6635    
      1810   3.62           288.30663      139880.9      -807625.48     -9931.7197      0.3612536      0.058750263    29.039257      3379.3302    
      1820   3.64           285.48243      136713.25     -807628        -9839.6252      0.36122763     0.05820967     29.102845      3378.9562    
      1830   3.66           284.13117      130078.38     -807636.91     -9550.9899      0.36120151     0.056506234    29.039246      3378.6229    
      1840   3.68           282.96261      126333.89     -807642.47     -9369.4751      0.36117526     0.055436373    29.044801      3378.2859    
      1850   3.7            268.5838       124416.77     -807642.05     -9324.9441      0.36114886     0.055176929    29.064121      3377.9368    
      1860   3.72           281.26294      127365.55     -807640.16     -9446.7367      0.36112232     0.0559017      29.03719       3377.6045    
      1870   3.74           280.23846      130808.17     -807635.95     -9582.8782      0.36109564     0.056711517    29.002494      3377.2937    
      1880   3.76           283.27709      137777.57     -807629.28     -9813.7003      0.36106881     0.058081838    29.0195        3376.972     
      1890   3.78           286.06413      139208.67     -807626.27     -9929.4202      0.36104184     0.058771109    29.017218      3376.6515    
      1900   3.8            281.95724      139770.97     -807625.61     -9935.7821      0.36101474     0.058813181    28.995981      3376.3437    
      1910   3.82           279.39221      134449.06     -807632.11     -9722.8371      0.36098748     0.057557034    29.015336      3376.0238    
      1920   3.84           282.91115      129512.56     -807638.64     -9533.3878      0.36096009     0.056439819    29.015777      3375.7033    
      1930   3.86           275.30468      125392.43     -807642.36     -9386.1233      0.36093255     0.05557222     29.034464      3375.3713    
      1940   3.88           259.01922      126415.63     -807640.82     -9366.29        0.36090487     0.055459046    29.027165      3375.0436    
      1950   3.9            272.81311      127161.16     -807641.09     -9422.9624      0.36087705     0.055798912    28.979378      3374.7442    
      1960   3.92           281.39172      131550.32     -807636.15     -9623.5263      0.36084909     0.056990985    28.982417      3374.4426    
      1970   3.94           272.60656      137004.38     -807628.06     -9846.9617      0.36082098     0.058318723    28.969868      3374.1479    
      1980   3.96           279.42601      139547.71     -807626.33     -9934.5584      0.36079273     0.058842122    29.017794      3373.8246    
      1990   3.98           278.44483      137437.06     -807628.5      -9861.8618      0.36076434     0.058416139    29.055262      3373.4791    
      2000   4              278.09223      133641.87     -807633.99     -9686.6956      0.36073581     0.057383091    29.048654      3373.1375    
      2010   4.02           273.55893      129373.98     -807638.71     -297.37646      0.36070713     0.056376664    29.13857       3372.744     
      2020   4.04           263.66215      125589.92     -807641.95     -292.74919      0.36067831     0.055503859    29.110566      3372.3671    
      2030   4.06           269.93691      124945.64     -807643.86     -291.64627      0.36064935     0.055299191    29.05215       3372.0239    
      2040   4.08           270.7398       127638.44     -807640.05     -295.56182      0.36062025     0.056046144    29.039375      3371.6879    
      2050   4.1            277.98738      133128.81     -807634.17     -302.40442      0.36059101     0.057348327    29.02753       3371.3585    
      2060   4.12           279.52352      137681.25     -807628.92     -307.82501      0.36056162     0.058381053    29.08495       3370.9967    
      2070   4.14           279.30239      139010.7      -807627.35     -309.26458      0.36053209     0.058658881    29.086675      3370.634     
      2080   4.16           275.31584      137725.66     -807628.99     -306.91767      0.36050242     0.058218528    29.12213       3370.2519    
      2090   4.18           278.62307      132780.59     -807634        -302.22445      0.36047261     0.057333023    29.085452      3369.8903    
      2100   4.2            271.10287      128171.49     -807638.6      -296.37669      0.36044265     0.056228355    29.069429      3369.5378    
      2110   4.22           264.33747      125932.69     -807642.17     -291.68669      0.36041256     0.055343194    29.113014      3369.1616    
      2120   4.24           271.16031      125994.32     -807642.39     -292.18379      0.36038232     0.055442163    29.10315       3368.7909    
      2130   4.26           280.52632      129466.33     -807638.69     -296.96629      0.36035193     0.056354397    29.109013      3368.4173    
      2140   4.28           285.23952      134277.26     -807633.05     -303.02457      0.36032141     0.057508931    29.101748      3368.048     
      2150   4.3            279.89864      138004.47     -807628.11     -306.95688      0.36029075     0.058260175    29.055566      3367.7037    
      2160   4.32           274.22853      139644.05     -807625.68     -308.30326      0.36025994     0.058520721    29.090638      3367.3407    
      2170   4.34           277.86455      137437.68     -807628.11     -306.14452      0.36022899     0.058115951    29.091927      3366.9771    
      2180   4.36           288.74708      131878.97     -807634.3      -301.17951      0.36019789     0.057178369    29.136154      3366.5903    
      2190   4.38           282.22969      127975.07     -807639.46     -294.80966      0.36016666     0.055973919    29.195011      3366.173     
      2200   4.4            275.5982       125649.68     -807641.99     -291.18945      0.36013528     0.055291386    29.161065      3365.7742    
      2210   4.42           278.13902      127123.04     -807640.32     -292.95037      0.36010377     0.055630621    29.116673      3365.3989    
      2220   4.44           290.0871       129047.78     -807638.12     -296.70939      0.36007211     0.056349404    29.137453      3365.0132    
      2230   4.46           293.1098       135062.45     -807632.13     -302.95594      0.3600403      0.057540796    29.078869      3364.6581    
      2240   4.48           282.37019      137410.13     -807626.7      -306.81271      0.36000836     0.058278489    29.040992      3364.3227    
      2250   4.5            282.36663      139429.59     -807624.64     -308.68952      0.35997627     0.058640212    29.09678       3363.9586    
      2260   4.52           277.10726      136116.83     -807628        -304.62876      0.35994404     0.05787399     29.153685      3363.5656    
      2270   4.54           294.02767      132695.39     -807634.98     -299.88567      0.35991167     0.056978012    29.136688      3363.1817    
      2280   4.56           279.23386      127402.68     -807638.32     -294.45245      0.35987916     0.05595076     29.137127      3362.7979    
      2290   4.58           278.63129      126340.29     -807640.79     -291.77671      0.35984651     0.055447356    29.102434      3362.4319    
      2300   4.6            277.29371      126234.62     -807640.74     -291.70412      0.35981371     0.055438615    29.115193      3362.0598    
      2310   4.62           289.09437      130865.62     -807636.55     -297.51326      0.35978077     0.056547823    29.115471      3361.6877    
      2320   4.64           288.15225      134356.79     -807631.53     -302.45847      0.35974769     0.057493037    29.091536      3361.3278    
      2330   4.66           288.13954      138586.98     -807626.65     -307.33969      0.35971447     0.058426283    29.098779      3360.9644    
      2340   4.68           287.88126      137672.35     -807627.3      -306.70773      0.35968111     0.058311554    29.123016      3360.5893    
      2350   4.7            288.52049      135985.71     -807629.76     -304.31188      0.3596476      0.057861442    29.153614      3360.1994    
      2360   4.72           288.51924      130680.45     -807635.24     -298.94673      0.35961396     0.056846639    29.191999      3359.7913    
      2370   4.74           276.36687      128309.58     -807637.65     -294.81644      0.35958017     0.056066506    29.1848        3359.3873    
      2380   4.76           278.81668      125078.35     -807641.82     -291.04486      0.35954624     0.05535447     29.115003      3359.0174    
      2390   4.78           275.221        128585.6      -807639.03     -293.38308      0.35951216     0.055804471    29.12378       3358.6435    
      2400   4.8            284.86026      130875.51     -807635.9      -297.97449      0.35947795     0.056683198    29.132716      3358.2657    
      2410   4.82           287.86664      135226.6      -807630.4      -303.91417      0.35944359     0.057818621    29.10938       3357.8992    
      2420   4.84           281.54999      137065.22     -807628.1      -305.43248      0.35940909     0.05811305     29.090301      3357.542     
      2430   4.86           289.05989      137525.39     -807628.88     -305.73462      0.35937446     0.058176144    29.066414      3357.1962    
      2440   4.88           279.04636      134298.64     -807630.31     -303.01763      0.35933967     0.057664729    29.082956      3356.8427    
      2450   4.9            290.75484      131407.2      -807636.67     -298.30243      0.35930475     0.056772935    29.100808      3356.4808    
      2460   4.92           277.28922      127094.92     -807640.82     -292.29856      0.35926969     0.055635708    29.075928      3356.1308    
      2470   4.94           273.5003       126167.68     -807640.98     -291.65028      0.35923448     0.055517756    29.10499       3355.7672    
      2480   4.96           276.70398      127098.17     -807639.54     -293.64942      0.35919913     0.055903807    29.079395      3355.4157    
      2490   4.98           285.58548      131001.33     -807636.1      -298.35706      0.35916364     0.056805641    29.036352      3355.0842    
      2500   5              276.91504      135470.82     -807630.58     -302.74075      0.35912801     0.057645993    28.997957      3354.7704    
[...]
     98740   197.48         279.27482      132226.2      -807634.56     -9681.2741      0.36236891     0.057092508    29.655414      43.002628    
     98750   197.5          273.7623       135054.62     -807631.61     -9742.9278      0.36238762     0.057453128    29.697387      42.66128     
     98760   197.52         282.63893      132819.45     -807633.61     -9712.2698      0.36240618     0.057269407    29.773647      42.319922    
     98770   197.54         276.16494      133857.69     -807632.25     -9715.2414      0.36242459     0.057284018    29.713553      41.978573    
     98780   197.56         282.28934      132710.36     -807633.12     -9705.9398      0.36244287     0.057226288    29.63484       41.637236    
     98790   197.58         292.9473       131654.33     -807635.44     -9665.8727      0.362461       0.056987201    29.629284      41.295901    
     98800   197.6          289.36233      132048.1      -807634.53     -9666.2961      0.36247899     0.05698687     29.676324      40.95456     
     98810   197.62         290.70376      132204.96     -807635.11     -9646.0159      0.36249683     0.05686451     29.647634      40.613224    
     98820   197.64         283.71711      133632.29     -807632.35     -9692.6391      0.36251453     0.057136569    29.619103      40.271893    
     98830   197.66         292.41691      132808.73     -807632.99     -9704.4072      0.36253209     0.05720317     29.709607      39.93055     
     98840   197.68         295.9814       134094.7      -807632.17     -9741.8682      0.36254951     0.057421227    29.814795      39.589194    
     98850   197.7          284.06001      133202.66     -807631.79     -9698.3409      0.36256678     0.057161941    29.78386       39.247843    
     98860   197.72         291.22194      134464.75     -807631.77     -9726.7042      0.36258391     0.057326406    29.730754      38.906501    
     98870   197.74         284.36785      132366.67     -807633.2      -9652.4848      0.3626009      0.056886313    29.683239      38.565166    
     98880   197.76         296.76775      133373.74     -807633.52     -9693.85        0.36261774     0.057127442    29.727439      38.223826    
     98890   197.78         283.12114      130578.68     -807634.24     -9613.9709      0.36263445     0.056654093    29.722601      37.882487    
     98900   197.8          295.42703      133322.97     -807633.87     -9677.9844      0.362651       0.057028713    29.722558      37.54115     
     98910   197.82         271.34049      132531.59     -807631.21     -9661.9196      0.36266742     0.056931472    29.712566      37.199814    
     98920   197.84         300.15833      135176.87     -807632.15     -9758.8942      0.36268369     0.057500302    29.740984      36.858477    
     98930   197.86         293.87993      132718.45     -807632.25     -9735.4639      0.36269982     0.057359697    29.706491      36.517144    
     98940   197.88         282.21211      135589.15     -807629.32     -9778.3319      0.36271581     0.057609729    29.751644      36.175807    
     98950   197.9          287.60436      132481.01     -807632.42     -9711.168       0.36273165     0.057211529    29.713019      35.834476    
     98960   197.92         284.14683      134832.06     -807631.3      -9734.7581      0.36274735     0.057348023    29.730455      35.493143    
     98970   197.94         296.15787      130648.25     -807636.05     -9644.2715      0.36276291     0.056812525    29.679668      35.151818    
     98980   197.96         284.56911      132620.97     -807633.86     -9667.3248      0.36277832     0.056945908    29.674703      34.810494    
     98990   197.98         288.42542      130432.14     -807635.82     -9631.0786      0.36279359     0.05673001     29.688659      34.469169    
     99000   198            280.96776      133915.76     -807632.56     -9707.6138      0.36280872     0.057178441    29.729251      34.12784     
     99010   198.02         283.39862      132214.48     -807633.39     -303.15075      0.3628237      0.057136089    29.769224      33.786508    
     99020   198.04         281.50776      134459.01     -807632.81     -303.59948      0.36283855     0.057218323    29.709283      33.445184    
     99030   198.06         276.34219      134046.91     -807631.6      -304.34047      0.36285324     0.057355651    29.753375      33.103856    
     99040   198.08         284.53405      133915.85     -807632.61     -304.65044      0.3628678      0.057411765    29.790314      32.762525    
     99050   198.1          291.14645      132343.27     -807634.75     -303.61398      0.36288221     0.057214171    29.815189      32.421192    
     99060   198.12         288.54248      132182.84     -807636.07     -302.07593      0.36289648     0.056922095    29.743035      32.079868    
     99070   198.14         278.27716      132273        -807634.18     -302.65658      0.36291061     0.057029291    29.768673      31.738543    
     99080   198.16         279.03291      132090.57     -807634.41     -302.7087       0.36292459     0.057036915    29.748467      31.397221    
     99090   198.18         275.30263      133005.66     -807633.84     -302.86499      0.36293843     0.057064188    29.777501      31.055897    
     99100   198.2          272.37085      133513.47     -807633.22     -303.2203       0.36295213     0.057128978    29.775935      30.714574    
     99110   198.22         279.46077      133848.53     -807632.62     -304.9085       0.36296568     0.057444901    29.845138      30.373245    
     99120   198.24         273.70865      134337.53     -807631.41     -305.37515      0.36297909     0.057530693    29.787444      30.031923    
     99130   198.26         282.0888       133624.86     -807633.91     -304.08049      0.36299236     0.057284694    29.735215      29.690608    
     99140   198.28         281.26827      133006.8      -807634.81     -303.1523       0.36300548     0.05710777     29.746619      29.349292    
     99150   198.3          275.7627       132393.16     -807634.03     -303.1993       0.36301846     0.057114581    29.80248       29.007972    
     99160   198.32         275.947        131666.59     -807634.6      -302.68787      0.3630313      0.057016225    29.791138      28.666654    
     99170   198.34         279.22298      131718.51     -807635.56     -302.1989       0.36304399     0.056922129    29.810707      28.325336    
     99180   198.36         276.60014      132129.53     -807635.16     -302.28042      0.36305655     0.056935517    29.751885      27.984024    
     99190   198.38         284.07006      133265.66     -807634.04     -304.4942       0.36306895     0.057350529    29.770022      27.642712    
     99200   198.4          280.99013      133556.4      -807632.92     -305.19035      0.36308122     0.057479704    29.750822      27.301402    
     99210   198.42         280.15307      133715.45     -807633.99     -303.98878      0.36309334     0.057251489    29.781348      26.960091    
     99220   198.44         267.53357      132914.48     -807632.5      -303.75437      0.36310532     0.057205456    29.813767      26.618778    
     99230   198.46         290.95956      132595.02     -807635.97     -303.5472       0.36311715     0.057164575    29.762968      26.277471    
     99240   198.48         272.67915      131993.83     -807633.51     -303.48722      0.36312885     0.05715144     29.71038       25.936169    
     99250   198.5          276.39021      131852.95     -807635.54     -301.92058      0.3631404      0.056854609    29.681919      25.594871    
     99260   198.52         274.63692      132464.51     -807634.73     -302.49437      0.3631518      0.056960869    29.70879       25.253571    
     99270   198.54         280.4129       132250.65     -807633.55     -304.50281      0.36316306     0.057337288    29.77487       24.912267    
     99280   198.56         283.63162      133009.98     -807633.87     -304.52592      0.36317418     0.057339885    29.758062      24.570965    
     99290   198.58         267.93596      133769.07     -807631.99     -304.17341      0.36318516     0.057271779    29.717065      24.229668    
     99300   198.6          277.95746      133613.9      -807633.21     -304.30242      0.36319599     0.05729436     29.724437      23.888371    
     99310   198.62         280.48558      133520.07     -807633.44     -304.34843      0.36320668     0.057301337    29.772381      23.547071    
     99320   198.64         287.91854      132109.33     -807635.15     -303.58414      0.36321723     0.05715578     29.775941      23.205772    
     99330   198.66         276.10323      131719.98     -807634.75     -302.19656      0.36322763     0.056892911    29.740181      22.864477    
     99340   198.68         282.43941      131779.82     -807635.72     -302.06693      0.36323789     0.0568669      29.758563      22.523181    
     99350   198.7          279.5732       132811.28     -807633.29     -303.9485       0.36324801     0.057219529    29.720667      22.181889    
     99360   198.72         284.8119       133322.82     -807633.46     -304.35028      0.36325798     0.057293592    29.78623       21.840594    
     99370   198.74         278.61139      134512.59     -807632.82     -303.92221      0.36326781     0.05721146     29.822616      21.499297    
     99380   198.76         284.44406      133323.58     -807633.24     -304.1082       0.3632775      0.057244945    29.755527      21.158006    
     99390   198.78         287.69721      134076.21     -807632.11     -305.44489      0.36328704     0.057495053    29.708981      20.816719    
     99400   198.8          286.37052      133689.12     -807632.99     -304.13722      0.36329644     0.057247424    29.770146      20.475429    
     99410   198.82         284.29268      132392.32     -807634.26     -302.22552      0.3633057      0.056886136    29.837128      20.134136    
     99420   198.84         293.98285      131228.61     -807636.05     -301.47609      0.36331481     0.056743652    29.759677      19.792849    
     99430   198.86         285.00925      133859.58     -807632.35     -303.63511      0.36332378     0.05714861     29.753289      19.451563    
     99440   198.88         295.9118       132599.37     -807633.8      -303.49962      0.36333261     0.057121723    29.801214      19.110275    
     99450   198.9          289.76543      134512.63     -807632.77     -303.41414      0.36334129     0.057104268    29.822598      18.768988    
     99460   198.92         285.8276       134010.24     -807631.52     -303.92341      0.36334983     0.057198772    29.84265       18.4277      
     99470   198.94         296.66927      134497.01     -807631.14     -305.6107       0.36335823     0.057514992    29.802448      18.086416    
     99480   198.96         291.01657      133556.9      -807631.14     -304.78251      0.36336648     0.057357827    29.823548      17.745132    
     99490   198.98         296.29036      132539.61     -807634.47     -302.10675      0.3633746      0.056852999    29.836904      17.403848    
     99500   199            293.36319      132748.74     -807633.69     -302.4056       0.36338256     0.056907992    29.840311      17.062565    
     99510   199.02         291.89554      131958.32     -807632.85     -9699.4704      0.36339039     0.057039029    29.761588      16.721288    
     99520   199.04         290.06547      132603.6      -807632.56     -9700.46        0.36339807     0.057043643    29.753023      16.380012    
     99530   199.06         296.50496      132450.99     -807634.36     -9674.541       0.3634056      0.056890046    29.690887      16.038741    
     99540   199.08         286.04567      134258.41     -807630.95     -9740.0953      0.363413       0.057274366    29.726584      15.697469    
     99550   199.1          296.39614      133878.72     -807631.19     -9783.1685      0.36342025     0.0575265      29.672447      15.3562      
     99560   199.12         289.19665      134602.35     -807630.47     -9778.0826      0.36342736     0.05749547     29.696306      15.014932    
     99570   199.14         286.89537      133645.91     -807631.73     -9734.5868      0.36343432     0.057238616    29.697021      14.673664    
     99580   199.16         289.82818      134077.17     -807632.32     -9733.6394      0.36344114     0.057231971    29.693923      14.332397    
     99590   199.18         285.16554      132201.93     -807632.96     -9700.1515      0.36344782     0.057034021    29.678154      13.991131    
     99600   199.2          286.428        132555.21     -807633.35     -9699.9989      0.36345435     0.057032098    29.633616      13.649869    
     99610   199.22         286.05818      132109.07     -807634.48     -9667.0328      0.36346074     0.056837271    29.608798      13.308609    
     99620   199.24         293.9856       132363.13     -807634.95     -9694.1193      0.36346699     0.056995547    29.67701       12.967346    
     99630   199.26         287.65693      132532.27     -807632.21     -9761.9243      0.3634731      0.057393235    29.709234      12.626083    
     99640   199.28         280.16691      134164.4      -807631        -9773.1936      0.36347906     0.057458548    29.746032      12.284819    
     99650   199.3          288.64132      134134.19     -807633.17     -9746.0626      0.36348487     0.057298123    29.66051       11.94356     
     99660   199.32         286.05226      133870.62     -807631.84     -9781.6462      0.36349055     0.057506425    29.659465      11.602301    
     99670   199.34         283.38321      133659.06     -807631.85     -9773.4029      0.36349608     0.057457088    29.756436      11.26104     
     99680   199.36         275.8767       133357.94     -807632.79     -9714.621       0.36350147     0.057110667    29.768976      10.919779    
     99690   199.38         277.00751      131728.14     -807634.59     -9664.7726      0.36350671     0.056816797    29.741194      10.57852     
     99700   199.4          277.5105       131903.96     -807633.72     -9695.2232      0.36351181     0.056995009    29.715547      10.237264    
     99710   199.42         282.5972       131903.26     -807634.09     -9711.3904      0.36351677     0.057089272    29.736703      9.8960071    
     99720   199.44         285.65913      134059.23     -807633.29     -9753.0984      0.36352158     0.057333697    29.772288      9.5547504    
     99730   199.46         271.45436      133690.4      -807631.26     -9756.336       0.36352625     0.057351993    29.766742      9.213495     
     99740   199.48         287.3705       134917.86     -807633.08     -9770.6203      0.36353078     0.057435247    29.822393      8.872239     
     99750   199.5          280.53105      134160.29     -807631.6      -9791.2625      0.36353516     0.057555895    29.823262      8.5309842    
     99760   199.52         282.29646      133681.36     -807633.69     -9734.2705      0.3635394      0.057220212    29.735647      8.1897329    
     99770   199.54         273.95699      132059.59     -807634.61     -9669.9952      0.3635435      0.056841747    29.765956      7.8484818    
     99780   199.56         277.89404      131994.66     -807634.89     -9680.4675      0.36354745     0.056902686    29.799775      7.507231     
     99790   199.58         287.21874      131098.09     -807636.33     -9680.2488      0.36355126     0.056900804    29.78351       7.1659817    
     99800   199.6          281.49577      132904.24     -807634.29     -9720.2351      0.36355493     0.057135268    29.71762       6.824735     
     99810   199.62         274.55123      132270.3      -807633.69     -9712.9998      0.36355845     0.057092186    29.681507      6.48349      
     99820   199.64         285.84137      134722.98     -807633.22     -9778.1739      0.36356183     0.05747474     29.693861      6.1422456    
     99830   199.66         278.25194      134235.62     -807631.62     -9800.0591      0.36356507     0.057602865    29.678849      5.8010024    
     99840   199.68         279.77865      135079.75     -807632.15     -9789.6396      0.36356816     0.057541131    29.624137      5.4597611    
     99850   199.7          277.12882      132688.77     -807634.55     -9703.4353      0.36357111     0.057033981    29.695887      5.1185193    
     99860   199.72         274.21634      132450.79     -807633.85     -9713.7442      0.36357392     0.057094133    29.748133      4.7772776    
     99870   199.74         280.63075      131150.06     -807635.8      -9682.9637      0.36357658     0.056912798    29.712384      4.4360374    
     99880   199.76         273.56895      132286.9      -807634.23     -9702.6119      0.3635791      0.057027887    29.682861      4.0947985    
     99890   199.78         283.76252      131786.23     -807635.55     -9707.0141      0.36358148     0.057053389    29.677182      3.7535606    
     99900   199.8          264.87005      134123.61     -807630.93     -9772.2901      0.36358371     0.057436699    29.656633      3.4123238    
     99910   199.82         284.54951      133954.24     -807633.3      -9785.9547      0.3635858      0.057516682    29.742436      3.0710869    
     99920   199.84         284.11179      133880.4      -807632.76     -9802.7077      0.36358775     0.057614839    29.769428      2.7298507    
     99930   199.86         272.86801      133479.38     -807632.67     -9756.9732      0.36358955     0.057345753    29.770536      2.3886157    
     99940   199.88         272.14147      132828.11     -807634.24     -9704.1678      0.36359121     0.057035133    29.776981      2.0473816    
     99950   199.9          276.82317      131773.86     -807635.15     -9698.6003      0.36359273     0.057002173    29.785684      1.7061486    
     99960   199.92         273.72148      130740.25     -807635.96     -9659.8515      0.3635941      0.056774219    29.800309      1.3649166    
     99970   199.94         276.40729      131399.11     -807635.8      -9676.2885      0.36359533     0.056870632    29.810757      1.0236857    
     99980   199.96         276.42998      132169.46     -807635.66     -9681.9865      0.36359641     0.056903951    29.759596      0.68245611   
     99990   199.98         275.21193      133822.52     -807632.09     -9789.5801      0.36359736     0.057536162    29.707323      0.34122759   
    100000   200            280.62059      134492.25     -807632.29     -9808.5069      0.36359816     0.057647273    29.766717      0            
Loop time of 3412.27 on 32 procs for 100000 steps with 1080 atoms

Performance: 5.064 ns/day, 4.739 hours/ns, 29.306 timesteps/s, 31.650 katom-step/s
61.7% CPU use with 32 MPI tasks x 1 OpenMP threads

MPI task timing breakdown:
Section |  min time  |  avg time  |  max time  |%varavg| %total
---------------------------------------------------------------
Pair    | 2517.5     | 2802.8     | 3009.5     | 248.5 | 82.14
Neigh   | 0.0016509  | 0.0018107  | 0.0019626  |   0.2 |  0.00
Comm    | 321.48     | 527.83     | 813.54     | 572.6 | 15.47
Output  | 3.2965     | 3.4726     | 3.5942     |   3.5 |  0.10
Modify  | 70.579     | 71.07      | 71.529     |   3.3 |  2.08
Other   |            | 7.078      |            |       |  0.21

Nlocal:          33.75 ave          40 max          26 min
Histogram: 3 0 3 4 2 6 1 6 4 3
Nghost:        1047.28 ave        1058 max        1038 min
Histogram: 3 2 3 3 7 2 3 6 1 2
Neighs:              0 ave           0 max           0 min
Histogram: 32 0 0 0 0 0 0 0 0 0
FullNghs:      5327.31 ave        6310 max        4075 min
Histogram: 3 0 3 4 4 4 2 4 5 3

Total # of neighbors = 170474
Ave neighs/atom = 157.8463
Neighbor list builds = 4
Dangerous builds = 0

Total wall time: 1:00:26
