
units		metal
atom_style	atomic

read_data ${STRUCTURE}.data
read_data BaTiO3-sc333.data
Reading data file ...
  orthogonal box = (0 0 0) to (11.898253 11.898253 12.912076)
  2 by 4 by 4 MPI processor grid
  reading atoms ...
  135 atoms
  read_data CPU = 0.004 seconds
replicate $L $L $L
replicate 2 $L $L
replicate 2 2 $L
replicate 2 2 2
Replication is creating a 2x2x2 = 8 times larger system...
  orthogonal box = (0 0 0) to (23.796507 23.796507 25.824152)
  2 by 4 by 4 MPI processor grid
  1080 atoms
  replicate CPU = 0.003 seconds

pair_style allegro
pair_coeff	* * ${MODEL}.pth Ba Ti O
pair_coeff	* * BaTiO3-E0.pth Ba Ti O
mass 1 137.3
mass 2 47.9
mass 3 15.9994

timestep 0.002
compute polarization all allegro polarization 3
compute allegro will evaluate the quantity polarization of length 3 (src/compute_allegro.cpp:53)
compute polarizability all allegro polarizability 9
compute allegro will evaluate the quantity polarizability of length 9 (src/compute_allegro.cpp:53)

thermo_style custom pe fmax fnorm spcpu cpuremain

variable efield equal 1e-2*36.36
fix born all addbornforce 0.0 0.0 ${efield}
fix born all addbornforce 0.0 0.0 0.3636

thermo 10
min_style fire
#minimize 0.0 1e-6 100 100
velocity all create ${TEMP} ${SEED} dist gaussian rot yes mom yes
velocity all create 350 ${SEED} dist gaussian rot yes mom yes
velocity all create 350 28852 dist gaussian rot yes mom yes
fix nvt all nvt temp ${TEMP} ${TEMP} $(100*dt)
fix nvt all nvt temp 350 ${TEMP} $(100*dt)
fix nvt all nvt temp 350 350 $(100*dt)
fix nvt all nvt temp 350 350 0.2000000000000000111
run 5000
Neighbor list info ...
  update: every = 1 steps, delay = 0 steps, check = yes
  max neighbors/atom: 2000, page size: 100000
  master list distance cutoff = 8
  ghost atom cutoff = 8
  binsize = 8, bins = 3 3 4
  1 neighbor lists, perpetual/occasional/extra = 1 0 0
  (1) pair allegro/kk, perpetual
      attributes: full, newton on, kokkos_device
      pair build: full/bin/kk/device
      stencil: full/bin/3d
      bin: kk/device
Per MPI rank memory allocation (min/avg/max) = 3.516 | 3.516 | 3.516 Mbytes
    PotEng          Fmax          Fnorm          S/CPU         CPULeft    
-807708.29      1.5965417      37.043658      0              0            
-807643.87      3.5926967      45.231965      2.6514281      1882.0056    
-807632.62      2.5771824      35.582787      25.850739      1035.4392    
-807604.47      2.9254001      37.472468      25.877122      752.9272     
-807600.52      4.1152992      49.708889      25.821676      611.58086    
-807567.48      3.6266253      39.641829      25.816779      526.62543    
-807600.65      2.9144827      38.440851      25.890986      469.76791    
-807645.96      3.2129505      33.301739      25.885084      429.05131    
-807681.51      2.8817659      33.77727       25.844249      398.45478    
-807666.2       2.984509       34.316612      25.822389      374.58938    
-807649.13      4.8565487      35.857043      25.88055       355.37696    
-807657.83      3.0860816      29.009442      25.844449      339.61145    
-807622.25      3.8813766      32.680899      25.851621      326.40467    
-807582.75      3.4673461      42.475835      25.823362      315.18604    
-807564.78      4.2013015      39.735357      25.886263      305.4821     
-807630.35      3.7395563      36.339597      25.840028      297.04285    
-807648.94      3.575662       34.594509      25.851598      289.6049     
-807660.55      2.9232667      36.557565      25.836545      283.00289    
-807641.77      4.2328248      47.192986      25.869398      277.07827    
-807676.03      2.6459301      38.153531      25.793771      271.7653     
-807638.08      3.7697307      41.026799      25.806039      266.94043    
-807612.6       3.2138142      40.317798      25.855164      262.52138    
-807557.21      4.0348752      47.208382      25.868697      258.4645     
-807602.74      3.9196806      49.70478       25.853302      254.73155    
-807609.55      5.0334655      40.870632      25.810701      251.29011    
-807639.46      3.1979098      36.749311      25.865103      248.07751    
-807639.41      5.0348876      45.723979      25.869426      245.08111    
-807678.44      3.3206698      38.249874      25.83993       242.28576    
-807660.57      3.6267243      35.963842      25.789622      239.67517    
-807636.06      2.8465461      32.494828      25.86937       237.19846    
-807604.7       3.1474669      34.70982       25.866384      234.86179    
-807601.39      3.7773547      41.640768      25.828943      232.65941    
-807595.19      3.2294539      37.952454      25.755382      230.58666    
-807605         4.1140949      34.803614      25.8589        228.594      
-807639.78      2.9760553      31.717375      25.879778      226.69153    
-807668.02      2.9487251      33.994285      25.816997      224.88817    
-807674.66      2.557364       35.06122       25.743777      223.17769    
-807640.19      4.1906458      40.954315      25.850926      221.51852    
-807643.73      2.775081       33.036809      25.885243      219.92007    
-807617.21      3.9740608      36.413765      25.87195       218.38614    
-807599.55      3.8511064      45.232233      25.816853      216.91906    
-807565.8       4.7127031      43.623275      25.869239      215.49587    
-807620.35      3.6449527      37.72304       25.906567      214.11597    
-807644.16      5.1768899      38.019717      25.849978      212.79128    
-807669.32      3.4311         37.325252      25.791048      211.51838    
-807638.76      5.9402789      47.875846      25.858073      210.27465    
-807661.19      3.2662371      37.126183      25.892794      209.06307    
-807643.24      4.5110764      37.180614      25.888107      207.88729    
-807620.65      3.2739828      39.172475      25.897355      206.7431     
-807563.21      3.9680155      44.264784      25.89196       205.6306     
-807595.23      3.6947111      43.842875      25.951042      204.53923    
-807620.96      4.4472161      36.795825      25.936493      203.47745    
-807649.49      2.9853901      33.298213      25.946006      202.44047    
-807640.08      4.8572315      41.160133      25.957318      201.42665    
-807665.8       3.7000358      35.686116      25.962966      200.43542    
-807663.05      3.1435443      34.252439      25.9045        199.47327    
-807639.39      3.957343       32.523103      25.916691      198.53025    
-807596.74      3.021053       36.422754      25.958443      197.60195    
-807590.32      4.2982042      39.64812       25.956307      196.69263    
-807600.67      4.6139467      42.006606      25.868739      195.81081    
-807614.91      4.2247415      36.07652       25.912348      194.94074    
-807631         3.7982348      35.573452      25.994         194.07781    
-807656.7       4.1627085      37.051755      25.962698      193.23359    
-807670.08      2.6601565      38.366984      25.904135      192.40999    
-807643.54      4.8647183      39.968636      25.931712      191.59725    
-807628.38      2.9625394      36.108358      25.970199      190.79383    
-807608.8       4.6603649      36.966797      25.987475      190.00142    
-807601.66      4.1704047      45.695898      25.949659      189.22479    
-807578.27      4.6230451      41.775561      25.941714      188.46042    
-807608.94      3.6217961      38.459369      25.983933      187.70312    
-807638.45      4.6634751      38.927146      25.994769      186.95547    
-807668.52      3.0738769      37.092047      25.906867      186.22594    
-807645.39      5.0934607      42.651775      25.91186       185.50551    
-807646.88      3.2317123      37.217376      25.923438      184.79322    
-807638.5       4.0756762      36.426522      25.878814      184.0936     
-807622.87      3.5544547      37.911762      25.936418      183.39747    
-807578.14      3.5423365      40.651182      25.981335      182.70579    
-807584.52      3.2210585      40.836761      26.039283      182.01737    
-807621.52      2.8260501      33.609419      25.957389      181.34332    
-807651.67      2.6530411      33.059711      25.915752      180.67987    
-807648.42      3.2956983      35.813154      25.926048      180.02256    
-807650.8       3.3485752      37.211608      25.804099      179.38138    
-807661.13      3.070879       34.150032      25.916512      178.73783    
-807641.58      3.4076288      33.381625      25.936079      178.09901    
-807605.96      2.9490208      36.5711        25.953027      177.46498    
-807579.31      3.3716241      40.75635       26.002544      176.83323    
-807601.38      3.62946        41.330639      25.942616      176.21149    
-807620.21      3.0207006      35.438898      25.902939      175.59799    
-807634.81      3.7983179      35.069101      25.957887      174.98584    
-807645.81      3.9259644      38.261179      25.917488      174.38155    
-807666.75      2.7349245      36.750555      25.882973      173.78447    
-807650.76      2.9897028      36.25715       25.854127      173.19395    
-807630.22      3.2499352      34.593152      25.919051      172.60357    
-807601.98      3.6359914      36.5288        26.017314      172.0112     
-807603.71      3.5736894      42.433565      25.942362      171.42806    
-807592.35      4.0213397      38.604912      25.903961      170.85152    
-807610.54      3.1835292      36.085542      25.996001      170.2732     
-807633.2       4.2212503      36.629432      25.959629      169.7011     
-807664         3.9240813      35.542786      25.906482      169.13606    
-807654.72      3.2155344      37.019504      25.89698       168.57521    
-807644         3.1085187      35.265092      25.903431      168.01748    
-807631.83      3.3382175      34.247682      25.987767      167.45819    
-807622.37      3.2768352      36.160621      25.922241      166.90612    
-807591.32      3.8147808      38.764642      25.962745      166.35496    
-807586.19      3.2623179      39.612661      25.967477      165.80672    
-807615.44      3.6475775      35.03004       25.913257      165.26462    
-807648.7       2.8534737      34.043397      25.877158      164.72747    
-807653.28      3.2858343      35.856628      25.938847      164.18976    
-807645.88      4.0330424      38.321712      25.994764      163.65186    
-807650.89      3.7875236      34.629316      25.949777      163.11916    
-807639.63      3.1524459      34.113762      25.908521      162.59132    
-807612.13      3.2633789      36.5246        10.607316      164.01725    
-807579.51      3.4472203      39.360772      17.348201      164.13185    
-807597.53      3.3347723      37.836254      20.818421      163.90515    
-807623.8       3.3189454      34.388043      26.195843      163.34013    
-807642.27      3.2257824      34.057301      26.199999      162.7781     
-807640.41      4.6546086      38.577435      20.604187      162.56232    
-807657.76      3.1380595      35.772571      17.134514      162.66365    
-807648.89      3.9930941      36.913743      17.518216      162.71199    
-807632.28      2.8698611      35.539569      10.219976      164.05506    
-807596.77      3.773652       38.55361       26.279448      163.46593    
-807595.62      3.7490505      40.76282       26.270085      162.88067    
-807597.94      4.0754969      40.302225      26.18164       162.30275    
-807619.67      3.2443155      35.828406      26.161352      161.72893    
-807628.21      3.8970206      37.56196       26.194328      161.15673    
-807653.76      3.9752749      36.060878      15.413804      161.38861    
-807654.6       3.3225093      37.329171      20.423771      161.13412    
-807644.08      3.1084215      35.972011      20.161315      160.89466    
-807619.73      4.2050338      36.868635      26.194769      160.31916    
-807615.13      3.2878785      36.607738      26.168036      159.74779    
-807598.11      3.1566645      39.751059      26.101495      159.18211    
-807593.72      2.9135019      39.306925      26.095254      158.61947    
-807613.36      3.220225       36.126961      18.506776      158.49761    
-807644.04      2.9338365      34.238084      26.206151      157.93139    
-807654.78      2.8233855      36.150314      26.160831      157.36974    
-807646.35      3.2608084      37.875938      26.156238      156.81092    
-807640.16      4.0112026      35.9705        26.22391       156.25207    
-807630.92      3.9796473      35.185266      26.201408      155.69667    
-807615.75      3.0641212      36.932299      26.221489      155.14302    
-807586.97      3.6692476      40.112663      26.174911      154.59361    
-807597.43      3.0701454      38.429901      26.212613      154.04518    
-807624.82      3.455012       35.989533      26.220601      153.49882    
-807645.31      2.8283508      35.219374      26.156912      152.95713    
-807644.01      4.7186267      37.799057      26.158355      152.41762    
-807649.01      3.1160273      36.774673      26.134525      151.88114    
-807645.15      3.2694148      36.26278       26.194951      151.34463    
-807633.8       2.6182907      34.946385      26.178978      150.81081    
-807602.22      3.7495208      37.015737      26.21316       150.27785    
-807592.71      3.6812132      39.049635      26.227349      149.74645    
-807604.46      3.6033175      38.536663      26.165703      149.21919    
-807627.71      3.0257479      35.391384      26.187276      148.69312    
-807634.98      4.0635572      35.857112      26.259538      148.16653    
-807647.41      2.8859058      35.498074      26.163838      147.64505    
-807654.22      3.7762829      35.707595      26.186816      147.12463    
-807645.37      3.4197233      34.989363      26.176294      146.60636    
-807622.46      4.1573296      35.194281      26.201106      146.08903    
-807605.46      3.5761073      36.440195      26.196082      145.57361    
-807601.3       3.9951684      39.1586        26.196902      145.05986    
-807603.89      3.4502772      37.922075      26.226816      144.54685    
-807619.56      3.3993551      35.336647      26.281561      144.03378    
-807638.47      3.0141839      35.153922      26.258392      143.52309    
-807653.99      3.3045892      35.479055      26.196614      143.0159     
-807648.4       2.9843202      36.651113      26.19486       142.51032    
-807639.99      2.9048037      34.569689      26.228949      142.00522    
-807622.6       3.9707811      35.580224      26.219737      141.50192    
-807613.19      3.2580025      37.861804      26.191343      141.00093    
-807596.72      3.7830989      38.95418       26.177925      140.50176    
-807601.18      3.1709916      38.009773      26.189757      140.00366    
-807622.01      4.0519884      35.977242      26.201106      139.50662    
-807645.37      2.9063485      35.387552      26.195593      139.0111     
-807648.02      3.7453597      36.540162      26.156014      138.51803    
-807644.4       3.4534466      36.47087       26.164837      138.02602    
-807636.91      3.4174005      36.268543      26.170433      137.53513    
-807629.68      2.8570064      34.822923      26.175169      137.04536    
-807603.8       3.5494762      37.209796      26.213429      136.55579    
-807594.08      4.1221317      38.487         26.263825      136.06609    
-807606.68      3.478704       36.3823        26.269993      135.57746    
-807630.35      2.9609         34.353843      26.232024      135.09107    
-807640.76      3.4467284      34.717529      26.250815      134.60536    
-807643.02      3.5724882      36.179333      26.245016      134.12097    
-807647.01      3.8226719      36.142432      26.158876      133.63996    
-807640.82      3.3501059      35.610784      26.140876      133.1605     
-807621.71      3.6301166      35.722991      26.175298      132.68123    
-807597.79      3.5026556      38.689557      26.209749      132.20216    
-807598.66      3.436596       39.50474       26.226163      131.72373    
-807611.47      3.9485461      38.027508      26.211332      131.24672    
-807624.08      4.5341171      36.514036      26.213088      130.7707     
-807635.51      4.8761182      37.016832      26.253317      130.29471    
-807647.04      4.1170858      36.776995      26.256505      129.81965    
-807647.09      4.4764982      36.933843      26.203858      129.34685    
-807633.9       3.620189       36.087323      26.147249      128.87635    
-807615.1       4.7496849      36.564722      26.226917      128.4049     
-807605.43      3.7223107      38.845988      26.242828      127.93402    
-807599.8       3.7029196      39.57431       26.192421      127.46523    
-807607.26      3.4194915      37.321446      26.187209      126.99746    
-807621.5       3.6206914      36.401569      26.262491      126.52886    
-807642.13      3.3344418      35.543299      26.227248      126.06195    
-807646.35      3.1828348      36.642092      26.172049      125.59715    
-807639.82      3.3352908      36.730826      26.122429      125.13429    
-807629.99      3.6718227      36.530729      26.170763      124.67116    
-807620.77      3.848445       36.389593      26.178768      124.20867    
-807606.54      4.2436947      37.901793      26.20242       123.74647    
-807598.74      3.905823       38.75538       26.208583      123.28493    
-807606.81      3.5901324      37.385673      26.236         122.8236     
-807630.81      3.5673893      35.67282       26.253298      122.36268    
-807640.77      2.9564675      36.184248      26.192737      121.90382    
-807641.92      3.6617316      36.144633      26.188339      121.4458     
-807638.14      4.18334        36.766324      26.182176      120.98864    
-807635.64      3.9869666      35.208384      26.157242      120.53271    
-807623.35      3.3977133      35.708933      26.161907      120.07739    
-807601.5       3.939699       37.231702      26.194798      119.62211    
-807601.15      3.4216463      37.898252      26.256095      119.1663     
-807615.32      3.4938669      37.210445      26.249236      118.71134    
-807632.17      3.1040317      35.572504      26.202851      118.25798    
-807635.79      3.5421436      36.83069       26.182157      117.80569    
-807642.26      4.4882012      37.289078      26.195172      117.3538     
-807643.01      4.0116086      36.533849      26.163867      116.90317    
-807637.13      3.7433913      35.734546      26.196686      116.45254    
-807613.07      3.8277125      37.126253      26.228766      116.00194    
-807602.57      3.6283926      37.964132      26.253577      115.55151    
-807606.22      3.8222717      37.605537      26.212575      115.10247    
-807619.28      3.1596301      35.285161      26.235982      114.65361    
-807626.31      4.119408       35.554699      26.206058      114.20591    
-807639.27      3.6428864      35.84092       26.173225      113.75939    
-807648         3.3327733      36.046932      26.209608      113.3128     
-807643.34      2.8179955      35.196947      26.181074      112.86729    
-807626.71      3.1692744      35.153613      26.141925      112.42304    
-807613.06      3.6654121      36.130332      26.216896      111.97802    
-807607.51      2.940308       38.03105       26.220942      111.53348    
-807607.74      2.9020497      37.203268      26.193513      111.08997    
-807613.99      2.7859491      36.178493      26.223819      110.64648    
-807631.37      2.8290247      35.292582      26.235914      110.20332    
-807647.34      3.3128581      34.983669      26.212805      109.76108    
-807645.68      2.9497213      35.825796      26.140305      109.32058    
-807635.8       4.2739198      35.676662      26.200703      108.87957    
-807628.94      3.2940035      34.937007      26.211582      108.43889    
-807619.21      3.1112177      35.658581      26.233794      107.99835    
-807605.22      3.2143243      37.352955      26.258958      107.5579     
-807602.31      2.9041494      36.776402      26.186317      107.11911    
-807621.21      2.7604419      34.460596      26.158472      106.68125    
-807637.02      2.6643987      34.608265      26.115001      106.24454    
-807641.25      3.0764537      35.584992      26.109829      105.80836    
-807640.45      3.2348469      36.046936      26.1568        105.37188    
-807638.06      3.1222673      35.828996      26.149003      104.93597    
-807631.11      2.7683698      35.623629      26.15929       104.50034    
-807613.37      2.9307725      36.415556      26.152208      104.06525    
-807600.93      3.2648943      37.609057      26.200942      103.62986    
-807607.83      2.9830992      37.793984      26.201494      103.1949     
-807623.01      4.1352214      36.253835      26.188113      102.76056    
-807633.49      2.9579002      35.501951      26.190877      102.3266     
-807637.28      3.6537009      35.669605      26.208659      101.89281    
-807644.11      3.4878937      35.577004      26.193455      101.45964    
-807638.93      3.9878851      35.44585       26.176991      101.02713    
-807626.94      3.5324122      35.075761      26.207781      100.59457    
-807606.61      3.2831         36.506752      26.232169      100.16207    
-807603.74      3.7366868      38.125232      26.222176      99.730113    
-807609.98      3.8754008      37.994797      26.199648      99.298864    
-807623.23      3.1185298      35.6079        26.168627      98.868428    
-807629.41      3.995046       37.334121      26.207868      98.43783     
-807642.96      3.6241682      37.08049       26.203134      98.007675    
-807643.33      4.2851367      36.792065      26.143713      97.578693    
-807635.03      2.9512822      35.352718      26.182486      97.149549    
-807616         3.8639567      37.66912       26.195463      96.720594    
-807610.56      3.6577977      37.473936      26.203364      96.291894    
-807604.46      3.7595443      38.607334      26.198742      95.863611    
-807608.54      3.6240026      36.864593      26.203992      95.435611    
-807621.93      2.8981508      36.054477      26.197898      95.008038    
-807637.92      3.2390163      36.171794      26.218738      94.580544    
-807644.15      2.6424843      36.016459      26.193652      94.153711    
-807639.16      3.7501356      36.496445      26.199983      93.727132    
-807630.82      3.6276056      36.31489       26.230036      93.300515    
-807623.33      3.5032305      35.937871      26.222344      92.874326    
-807610.64      3.1901016      37.24867       26.22367       92.448451    
-807599.64      4.1906833      38.235492      26.220808      92.022937    
-807610.75      2.9728676      36.314397      26.20604       91.597922    
-807627.21      3.5643859      35.994826      26.220103      91.173056    
-807639.08      3.0705292      35.616597      26.210619      90.748616    
-807640.24      4.3549486      37.385952      26.223878      90.324332    
-807639.79      3.6169604      35.673822      26.196214      89.900677    
-807636.64      3.545913       34.853731      26.187858      89.47742     
-807624.26      4.0988042      35.093524      26.189668      89.054438    
-807606.78      3.6851452      36.719724      26.244229      88.63113     
-807604.32      3.1473065      37.398729      26.237309      88.2082      
-807616.49      3.6310064      36.334223      26.190737      87.786084    
-807628.76      3.3514159      35.580437      26.200768      87.364141    
-807635.64      4.1931485      36.048396      26.180062      86.942709    
-807640.14      2.9539777      36.063282      26.141313      86.521977    
-807642.91      3.6164166      34.900708      26.182911      86.101059    
-807632.54      2.9577601      34.565623      26.214434      85.680074    
-807617.48      3.4261219      34.446411      26.196194      85.259556    
-807607.84      3.3464496      36.442828      26.214578      84.839112    
-807611.03      2.834591       35.819649      26.253122      84.418534    
-807618.15      2.9701139      35.988911      26.253584      83.998222    
-807625.7       3.5048171      35.573447      26.251355      83.578202    
-807637.65      3.1912489      35.528663      26.255033      83.158412    
-807644.65      2.8281468      34.847793      26.221683      82.739221    
-807639.79      3.2277341      34.92805       26.203352      82.32047     
-807625.44      2.9925023      36.063188      26.21012       81.901901    
-807618.22      3.2964361      35.62279       26.22309       81.483453    
-807611.06      3.3146885      37.076965      26.21382       81.065345    
-807606.96      3.290359       37.495576      26.186229      80.647747    
-807614.15      3.3179367      36.353893      26.198644      80.230268    
-807631.29      2.5649918      34.560047      26.234905      79.81268     
-807643.29      3.2526719      34.629429      26.200513      79.395658    
-807639.84      2.8013502      35.718741      26.197728      78.978894    
-807635.08      3.5386767      35.96051       26.231224      78.562048    
-807629.12      3.4719676      35.398628      26.233444      78.145415    
-807617.78      3.2275163      36.687084      26.231603      77.729029    
-807604.83      3.0285283      37.34955       26.195988      77.313196    
-807604.96      3.1965311      37.693181      26.247049      76.897123    
-807620.27      2.7379901      35.136141      26.2664        76.481105    
-807634.84      3.1185953      35.04607       26.252438      76.065437    
-807637.52      2.8308504      35.376909      26.198687      75.650463    
-807638.24      3.4824992      35.175681      26.207021      75.235629    
-807638.23      2.502087       35.256202      26.201775      74.821051    
-807627.93      3.6244204      35.507756      26.232459      74.406421    
-807614.13      3.6427121      36.365559      26.152333      73.992682    
-807603.96      3.8216608      38.413839      26.170172      73.578991    
-807610.45      3.4205882      37.86672       26.151865      73.165652    
-807621.01      2.8654442      37.244559      26.208436      72.752038    
-807628.49      3.4805592      36.52188       26.245119      72.338324    
-807633.99      3.5202263      37.499637      26.223638      71.924989    
-807641.75      2.8405675      36.363536      26.19733       71.512064    
-807635.93      3.2599501      36.835625      26.18237       71.099451    
-807622.78      3.1830915      36.580283      26.24282       70.68655     
-807613.18      3.0336266      36.036473      26.240314      70.273864    
-807609.23      3.0383482      37.512441      26.236165      69.861405    
-807610.34      2.8739752      36.543749      26.203237      69.44939     
-807617.21      3.2487971      36.357724      26.187067      69.037684    
-807629.83      3.3748814      35.617888      26.206988      68.626009    
-807637.75      3.9391888      36.349832      26.199646      68.214571    
-807638.87      3.261324       36.444722      26.173453      67.803508    
-807631.77      4.1785762      36.665391      26.200811      67.392418    
-807623.95      2.9975006      35.884004      26.21934       66.981369    
-807615.79      2.8196978      36.694593      26.19009       66.57071     
-807609.17      2.8295315      37.451834      26.201866      66.160138    
-807608.15      3.2696908      38.12618       26.222504      65.749592    
-807620.5       3.0705509      36.234984      26.239026      65.339102    
-807634.26      3.0302907      34.898667      26.036094      64.930211    
-807637.21      3.9644085      36.589177      25.978033      64.521873    
-807637.61      2.9358154      35.709094      25.9687        64.113738    
-807633.94      3.1480108      35.164561      25.941068      63.70593     
-807624.49      2.7097192      35.882231      25.897287      63.298553    
-807616.01      3.1991342      36.099993      25.879795      62.89142     
-807606.93      2.7652632      36.850767      25.887703      62.484353    
-807613.22      3.4795494      37.228068      25.84587       62.077688    
-807624.93      3.3914259      36.059699      25.869022      61.670983    
-807634.09      4.2319814      36.244846      25.919363      61.264063    
-807635.85      4.1442809      36.686129      25.874337      60.857558    
-807637         3.6152622      35.906057      25.895166      60.451032    
-807635.49      3.5466985      36.207556      25.889622      60.044659    
-807623.14      3.2444041      35.542883      25.889364      59.638402    
-807611.67      3.8288089      36.809136      25.879033      59.232323    
-807610.78      3.7388343      36.400722      25.898365      58.826236    
-807617.76      4.2178025      35.996987      25.863503      58.420476    
-807626.11      3.2473357      34.67352       25.883435      58.014702    
-807630.94      4.6526584      35.868216      25.853435      57.609218    
-807639.56      3.1075355      35.734093      25.828126      57.203991    
-807640.42      3.2182         35.069144      25.813863      56.79895     
-807630.34      4.5493875      35.947087      25.858048      56.393747    
-807623.96      2.802191       35.27581       25.867718      55.988591    
-807613.71      3.329325       36.623424      25.865017      55.583553    
-807612.21      3.4181549      37.515049      25.847443      55.178717    
-807613.49      4.3844922      37.364645      25.85316       54.773947    
-807625.49      3.7996211      35.92173       25.933029      54.368832    
-807634.18      3.207122       35.810114      25.849216      53.964285    
-807639.85      3.4000446      36.128715      25.920884      53.559444    
-807635.73      3.2559167      35.80815       25.955368      53.154521    
-807631.11      4.5616944      35.700875      25.912623      52.749932    
-807621.81      3.4603649      35.92162       25.890549      52.345561    
-807613.72      3.1809933      37.166054      25.890043      51.941291    
-807610.32      3.9137126      37.690986      25.895714      51.537089    
-807613.96      3.1525507      36.84986       25.879837      51.133066    
-807626.28      3.6149244      35.792948      25.905061      50.729008    
-807636.22      3.1056343      35.482945      25.89134       50.325116    
-807635.54      4.8792295      36.750045      25.89547       49.921298    
-807634.18      4.1408353      36.01965       25.849771      49.517799    
-807629.36      3.2600747      35.91077       25.868387      49.114297    
-807620.63      3.8509513      36.018739      25.852403      48.710962    
-807611.17      3.2335708      37.74813       25.849057      48.30773     
-807610.54      3.0580944      37.344006      25.874281      47.904465    
-807617.49      3.8032195      37.601369      25.921963      47.501067    
-807625.87      4.1211187      36.806972      25.936825      47.097692    
-807632.32      3.9215797      36.916492      25.925718      46.694461    
-807633.82      3.5714578      36.901508      25.873608      46.291555    
-807635.12      3.4051889      36.063497      25.919359      45.888532    
-807628.49      3.9084777      36.433556      25.86598       45.485832    
-807617.16      3.5066484      37.083018      25.870574      45.083196    
-807609.97      3.3946817      36.501476      25.845464      44.680751    
-807615.46      2.9398065      36.372499      25.92599       44.278042    
-807617.26      3.4190901      36.952892      25.947095      43.875333    
-807627.44      3.208859       35.472806      25.913842      43.47285     
-807630.66      4.7128426      36.194125      25.947927      43.070312    
-807637.99      4.1037484      35.33199       25.85746       42.668228    
-807635.18      3.4358134      36.308136      25.854331      42.266235    
-807627.5       2.954201       35.567784      25.85993       41.864297    
-807616.94      4.4954058      36.506442      25.890996      41.462313    
-807613.17      3.1559235      37.843282      25.893604      41.060399    
-807613.11      3.1576771      37.342329      25.903489      40.658526    
-807615.79      3.526461       37.416237      25.871244      40.256855    
-807626.16      2.9148329      35.84216       25.892214      39.85518     
-807634.92      3.6861689      36.080577      25.906002      39.453533    
-807639.45      4.3693384      35.413256      25.866514      39.052106    
-807630.34      3.855417       36.711732      25.906658      38.650609    
-807628.81      2.8383776      35.432778      25.904085      38.249198    
-807618.77      3.5756177      35.926224      25.86178       37.848011    
-807614.86      2.8824721      36.340022      25.863285      37.446889    
-807610.71      2.4759981      35.639258      25.957121      37.04552     
-807623.15      2.8174802      35.347554      25.925793      36.644335    
-807628.75      3.9966969      35.621561      25.914006      36.243265    
-807636.53      3.3127203      35.176611      25.891333      35.842342    
-807633.35      3.8056338      36.031324      25.865686      35.441574    
-807632.46      3.0607713      35.689526      25.870832      35.040859    
-807627.05      3.5589124      35.667217      25.908599      34.640093    
-807618.58      2.9007487      36.711056      25.927713      34.23934     
-807612.84      3.4141334      36.845015      25.912495      33.838706    
-807616.23      3.1427212      36.925225      25.881299      33.438236    
-807623.36      4.0383141      36.205661      25.910165      33.037748    
-807627.56      3.1895877      36.128996      25.915671      32.637314    
-807634.38      2.7855097      35.180579      25.917453      32.236944    
-807635.1       2.9409264      35.069763      25.869928      31.836779    
-807633.09      3.11016        35.686563      25.869601      31.436679    
-807624.14      3.1189696      35.855294      25.908013      31.036537    
-807617.43      2.8545683      35.798358      25.824668      30.636689    
-807614.39      4.1073217      36.885929      25.925774      30.23663     
-807619.53      3.5067417      36.765834      25.926689      29.836636    
-807621.4       3.6851758      36.756772      25.919236      29.436728    
-807631.17      3.0121455      35.696214      25.962065      29.036778    
-807633.54      3.6138276      36.722594      25.921503      28.636998    
-807637.99      2.9441356      35.441616      25.856231      28.237444    
-807629.57      4.5170572      36.740337      25.88708       27.837875    
-807622.99      3.750037       36.291627      25.89657       27.438345    
-807615.77      3.9905187      37.252653      25.879392      27.038917    
-807615.19      3.1457332      37.203586      25.912768      26.639472    
-807616.39      2.8835419      36.245876      25.927018      26.240057    
-807624.92      2.9943846      35.558647      25.868208      25.840837    
-807631.5       3.4650542      35.378332      25.860784      25.44169     
-807637.48      3.7541894      35.510833      25.863381      25.042596    
-807635.08      2.8520653      34.872329      25.861532      24.643562    
-807629.66      3.9362568      35.744759      25.924497      24.244453    
-807625.45      3.055039       35.249546      25.922545      23.84541     
-807616.81      3.7821227      36.36333       25.894041      23.446483    
-807615.71      3.4891716      36.167649      25.802432      23.047794    
-807619.13      2.8574242      35.160789      25.848356      22.649067    
-807625.85      3.2690035      35.687579      25.825209      22.250437    
-807631.69      3.5149323      35.959989      25.89598       21.851727    
-807632.71      2.9967319      35.853339      25.911112      21.453047    
-807632.78      2.6480815      34.984912      25.898397      21.054445    
-807629.77      3.6766062      35.379655      25.851987      20.65598     
-807621.99      3.1218352      35.9838        25.785792      20.25768     
-807616.98      3.6536231      36.38474       25.778777      19.859438    
-807615.37      2.9491778      36.822764      25.8222        19.461171    
-807620.63      2.5494483      36.106038      25.852725      19.062904    
-807623.89      3.4198985      36.032992      25.890651      18.664629    
-807630.8       3.2255292      36.276255      25.891316      18.266406    
-807633.44      4.0433597      36.161613      25.916618      17.868198    
-807633.04      3.1512347      35.886317      25.875571      17.470103    
-807625.29      4.0069884      37.063794      25.886069      17.072045    
-807618.62      3.3453591      37.053293      25.862653      16.67407     
-807615.66      3.9242126      37.350663      25.914522      16.276075    
-807616.33      3.2017217      37.023504      25.8795        15.878179    
-807617.85      3.9137599      36.434846      25.880169      15.480331    
-807624.99      3.3199817      36.682328      25.903828      15.082504    
-807632.02      3.6722611      35.873522      25.877774      14.684759    
-807634.12      3.0741212      36.341326      25.885727      14.287053    
-807629.68      3.0052581      36.899419      25.857767      13.889428    
-807623.57      3.1039938      36.413654      25.827566      13.491883    
-807621.28      3.1183031      36.082507      25.855619      13.094352    
-807617.47      3.2255374      36.446586      25.915732      12.696806    
-807614.62      3.1089499      37.144546      25.914067      12.299311    
-807619.82      2.5399657      36.697468      25.92445       11.901856    
-807628.49      3.5620166      35.951052      25.955109      11.504423    
-807633.42      3.2550854      35.948621      25.91099       11.10708     
-807631.18      3.3770306      36.729594      25.927206      10.709771    
-807628.34      2.9658837      36.599205      25.909396      10.312526    
-807626.08      2.8276162      36.555612      25.841261      9.9153822    
-807620.48      3.0602326      37.176616      25.853901      9.5182714    
-807615.92      3.1520075      36.995868      25.881184      9.1211843    
-807617.57      3.0796279      36.853488      25.859897      8.7241566    
-807623.9       3.0179321      35.900186      25.906687      8.3271415    
-807629.87      4.0324937      36.392559      25.920006      7.9301639    
-807631.57      3.6981349      36.662648      25.874028      7.5332599    
-807630.77      4.7199258      36.229052      25.871354      7.1364006    
-807632.65      5.6630694      36.354762      25.890722      6.7395739    
-807627.17      3.2971636      35.997644      25.830497      6.3428207    
-807619.68      3.9179341      36.779184      25.90155       5.9460744    
-807617.74      3.2670583      36.372107      25.921681      5.5493633    
-807620.64      3.9416972      36.526045      25.922474      5.1526968    
-807624.69      3.0358038      35.947747      25.928065      4.7560729    
-807628.17      4.785181       36.821806      25.931366      4.3594927    
-807631.46      3.8353918      36.240247      25.920203      3.9629605    
-807633.69      4.8673861      36.815949      25.885198      3.5664816    
-807630.54      3.8317107      36.519541      25.842068      3.1700545    
-807622.54      3.2063993      37.237289      25.877722      2.7736582    
-807621.28      3.968858       36.918296      25.922188      2.3772942    
-807618.85      3.1425909      36.934857      25.919978      1.9809733    
-807619.93      3.4373326      36.747604      25.895254      1.5846978    
-807623.71      3.0451912      35.817953      25.823942      1.1884694    
-807628.21      3.0822779      36.307234      25.840962      0.79227609   
-807634.39      4.3409193      34.544962      25.870816      0.3961188    
-807632.29      3.069817       35.176695      25.916651      0            
Loop time of 198.056 on 32 procs for 5000 steps with 1080 atoms

Performance: 4.362 ns/day, 5.502 hours/ns, 25.245 timesteps/s, 27.265 katom-step/s
67.0% CPU use with 32 MPI tasks x 1 OpenMP threads

MPI task timing breakdown:
Section |  min time  |  avg time  |  max time  |%varavg| %total
---------------------------------------------------------------
Pair    | 101.31     | 144.13     | 191.68     | 315.4 | 72.77
Neigh   | 0          | 0          | 0          |   0.0 |  0.00
Comm    | 3.8021     | 51.365     | 94.17      | 528.2 | 25.93
Output  | 0.030908   | 0.031817   | 0.033342   |   0.3 |  0.02
Modify  | 2.1076     | 2.1554     | 2.2094     |   1.5 |  1.09
Other   |            | 0.3731     |            |       |  0.19

Nlocal:          33.75 ave          48 max          21 min
Histogram: 8 8 0 0 0 0 0 8 0 8
Nghost:        1106.25 ave        1119 max        1092 min
Histogram: 8 0 8 0 0 0 0 0 8 8
Neighs:              0 ave           0 max           0 min
Histogram: 32 0 0 0 0 0 0 0 0 0
FullNghs:       5494.5 ave        7896 max        3378 min
Histogram: 8 8 0 0 0 0 0 8 0 8

Total # of neighbors = 175824
Ave neighs/atom = 162.8
Neighbor list builds = 0
Dangerous builds = 0

reset_timestep 0


variable interval equal 1000
thermo 10

variable nintervals equal $(v_PERIOD/v_interval)
variable nintervals equal 100
variable efield equal 1e-2*36.36*cos((step/${PERIOD})*2*3.14)
variable efield equal 1e-2*36.36*cos((step/100000)*2*3.14)
fix born all addbornforce 0.0 0.0 v_efield

variable Px equal f_born[1]+c_polarization[1]
variable Py equal f_born[2]+c_polarization[2]
variable Pz equal (f_born[3]+c_polarization[3])/vol
variable pe equal pe

fix aveP all ave/time 1 $(v_interval/2) ${interval} v_efield v_Pz v_pe f_born file Pz.${MODEL}.${STRUCTURE}.${TEMP}.$L.${ITER}
fix aveP all ave/time 1 500 ${interval} v_efield v_Pz v_pe f_born file Pz.${MODEL}.${STRUCTURE}.${TEMP}.$L.${ITER}
fix aveP all ave/time 1 500 1000 v_efield v_Pz v_pe f_born file Pz.${MODEL}.${STRUCTURE}.${TEMP}.$L.${ITER}
fix aveP all ave/time 1 500 1000 v_efield v_Pz v_pe f_born file Pz.BaTiO3-E0.${STRUCTURE}.${TEMP}.$L.${ITER}
fix aveP all ave/time 1 500 1000 v_efield v_Pz v_pe f_born file Pz.BaTiO3-E0.BaTiO3-sc333.${TEMP}.$L.${ITER}
fix aveP all ave/time 1 500 1000 v_efield v_Pz v_pe f_born file Pz.BaTiO3-E0.BaTiO3-sc333.350.$L.${ITER}
fix aveP all ave/time 1 500 1000 v_efield v_Pz v_pe f_born file Pz.BaTiO3-E0.BaTiO3-sc333.350.2.${ITER}
fix aveP all ave/time 1 500 1000 v_efield v_Pz v_pe f_born file Pz.BaTiO3-E0.BaTiO3-sc333.350.2.3

thermo_style custom step time temp press pe f_born v_efield v_Pz spcpu cpuremain

# dump 4a all custom 1000 dump.hyst.${MODEL}.${STRUCTURE}.${TEMP}.$L.${ITER}.bin id type xu yu zu fx fy fz
# dump_modify 4a sort id

fix nvt all nvt temp ${TEMP} ${TEMP} $(100*dt)
fix nvt all nvt temp 350 ${TEMP} $(100*dt)
fix nvt all nvt temp 350 350 $(100*dt)
fix nvt all nvt temp 350 350 0.2000000000000000111

run $(v_PERIOD)
run 100000
WARNING: non-constant efield is experimental, strongly distrust scalar/vector output (src/fix_addbornforce.cpp:193)
Per MPI rank memory allocation (min/avg/max) = 3.516 | 3.516 | 3.516 Mbytes
   Step          Time           Temp          Press          PotEng         f_born        v_efield         v_Pz          S/CPU         CPULeft    
         0   0              343.1754       130538.35     -807632.29     -295.70868      0.3636         0.055614458    0              0            
        10   0.02           355.44333      133766.38     -807627.33     -302.44488      0.36359993     0.056881359    28.116036      3556.3524    
        20   0.04           351.22448      137538.54     -807623.26     -305.94432      0.36359971     0.05753954     28.132128      3554.9702    
        30   0.06           358.50663      139676.51     -807622.03     -308.13958      0.36359935     0.057952464    28.086728      3556.1872    
        40   0.08           345.34815      141017.62     -807618.49     -309.81531      0.36359885     0.058267701    28.093848      3556.3922    
        50   0.1            344.20092      139248.57     -807619.47     -308.67489      0.36359821     0.058053324    28.1415        3555.1681    
        60   0.12           334.75801      135432.4      -807624.01     -302.82816      0.36359742     0.056953837    28.173561      3553.5599    
        70   0.14           347.3071       131673.08     -807631.82     -296.63713      0.36359649     0.055789613    28.144537      3552.8324    
        80   0.16           346.71873      130926.61     -807631.73     -296.55949      0.36359541     0.055775176    28.114959      3552.6647    
        90   0.18           342.97072      131242.46     -807629.03     -298.74056      0.36359419     0.056185568    28.149732      3551.9679    
       100   0.2            351.73136      134911.84     -807627.12     -301.72259      0.36359283     0.056746624    28.076517      3552.2645    
       110   0.22           352.68515      136529.6      -807623.93     -305.03219      0.36359132     0.057369316    27.981374      3553.5423    
       120   0.24           361.38024      141348.27     -807619.54     -310.40148      0.36358968     0.058379418    28.017013      3554.169     
       130   0.26           341.22627      140578.15     -807616.66     -310.43034      0.36358788     0.058385133    28.0901        3553.931     
       140   0.28           351.39175      139447.06     -807621.88     -306.39569      0.36358595     0.05762661     28.128237      3553.3315    
       150   0.3            361.28166      133663.99     -807629.18     -300.24791      0.36358387     0.056470665    28.10928       3552.9248    
       160   0.32           346.79448      131651.96     -807628.78     -298.44058      0.36358165     0.056131085    28.156397      3552.1527    
       170   0.34           337.77295      129939.96     -807629        -296.68062      0.36357928     0.055800434    28.163425      3551.3773    
       180   0.36           351.15661      132487.58     -807629.87     -297.30709      0.36357677     0.055918647    28.143618      3550.7875    
       190   0.38           366.93962      135271.51     -807626.89     -302.17895      0.36357412     0.05683538     28.140615      3550.2423    
       200   0.4            345.15536      140896.32     -807616.8      -308.92337      0.36357132     0.058104352    28.16178       3549.5829    
       210   0.42           366.22394      140506.3      -807617.96     -310.3925       0.36356838     0.058381147    28.154941      3548.9932    
       220   0.44           357.15681      140554.62     -807618.06     -308.60052      0.3635653      0.058044591    28.151946      3548.442     
       230   0.46           365.34782      136593.31     -807623.12     -304.44802      0.36356207     0.057264055    28.144797      3547.9472    
       240   0.48           363.27136      133579.01     -807625        -302.01875      0.3635587      0.056807657    28.162799      3547.3694    
       250   0.5            362.30613      130813.39     -807629.22     -297.37077      0.36355519     0.055933945    28.116334      3547.0437    
       260   0.52           350.78734      131234.32     -807629.68     -295.08247      0.36355153     0.055504085    28.101876      3546.786     
       270   0.54           355.30361      132877.4      -807628.56     -296.79102      0.36354773     0.055826042    28.038854      3546.8161    
       280   0.56           363.14336      136413.21     -807622.81     -303.52762      0.36354379     0.057093807    28.059828      3546.724     
       290   0.58           375.35565      139297.12     -807619.5      -308.45134      0.3635397      0.058020616    28.049065      3546.6606    
       300   0.6            364.8356       141868.41     -807617.75     -308.66692      0.36353547     0.058061842    28.039914      3546.6161    
       310   0.62           355.27538      141441.68     -807617.01     -308.06321      0.3635311      0.057948979    28.06738       3546.4396    
       320   0.64           372.05809      137743.78     -807621.57     -305.97085      0.36352658     0.057556106    28.077381      3546.2119    
       330   0.66           369.7682       133340.83     -807626.52     -300.77605      0.36352192     0.056579638    28.095198      3545.9084    
       340   0.68           347.64507      130771.53     -807628.88     -295.4279       0.36351712     0.05557432     28.120873      3545.5066    
       350   0.7            355.64867      131439.05     -807629.64     -295.88491      0.36351217     0.055661047    28.100299      3545.1836    
       360   0.72           357.93651      133806.13     -807626.71     -299.35793      0.36350708     0.056315171    28.098628      3544.8606    
       370   0.74           365.13815      137328.63     -807623.11     -304.14381      0.36350185     0.057216314    28.139802      3544.3978    
       380   0.76           361.6517       138983.65     -807620.11     -306.87356      0.36349647     0.057730695    28.124088      3543.9924    
       390   0.78           356.96111      142373.78     -807617.78     -308.81156      0.36349095     0.058096165    28.112492      3543.627     
       400   0.8            355.75074      139722.33     -807618.46     -308.24743      0.36348529     0.05799094     28.140742      3543.1734    
       410   0.82           357.60106      137774.4      -807621.28     -305.9373       0.36347948     0.057557252    28.127237      3542.7659    
       420   0.84           356.06099      131883.49     -807628.51     -298.81044      0.36347353     0.056217366    28.14436       3542.3095    
       430   0.86           345.45395      132400.46     -807629.08     -296.95049      0.36346744     0.055868377    28.132813      3541.8916    
       440   0.88           354.09853      130037.81     -807631.64     -295.90496      0.3634612      0.055672626    28.089758      3541.6       
       450   0.9            348.88843      134743.13     -807625.12     -301.80382      0.36345482     0.056783455    28.088419      3541.3092    
       460   0.92           359.65209      133945.66     -807626.35     -302.37842      0.3634483      0.056892586    28.086447      3541.0211    
       470   0.94           357.9306       141143.49     -807620.64     -307.82472      0.36344163     0.057918372    28.14426       3540.5751    
       480   0.96           347.30237      139737.87     -807618.4      -308.8293       0.36343482     0.058108476    28.110941      3540.2202    
       490   0.98           357.50172      142946.37     -807618.53     -310.07545      0.36342786     0.058344064    28.125414      3539.828     
       500   1              342.43712      134333.5      -807625.29     -301.37677      0.36342077     0.056708421    28.153004      3539.368     
       510   1.02           360.48204      134271.73     -807629.73     -9578.2264      0.36341353     0.056322451    28.026341      3539.2252    
       520   1.04           332.26889      129525.11     -807628.91     -9487.0536      0.36340614     0.055787465    28.013872      3539.1046    
       530   1.06           344.14937      132838.14     -807628.41     -9551.383       0.36339862     0.05616691     27.987949      3539.0373    
       540   1.08           347.48587      131956.54     -807630.05     -9519.2307      0.36339095     0.05597902     27.991456      3538.9509    
       550   1.1            353.96451      137911.34     -807623.86     -9746.7915      0.36338313     0.057318452    28.025694      3538.7756    
       560   1.12           345.27284      140340.42     -807617.92     -9901.1925      0.36337518     0.058227721    27.989513      3538.6758    
       570   1.14           350.96928      141032.37     -807618.09     -9920.2725      0.36336707     0.058341229    28.007575      3538.5268    
       580   1.16           364.86478      138056.82     -807624.79     -9765.4927      0.36335883     0.057432269    28.004831      3538.3766    
       590   1.18           350.00066      134786.61     -807625.33     -9685.3528      0.36335044     0.05696227     28.003292      3538.2227    
       600   1.2            356.62798      133182.54     -807627.79     -9636.409       0.36334191     0.056675749    27.987429      3538.0956    
       610   1.22           348.74625      130647.18     -807631.6      -9481.7857      0.36333324     0.055767676    28.036966      3537.8581    
       620   1.24           339.60173      132078.66     -807629.08     -9518.8476      0.36332442     0.055987016    28.087807      3537.5133    
       630   1.26           340.96035      133166.7      -807627.43     -9582.3204      0.36331546     0.056361734    28.066088      3537.2115    
       640   1.28           347.58373      139966.25     -807619.6      -9861.3453      0.36330636     0.058004369    28.055727      3536.9285    
       650   1.3            339.61752      139122.95     -807619.06     -9846.5661      0.36329711     0.057918912    28.022578      3536.7076    
       660   1.32           345.21464      142258.64     -807619.45     -9853.913       0.36328772     0.057963625    28.068835      3536.3941    
       670   1.34           352.79441      136207.38     -807624.67     -9723.0777      0.36327819     0.057195514    28.060908      3536.0943    
       680   1.36           355.78087      137617.65     -807624.19     -9747.5663      0.36326851     0.057341094    28.016302      3535.8756    
       690   1.38           347.89668      129852.96     -807630.24     -9522.9462      0.36325869     0.056021258    27.98177       3535.7164    
       700   1.4            352.74326      132151.94     -807632.6      -9462.5805      0.36324873     0.055667667    28.014734      3535.4919    
       710   1.42           353.26422      129266.28     -807632.88     -9459.237       0.36323863     0.055649546    28.075082      3535.1562    
       720   1.44           354.84945      137664.9      -807623.29     -9772.1263      0.36322838     0.057491924    28.023759      3534.91      
       730   1.46           345.96813      137192.09     -807622.52     -9762.8493      0.36321798     0.057438988    28.00795       3534.6882    
       740   1.48           344.26998      143018.16     -807619.36     -9847.3287      0.36320745     0.057937697    27.953706      3534.5556    
       750   1.5            348.28724      138889.31     -807620.74     -9823.3449      0.36319677     0.057798285    27.959705      3534.4069    
       760   1.52           348.9688       139490.97     -807619        -9878.5128      0.36318595     0.058124613    27.992032      3534.1987    
       770   1.54           359.2976       133472.88     -807628.91     -9606.5819      0.36317498     0.056526294    27.980993      3534.0049    
       780   1.56           347.07748      132708.07     -807630.73     -9487.9048      0.36316387     0.055829691    27.966646      3533.8301    
       790   1.58           354.34651      130728.19     -807632.22     -9471.749       0.36315262     0.055736352    28.041333      3533.5311    
       800   1.6            350.10838      132740.69     -807627.54     -9602.6084      0.36314122     0.056508165    28.09895       3533.14      
       810   1.62           346.44853      135225.15     -807625.28     -9656.3239      0.36312968     0.056826069    28.124715      3532.7099    
       820   1.64           349.68614      138450.15     -807623.2      -9734.7824      0.363118       0.057289629    28.047419      3532.4001    
       830   1.66           344.03977      141288.23     -807617.68     -9883.4268      0.36310618     0.058166302    28.037638      3532.1039    
       840   1.68           352.06137      140248.9      -807618.01     -9904.1841      0.36309421     0.058290385    28.069969      3531.758     
       850   1.7            347.17765      138822.68     -807621.86     -9753.5105      0.3630821      0.05740552     28.042722      3531.4521    
       860   1.72           357.88211      134017.02     -807629.33     -9555.8704      0.36306984     0.056244183    28.041185      3531.1474    
       870   1.74           348.91202      133588.09     -807628.5      -9535.7389      0.36305745     0.056127609    28.120682      3530.7264    
       880   1.76           358.66533      129936.61     -807630.66     -9508.5332      0.3630449      0.055969409    28.102414      3530.3331    
       890   1.78           358.60739      133073.11     -807628.88     -9556.6114      0.36303222     0.056254374    28.113405      3529.9252    
       900   1.8            360.64765      133570.82     -807628.4      -9578.0344      0.36301939     0.056382471    28.101834      3529.5344    
       910   1.82           352.52867      140213.55     -807618.94     -9837.1388      0.36300642     0.057909796    28.10222       3529.1439    
       920   1.84           352.82842      138627.67     -807617.39     -9886.9722      0.36299331     0.05820526     28.016488      3528.8715    
       930   1.86           364.62978      140454.73     -807620.17     -9840.8506      0.36298005     0.057935855    28.01024       3528.6057    
       940   1.88           358.26853      136534.93     -807624.33     -9676.6796      0.36296665     0.056971437    27.993034      3528.3611    
       950   1.9            365.54182      135363.18     -807625.3      -9670.0719      0.36295311     0.056934659    28.015737      3528.0839    
       960   1.92           348.40647      130400.32     -807627.16     -9534.9959      0.36293942     0.056141486    27.990144      3527.8388    
       970   1.94           347.20063      132833.09     -807627.82     -9501.2018      0.36292559     0.05594464     28.001141      3527.5771    
       980   1.96           361.56718      130773.63     -807630.2      -9490.0119      0.36291162     0.055880904    28.011511      3527.2999    
       990   1.98           360.31824      137447.41     -807622.06     -9739.01        0.3628975      0.057349333    28.04442       3526.9793    
      1000   2              359.44205      137425.68     -807620.06     -9802.514       0.36288325     0.057725552    27.882346      3526.8632    
      1010   2.02           355.77877      141954.15     -807617.85     -307.80044      0.36286884     0.058005219    28.081293      3526.4933    
      1020   2.04           368.54831      137335.01     -807622.71     -304.84405      0.3628543      0.057450388    28.145126      3526.0453    
      1030   2.06           357.43793      138119.71     -807620.68     -305.24395      0.36283961     0.057528081    28.126206      3525.6219    
      1040   2.08           355.98172      132771.19     -807626.56     -299.27885      0.36282478     0.056406169    28.116911      3525.2112    
      1050   2.1            349.80611      133122.07     -807628.52     -296.40202      0.3628098      0.055866268    28.158327      3524.7521    
      1060   2.12           351.36025      131049.9      -807629.67     -295.69901      0.36279469     0.055736086    28.198178      3524.2481    
      1070   2.14           355.32571      135103.35     -807624.92     -301.03292      0.36277943     0.056743858    28.164592      3523.7861    
      1080   2.16           347.76338      136064.54     -807621.3      -303.87906      0.36276402     0.057282779    28.144921      3523.3487    
      1090   2.18           362.87695      139666.56     -807621.49     -305.89755      0.36274848     0.057665747    28.131589      3522.9281    
      1100   2.2            363.45042      139616.26     -807620.92     -306.81913      0.36273279     0.057841978    28.132252      3522.5081    
      1110   2.22           356.37523      138192.21     -807620.68     -306.33919      0.36271695     0.05775402     28.171264      3522.0453    
      1120   2.24           357.74007      135568.73     -807624.86     -302.64885      0.36270098     0.057060796    28.15521       3521.6022    
      1130   2.26           346.6366       131975.8      -807628.87     -297.43378      0.36268486     0.056080048    28.152132      3521.1642    
      1140   2.28           358.31419      131656.55     -807632.27     -295.93045      0.3626686      0.055799104    28.128776      3520.7532    
      1150   2.3            352.8011       130814.42     -807630.13     -297.6998       0.36265219     0.056135263    28.124212      3520.348     
      1160   2.32           336.07598      136286.14     -807624.47     -301.31298      0.36263564     0.056819167    28.121202      3519.9471    
      1170   2.34           341.86071      136059.16     -807624.2      -302.7236       0.36261895     0.057087798    28.10654       3519.5625    
      1180   2.36           342.33283      140263.63     -807619.97     -307.16307      0.36260212     0.057927685    28.065875      3519.2216    
      1190   2.38           348.34         138429.29     -807621.06     -307.22742      0.36258514     0.057942534    28.096022      3518.8486    
      1200   2.4            336.09482      139337.99     -807619.73     -306.82293      0.36256802     0.05786898     28.144578      3518.4255    
      1210   2.42           343.76907      133014.11     -807628.23     -299.58786      0.36255076     0.056507086    28.139191      3518.009     
      1220   2.44           343.72672      133235.33     -807629.03     -298.77538      0.36253335     0.056356545    28.127958      3517.6049    
      1230   2.46           347.59412      128939.09     -807631.81     -296.7113       0.3625158      0.055969916    28.120323      3517.2095    
      1240   2.48           347.45339      133756.9      -807628.84     -299.59656      0.36249811     0.056516933    28.132169      3516.8027    
      1250   2.5            336.55334      132357.18     -807628.44     -298.59728      0.36248028     0.056331196    28.124908      3516.404     
      1260   2.52           345.9154       138706.16     -807623.59     -304.67263      0.3624623      0.057480179    28.091359      3516.0393    
      1270   2.54           344.00169      137710.96     -807620.83     -307.25714      0.36244418     0.057970676    28.094622      3515.6715    
      1280   2.56           349.9182       139992.38     -807620.43     -308.35464      0.36242592     0.058180676    28.133772      3515.2657    
      1290   2.58           346.13387      136035.66     -807625.1      -303.11591      0.36240751     0.057195131    28.110932      3514.8827    
      1300   2.6            343.88281      135024.27     -807626.98     -300.77264      0.36238896     0.056755884    28.101112      3514.5097    
      1310   2.62           350.52029      131033.39     -807630.68     -297.94243      0.36237027     0.056224722    28.126577      3514.1126    
      1320   2.64           331.82968      131100.75     -807628.1      -297.78908      0.36235143     0.056198704    28.145895      3513.6978    
      1330   2.66           346.3872       131938.55     -807630.77     -297.00178      0.36233245     0.056053062    28.133573      3513.2956    
      1340   2.68           348.46882      134456.91     -807627.35     -300.59099      0.36231333     0.056733446    28.142266      3512.8859    
      1350   2.7            351.86528      136918.31     -807622.47     -305.87543      0.36229407     0.057733898    28.09594       3512.5199    
      1360   2.72           350.55063      138684.73     -807620.87     -307.18792      0.36227466     0.057984736    28.084009      3512.165     
      1370   2.74           345.48657      138966.83     -807621.31     -305.79378      0.36225511     0.057724694    28.105201      3511.7907    
      1380   2.76           343.97584      136423.53     -807624.18     -302.5877       0.36223542     0.057122588    28.129522      3511.3948    
      1390   2.78           336.81955      135608.51     -807623.84     -301.68174      0.36221558     0.056954679    28.126814      3511.0018    
      1400   2.8            351.11977      130925.13     -807630.63     -296.75708      0.3621956      0.056028041    28.163483      3510.5767    
      1410   2.82           341.2696       132358.76     -807630.15     -295.52344      0.36217548     0.055798228    28.155348      3510.1599    
      1420   2.84           348.43759      131782.29     -807629.16     -297.4333       0.36215522     0.056161974    28.126825      3509.7689    
      1430   2.86           355.29716      136514.14     -807624.18     -303.09977      0.36213481     0.057235153    28.09535       3509.4058    
      1440   2.88           344.69963      137253.02     -807621.59     -304.11434      0.36211426     0.057429996    28.153283      3508.9927    
      1450   2.9            355.36015      139549.06     -807621.64     -305.26608      0.36209357     0.057650789    28.172926      3508.5637    
      1460   2.92           348.15443      137509.94     -807620.26     -305.45016      0.36207273     0.057688874    28.166852      3508.1407    
      1470   2.94           350.0365       137770.78     -807621.14     -304.62796      0.36205176     0.057536922    28.18875       3507.7002    
      1480   2.96           357.30436      132633.86     -807627.82     -298.73562      0.36203064     0.056427292    28.170371      3507.2763    
      1490   2.98           362.44222      131248.45     -807631.18     -295.81806      0.36200937     0.055879485    28.166276      3506.8567    
      1500   3              354.49217      131506.07     -807629.02     -296.78908      0.36198796     0.056066224    28.160249      3506.443     
      1510   3.02           359.0663       133652.85     -807626.65     -9588.2411      0.36196642     0.056606749    28.096314      3506.0827    
      1520   3.04           345.34048      135511.86     -807623.89     -9611.8791      0.36194472     0.056749702    28.059468      3505.7528    
      1530   3.06           362.8211       138727.69     -807622.28     -9735.9092      0.36192289     0.057485459    28.08965       3505.3979    
      1540   3.08           352.8193       140401.08     -807618.57     -9808.3541      0.36190091     0.057916726    28.099204      3505.0352    
      1550   3.1            361.28477      140137.17     -807619.6      -9807.518       0.36187879     0.057915328    28.071697      3504.6948    
      1560   3.12           364.08136      135448.24     -807625.02     -9642.1239      0.36185653     0.056942146    28.062289      3504.3617    
      1570   3.14           364.64516      133818.35     -807628.41     -9531.8114      0.36183412     0.056294175    28.035151      3504.05      
      1580   3.16           348.85846      132439.73     -807626.68     -9513.367       0.36181157     0.056188745    28.009714      3503.7578    
      1590   3.18           358.83499      130993.57     -807629        -9482.7332      0.36178888     0.056011326    27.998004      3503.4741    
      1600   3.2            347.61686      134125.18     -807625.07     -9553.6849      0.36176605     0.056433975    28.014203      3503.1767    
      1610   3.22           363.31288      135064.73     -807625.15     -9619.7324      0.36174307     0.05682773     28.017503      3502.876     
      1620   3.24           362.02325      139968.21     -807619.46     -9791.8857      0.36171995     0.057848408    28.059935      3502.5419    
      1630   3.26           360.80253      138830.91     -807619.21     -9795.18        0.36169669     0.057871591    28.052931      3502.2129    
      1640   3.28           356.89238      140106.91     -807619.67     -9754.989       0.36167329     0.057637865    28.062041      3501.8766    
      1650   3.3            365.80723      134519.58     -807625.69     -9602.6194      0.36164974     0.056741276    28.060716      3501.5411    
      1660   3.32           350.25514      136232.45     -807623.64     -9593.2916      0.36162605     0.056689872    28.105618      3501.1715    
      1670   3.34           351.94505      130551.4      -807627.53     -9479.6437      0.36160222     0.056021982    28.101211      3500.8054    
      1680   3.36           361.1589       133861.99     -807628.73     -9476.464       0.36157824     0.056006904    28.094153      3500.4447    
      1690   3.38           353.5842       131992.99     -807627.97     -9473.7551      0.36155413     0.055994629    28.070541      3500.1015    
      1700   3.4            368.7766       137625.28     -807623.03     -9696.8081      0.36152987     0.057316829    28.04542       3499.7765    
      1710   3.42           368.25901      136607.45     -807622.26     -9726.1837      0.36150546     0.057494347    28.027539      3499.4643    
      1720   3.44           357.08204      141033.19     -807618.87     -9786.0357      0.36148092     0.057852077    28.013868      3499.1615    
      1730   3.46           361.53736      138099.89     -807622.2      -9708.7556      0.36145623     0.057399141    27.993713      3498.8726    
      1740   3.48           354.23882      137974.14     -807621.1      -9715.135       0.3614314      0.057440803    28.046106      3498.5453    
      1750   3.5            352.92335      133774.98     -807625.82     -9566.1661      0.36140643     0.056563931    28.048722      3498.2158    
      1760   3.52           346.13573      133803.25     -807627.82     -9474.866       0.36138131     0.056027975    28.028647      3497.9002    
      1770   3.54           351.33513      130848.63     -807629.44     -9455.4396      0.36135605     0.055917009    28.017426      3497.5921    
      1780   3.56           343.4319       134165.48     -807624.67     -9579.618       0.36133065     0.05665535     28.042767      3497.2657    
      1790   3.58           361.228        135520.52     -807625.37     -9645.6248      0.36130511     0.057049757    28.035069      3496.9443    
      1800   3.6            356.01687      137176.1      -807623.28     -9695.6072      0.36127942     0.057349459    28.032247      3496.6244    
      1810   3.62           355.64432      138369.67     -807621.85     -9747.4891      0.3612536      0.057660462    27.994244      3496.3304    
      1820   3.64           347.9037       137674.79     -807620.95     -9752.043       0.36122763     0.057691548    28.011035      3496.0242    
      1830   3.66           348.54903      136138.82     -807625.22     -9622.5467      0.36120151     0.056929584    28.061893      3495.6827    
      1840   3.68           347.85986      132558.9      -807629.48     -9489.3114      0.36117526     0.056145409    28.115006      3495.3052    
      1850   3.7            345.68765      132312.1      -807629.65     -9479.1008      0.36114886     0.056089095    28.119644      3494.9247    
      1860   3.72           353.51413      130799.89     -807629.66     -9520.24        0.36112232     0.056336661    28.07337       3494.5755    
      1870   3.74           336.78078      134957.07     -807625.81     -9571.7762      0.36109564     0.056645815    28.049672      3494.2419    
      1880   3.76           350.743        134583.58     -807627.34     -9593.1082      0.36106881     0.056776276    28.062954      3493.8994    
      1890   3.78           340.13015      139799.68     -807620.59     -9760.355       0.36104184     0.057770431    28.050859      3493.5646    
      1900   3.8            339.58865      138229.79     -807621.44     -9739.5038      0.36101474     0.057651345    28.031435      3493.2424    
      1910   3.82           335.54779      139181.49     -807621.02     -9733.7744      0.36098748     0.05762178     28.015305      3492.9304    
      1920   3.84           355.21656      132913.2      -807630.33     -9525.826       0.36096009     0.056395052    28.041937      3492.6005    
      1930   3.86           337.10663      134122.68     -807627.59     -9533.6395      0.36093255     0.056445616    28.029361      3492.2786    
      1940   3.88           339.15468      130723.86     -807629.8      -9477.3075      0.36090487     0.056116395    28.026409      3491.9582    
      1950   3.9            335.73755      133217.8      -807628        -9515.3655      0.36087705     0.056346085    28.019833      3491.6415    
      1960   3.92           341.977        132333.39     -807629.49     -9497.529       0.36084909     0.056244823    28.007309      3491.3325    
      1970   3.94           346.81666      137656.43     -807623.55     -9705.993       0.36082098     0.057483834    28.024144      3491.0123    
      1980   3.96           342.78972      137474.43     -807621.33     -9761.9814      0.36079273     0.057819953    28.041026      3490.6812    
      1990   3.98           350.45521      139274.01     -807622.31     -9758.5472      0.36076434     0.057804161    28.04286       3490.3486    
      2000   4              349.41955      134847.49     -807626.92     -9603.8722      0.36073581     0.056892453    28.046606      3490.0134    
      2010   4.02           352.50111      134327.68     -807627.51     -299.83815      0.36070713     0.056843351    28.105155      3489.6418    
      2020   4.04           338.61061      132754.07     -807627.39     -297.93282      0.36067831     0.056486653    28.091596      3489.2787    
      2030   4.06           338.70209      132400.57     -807630.27     -294.8831       0.36064935     0.055912928    28.109718      3488.9046    
      2040   4.08           342.04306      132386.76     -807630.11     -295.33025      0.36062025     0.056002231    28.085209      3488.5456    
      2050   4.1            341.02468      134615.2      -807625.59     -299.56859      0.36059101     0.056810538    28.097555      3488.1791    
      2060   4.12           344.61964      138165.71     -807621.91     -303.51541      0.36056162     0.057563709    28.071202      3487.8286    
      2070   4.14           371.38844      136402.52     -807626.81     -302.02782      0.36053209     0.057286268    28.119572      3487.4491    
      2080   4.16           349.59725      138397.04     -807622        -303.46602      0.36050242     0.057563792    28.145391      3487.0545    
      2090   4.18           346.3446       135867.9      -807623.95     -300.9385       0.36047261     0.057089075    28.119478      3486.6755    
      2100   4.2            348.5972       136983.62     -807624.99     -299.7705       0.36044265     0.056872227    28.179563      3486.2615    
      2110   4.22           343.31958      131449.39     -807629.18     -294.60613      0.36041256     0.055897113    28.152275      3485.8639    
      2120   4.24           339.45284      133806.76     -807628.07     -294.7844       0.36038232     0.05593563     28.107119      3485.4931    
      2130   4.26           355.32969      132422.43     -807628.96     -295.8843       0.36035193     0.056149072    28.088895      3485.1331    
      2140   4.28           355.33271      136139.83     -807623.95     -300.51909      0.36032141     0.057033434    28.161334      3484.7312    
      2150   4.3            369.16808      134674.85     -807626.01     -300.18206      0.36029075     0.05697432     28.110651      3484.3589    
      2160   4.32           359.66199      140076.7      -807620.97     -303.59504      0.36025994     0.057627027    28.093646      3483.9965    
      2170   4.34           351.17182      138527.97     -807620.13     -303.23574      0.36022899     0.057563772    28.085132      3483.639     
      2180   4.36           366.34414      138423.91     -807622.37     -302.84854      0.36019789     0.057495232    28.173591      3483.2313    
      2190   4.38           352.37212      133147.12     -807626.64     -296.50899      0.36016666     0.056296563    28.174739      3482.8235    
      2200   4.4            346.69016      134138.23     -807626.93     -295.20834      0.36013528     0.056054497    28.139893      3482.4358    
      2210   4.42           370.81984      130418.35     -807630.99     -294.49459      0.36010377     0.055923864    28.0558        3482.0954    
      2220   4.44           356.96392      133252.25     -807626.11     -297.30487      0.36007211     0.056462494    28.091441      3481.735     
      2230   4.46           359.25033      134332.22     -807626.48     -297.27186      0.3600403      0.056461211    28.085777      3481.3778    
      2240   4.48           364.93789      137840.67     -807623.05     -301.41778      0.36000836     0.057253731    28.092996      3481.0165    
      2250   4.5            361.95977      139406.59     -807619.45     -304.66463      0.35997627     0.057875623    28.15387       3480.6219    
      2260   4.52           349.58628      139735.87     -807618.25     -304.17556      0.35994404     0.05778789     28.147106      3480.2313    
      2270   4.54           356.43982      137112.48     -807623.98     -299.40849      0.35991167     0.05688735     28.137869      3479.8461    
      2280   4.56           352.79334      134311.61     -807626.31     -296.65218      0.35987916     0.056368745    28.09067       3479.4867    
      2290   4.58           363.78426      132498.46     -807628.48     -296.08758      0.35984651     0.056266567    28.113201      3479.1152    
      2300   4.6            360.30762      131381.85     -807629.2      -295.01042      0.35981371     0.056066979    28.153814      3478.7221    
      2310   4.62           362.68694      134242.23     -807630.04     -294.51566      0.35978077     0.055978076    28.158454      3478.3267    
      2320   4.64           365.81006      133697.87     -807628.06     -297.11891      0.35974769     0.056478063    28.164663      3477.9284    
      2330   4.66           352.91986      138686        -807619.41     -304.01033      0.35971447     0.057793361    28.187069      3477.5187    
      2340   4.68           352.78212      138405.01     -807620.54     -303.02396      0.35968111     0.057611191    28.170088      3477.1183    
      2350   4.7            355.31231      139253.95     -807621.55     -302.33435      0.3596476      0.057485437    28.178171      3476.7142    
      2360   4.72           358.01309      135208.92     -807625.75     -298.71175      0.35961396     0.056801954    28.160592      3476.3196    
      2370   4.74           358.66649      136217.17     -807624.85     -299.70206      0.35958017     0.056995624    28.152165      3475.9297    
      2380   4.76           346.75988      131123.39     -807629.53     -293.53671      0.35954624     0.055828401    28.121919      3475.5557    
      2390   4.78           358.55268      133095.11     -807630.83     -293.79316      0.35951216     0.055882471    28.088433      3475.1993    
      2400   4.8            347.94732      130876.2      -807629.19     -294.15051      0.35947795     0.055955768    28.078611      3474.8479    
      2410   4.82           348.31387      136883.76     -807622.91     -300.47777      0.35944359     0.057164857    28.095261      3474.4879    
      2420   4.84           348.90352      135715.86     -807622.82     -300.76038      0.35940909     0.057224115    28.106965      3474.122     
      2430   4.86           361.27614      139055.31     -807622.73     -302.52972      0.35937446     0.057566305    28.065127      3473.7774    
      2440   4.88           351.86897      138036.1      -807622.85     -301.17878      0.35933967     0.057314792    28.12013       3473.4049    
      2450   4.9            349.28134      137589.44     -807622.25     -301.46104      0.35930475     0.057374081    28.118136      3473.0336    
      2460   4.92           353.98698      134233.83     -807626.45     -297.8733       0.35926969     0.056696796    28.087694      3472.6776    
      2470   4.94           360.73975      130677.93     -807631.62     -293.64383      0.35923448     0.055897243    28.081321      3472.3248    
      2480   4.96           344.21964      132557.58     -807628.99     -293.96903      0.35919913     0.055964654    28.056692      3471.9843    
      2490   4.98           353.255        132495.07     -807628.49     -295.86351      0.35916364     0.056330883    28.081301      3471.6315    
      2500   5              341.58389      136361.68     -807622.77     -299.86303      0.35912801     0.057098034    28.089383      3471.2746    
[...]
     98740   197.48         330.2086       134569.05     -807624.78     -9671.6411      0.36236891     0.0570357      30.092583      43.016389    
     98750   197.5          350.55737      136309.76     -807626.9      -9694.7154      0.36238762     0.057168824    30.111543      42.674872    
     98760   197.52         353.34075      133540.43     -807629.23     -9636.8826      0.36240618     0.056824879    30.066763      42.333362    
     98770   197.54         342.48381      135353.12     -807626.47     -9677.9334      0.36242459     0.057064039    30.078568      41.991853    
     98780   197.56         343.16202      133958.26     -807627.84     -9642.1734      0.36244287     0.056850321    30.123688      41.650339    
     98790   197.58         343.2834       135172.41     -807627.51     -9652.5963      0.362461       0.056908927    30.10851       41.30883     
     98800   197.6          338.2494       134249.59     -807627.35     -9638.3873      0.36247899     0.056822336    30.142941      40.967317    
     98810   197.62         339.97417      135999.62     -807626.66     -9665.3143      0.36249683     0.056978276    30.098529      40.625813    
     98820   197.64         328.49483      136465.01     -807623.89     -9700.9804      0.36251453     0.05718574     30.087354      40.284311    
     98830   197.66         340.97345      133770.07     -807626.47     -9671.9981      0.36253209     0.057012132    30.068518      39.942815    
     98840   197.68         348.79594      135942.11     -807626.79     -9688.3806      0.36254951     0.057105956    30.04361       39.601323    
     98850   197.7          346.46102      134126.45     -807627.82     -9643.2709      0.36256678     0.05683736     30.045551      39.259832    
     98860   197.72         329.74943      136882.34     -807622.53     -9727.4168      0.36258391     0.057330606    30.05474       38.918343    
     98870   197.74         348.19358      133296.54     -807628.37     -9618.5965      0.3626009      0.056686595    30.080293      38.576851    
     98880   197.76         340.41077      135685.32     -807625.28     -9671.7482      0.36261774     0.056997193    30.040962      38.235367    
     98890   197.78         343.67632      133857.01     -807625.44     -9675.5618      0.36263445     0.057017041    30.008871      37.893888    
     98900   197.8          344.3901       137740.35     -807623.57     -9726.027       0.362651       0.05731181     30.059252      37.552405    
     98910   197.82         358.54356      133277.12     -807628.71     -9618.833       0.36266742     0.056677591    30.089029      37.21092     
     98920   197.84         357.5244       136890.42     -807626.48     -9674.3873      0.36268369     0.057002379    30.067388      36.869439    
     98930   197.86         343.70288      134446.24     -807624.3      -9678.2993      0.36269982     0.057022893    30.06831       36.52796     
     98940   197.88         349.93719      137109.47     -807624.12     -9700.1727      0.36271581     0.057149249    30.075523      36.186482    
     98950   197.9          341.02167      134388.97     -807625.85     -9599.4375      0.36273165     0.05655329     30.087613      35.845005    
     98960   197.92         355.76755      136798.49     -807625.14     -9679.1921      0.36274735     0.057020681    30.105535      35.503527    
     98970   197.94         353.12727      134699.65     -807625        -9669.3657      0.36276291     0.05696035     30.107985      35.162051    
     98980   197.96         362.2461       137154        -807624.59     -9713.2935      0.36277832     0.05721669     30.065633      34.820581    
     98990   197.98         349.71783      134325.74     -807626.16     -9605.5063      0.36279359     0.056579381    30.022204      34.479118    
     99000   198            347.02215      137042        -807623.19     -9681.4961      0.36280872     0.057024607    30.073489      34.137651    
     99010   198.02         352.40779      134621.2      -807623.95     -302.56235      0.3628237      0.057025191    30.154571      33.796177    
     99020   198.04         344.00588      138050.34     -807621.27     -303.92702      0.36283855     0.057280053    30.177552      33.454703    
     99030   198.06         350.86526      136008.31     -807625.02     -301.1257       0.36285324     0.0567498      30.179346      33.11323     
     99040   198.08         372.97806      135841.07     -807627.1      -301.95091      0.3628678      0.056903035    30.146267      32.771763    
     99050   198.1          362.68786      134312.63     -807625.03     -302.61991      0.36288221     0.057026843    30.126166      32.4303      
     99060   198.12         358.31077      135408.17     -807624.15     -302.80687      0.36289648     0.057059832    30.053226      32.088846    
     99070   198.14         355.85128      134510.09     -807625.96     -300.66681      0.36291061     0.056654361    30.077545      31.747392    
     99080   198.16         359.60179      136069.53     -807625.91     -301.23805      0.36292459     0.056759813    30.092747      31.405938    
     99090   198.18         349.44512      136371.43     -807621.92     -303.85792      0.36293843     0.05725127     30.113241      31.064484    
     99100   198.2          352.51245      136496.64     -807622.58     -303.66406      0.36295213     0.057212584    30.028091      30.72304     
     99110   198.22         350.19614      136997.15     -807623.68     -302.26144      0.36296568     0.056946193    30.034056      30.381598    
     99120   198.24         366.14609      135307.68     -807625.96     -302.25651      0.36297909     0.056943161    30.089042      30.040151    
     99130   198.26         359.83502      136377.85     -807623.91     -303.52255      0.36299236     0.057179584    30.092748      29.698706    
     99140   198.28         354.6403       135170.49     -807625.06     -301.83776      0.36300548     0.056860137    30.031952      29.357269    
     99150   198.3          358.36773      135790.88     -807625.66     -301.80629      0.36301846     0.056852175    30.074613      29.01583     
     99160   198.32         352.26677      134819.31     -807626.14     -300.7165       0.3630313      0.056644885    30.095278      28.67439     
     99170   198.34         345.1889       137685.68     -807622.23     -303.80813      0.36304399     0.057225244    30.13529       28.332949    
     99180   198.36         342.21476      135613.78     -807622.75     -303.13285      0.36305655     0.057096074    30.210541      27.991502    
     99190   198.38         345.66479      137477.92     -807623.11     -303.44282      0.36306895     0.057152505    30.171257      27.650061    
     99200   198.4          354.35618      134671.28     -807626.39     -301.63368      0.36308122     0.05680984     30.140371      27.308625    
     99210   198.42         359.47341      136659.4      -807624.39     -304.59985      0.36309334     0.057366574    30.147911      26.967191    
     99220   198.44         346.65963      133864.55     -807625.5      -302.11784      0.36310532     0.05689725     30.117915      26.62576     
     99230   198.46         358.11006      135653.72     -807627.54     -301.81618      0.36311715     0.056838587    30.109517      26.284333    
     99240   198.48         344.50359      133782.21     -807627.5      -300.41963      0.36312885     0.056573764    30.128626      25.942906    
     99250   198.5          352.05772      136952.56     -807624.54     -304.71781      0.3631404      0.057381355    30.114678      25.601481    
     99260   198.52         335.36473      134750.65     -807624.52     -302.75364      0.3631518      0.057009691    30.099358      25.26006     
     99270   198.54         340.86389      137127.41     -807625.55     -302.67328      0.36316306     0.056992792    30.108928      24.91864     
     99280   198.56         340.5929       135421.45     -807625.83     -302.65814      0.36317418     0.056988195    30.086146      24.577224    
     99290   198.58         355.25881      136429.71     -807626.25     -304.47931      0.36318516     0.057329375    30.068379      24.235811    
     99300   198.6          336.23245      134706.1      -807625.3      -302.93325      0.36319599     0.057036573    30.066454      23.8944      
     99310   198.62         338.5129       135973.67     -807626.98     -301.63667      0.36320668     0.05679078     30.104358      23.552987    
     99320   198.64         348.92761      134373.29     -807629.27     -301.00685      0.36321723     0.056670554    30.108722      23.211577    
     99330   198.66         334.82117      135762.71     -807624.73     -303.65041      0.36322763     0.057166619    30.111769      22.870168    
     99340   198.68         339.26601      135584.41     -807625.85     -303.16102      0.36323789     0.057072873    30.102406      22.528761    
     99350   198.7          337.55801      135037.76     -807626.51     -302.25925      0.36324801     0.05690152     30.140521      22.187354    
     99360   198.72         338.8523       136064.05     -807625.29     -303.60618      0.36325798     0.057153516    30.176189      21.845946    
     99370   198.74         340.86347      134735.01     -807625.23     -303.99151      0.36326781     0.057224507    30.114049      21.504544    
     99380   198.76         351.50072      135662.91     -807627.23     -303.34694      0.3632775      0.057101648    30.081371      21.163146    
     99390   198.78         333.80248      133748.33     -807627.04     -301.00839      0.36328704     0.056659953    30.055003      20.821752    
     99400   198.8          347.02949      136229.37     -807625.94     -303.79487      0.36329644     0.057182983    30.055981      20.48036     
     99410   198.82         338.76415      133795.21     -807625.93     -302.68553      0.3633057      0.056972722    30.102621      20.138966    
     99420   198.84         344.824        137919.33     -807624.8      -304.43588      0.36331481     0.057300742    30.11332       19.797574    
     99430   198.86         346.02474      133453.85     -807628.71     -300.67443      0.36332378     0.056591367    30.102248      19.456184    
     99440   198.88         339.5437       138396.08     -807623.44     -304.79431      0.36333261     0.057365395    30.111085      19.114796    
     99450   198.9          329.96925      134258.58     -807624.62     -302.39895      0.36334129     0.056913204    30.114904      18.773409    
     99460   198.92         347.277        136718.28     -807625.68     -303.44732      0.36334983     0.057109172    30.153686      18.432021    
     99470   198.94         349.14207      131824.91     -807629.12     -300.25268      0.36335823     0.056506629    30.12494       18.090638    
     99480   198.96         334.3428       138122.06     -807622.65     -304.46062      0.36336648     0.057297249    30.089387      17.749258    
     99490   198.98         350.1358       133441.51     -807627.28     -302.07603      0.3633746      0.056847218    30.116791      17.407878    
     99500   199            354.76993      137444.67     -807624.83     -304.79797      0.36338256     0.057358199    30.181386      17.066497    
     99510   199.02         347.52466      133580.63     -807627.31     -9645.6005      0.36339039     0.05672224     30.116158      16.725121    
     99520   199.04         335.03874      137743.41     -807621.71     -9761.6999      0.36339807     0.057403765    30.130284      16.383747    
     99530   199.06         353.40856      134383.73     -807626.8      -9683.9715      0.3634056      0.056945501    30.085233      16.042377    
     99540   199.08         344.17701      136411.42     -807624.18     -9718.1188      0.363413       0.057145138    30.111636      15.701007    
     99550   199.1          352.85911      134613.33     -807627.22     -9660.0905      0.36342025     0.056802783    30.069918      15.359641    
     99560   199.12         347.04438      135480.52     -807625.6      -9682.5463      0.36342736     0.056933713    30.011655      15.01828     
     99570   199.14         359.91051      135441.95     -807625.59     -9735.5959      0.36343432     0.057244549    30.019445      14.67692     
     99580   199.16         343.89113      136003.82     -807625.17     -9678.2511      0.36344114     0.056906298    30.050884      14.33556     
     99590   199.18         338.6899       137420.52     -807623.39     -9707.5953      0.36344782     0.057077788    30.056763      13.994202    
     99600   199.2          340.78406      135020.29     -807624.71     -9672.4144      0.36345435     0.056869912    30.107482      13.652843    
     99610   199.22         349.62407      137075.97     -807623.75     -9737.1642      0.36346074     0.057249609    30.162394      13.311483    
     99620   199.24         363.72019      133736.5      -807628.17     -9656.5814      0.36346699     0.056774847    30.112674      12.970128    
     99630   199.26         349.63972      137030.15     -807624.11     -9716.5609      0.3634731      0.05712653     30.085903      12.628776    
     99640   199.28         354.68865      134845.62     -807626.62     -9661.1935      0.36347906     0.056800077    30.094877      12.287425    
     99650   199.3          355.16132      137444.26     -807624.25     -9734.4759      0.36348487     0.057230004    30.074794      11.946077    
     99660   199.32         347.61534      133952.75     -807625.3      -9670.2979      0.36349055     0.056851807    30.079684      11.60473     
     99670   199.34         345.26915      137794.33     -807623.05     -9726.686       0.36349608     0.057182443    30.096243      11.263384    
     99680   199.36         347.5031       134307.6      -807625.84     -9649.2215      0.36350147     0.056726194    30.089602      10.922041    
     99690   199.38         359.46292      136877.02     -807624.87     -9726.135       0.36350671     0.057177531    30.107058      10.580698    
     99700   199.4          363.15632      134085.97     -807627.31     -9666.0264      0.36351181     0.05682337     30.055463      10.23936     
     99710   199.42         359.3797       136443.91     -807624.76     -9725.3367      0.36351677     0.057171256    30.01046       9.8980242    
     99720   199.44         352.13767      134709.33     -807626.33     -9642.9783      0.36352158     0.056686355    30.016481      9.5566901    
     99730   199.46         347.45441      136406.17     -807623.38     -9715.2278      0.36352625     0.05711034     30.049635      9.2153567    
     99740   199.48         345.02241      134992.38     -807623.5      -9699.5698      0.36353078     0.057017586    30.055949      8.8740248    
     99750   199.5          355.10534      136139.22     -807624.83     -9698.7171      0.36353516     0.057011886    30.054902      8.5326946    
     99760   199.52         345.73017      136244.27     -807623.98     -9684.0409      0.3635394      0.056924951    30.056422      8.1913661    
     99770   199.54         348.96946      137116.68     -807623.22     -9719.7697      0.3635435      0.057134329    30.067929      7.8500391    
     99780   199.56         364.45656      135686.89     -807625.28     -9722.6528      0.36354745     0.057150655    30.04009       7.5087145    
     99790   199.58         345.31076      135742.76     -807623.16     -9702.6829      0.36355126     0.057032672    30.022447      7.167392     
     99800   199.6          359.53735      135655.17     -807625.62     -9684.477       0.36355493     0.056925083    30.06267       6.8260702    
     99810   199.62         345.33278      135338.12     -807624.06     -9673.6203      0.36355845     0.056860717    30.093453      6.4847496    
     99820   199.64         361.03439      136128.92     -807624.68     -9722.3732      0.36356183     0.05714675     30.044156      6.1434317    
     99830   199.66         359.07836      135725.46     -807626.47     -9653.6624      0.36356507     0.056742373    30.081555      5.8021149    
     99840   199.68         355.46267      136176.94     -807624.99     -9681.9537      0.36356816     0.05690818     30.018721      5.4608009    
     99850   199.7          356.41933      134963.33     -807624.82     -9692.7703      0.36357111     0.056971295    30.060221      5.1194879    
     99860   199.72         359.8334       137222.45     -807623.54     -9744.5669      0.36357392     0.057275298    30.089463      4.7781761    
     99870   199.74         354.35749      134342.98     -807625.47     -9660.996       0.36357658     0.056783681    30.09          4.4368661    
     99880   199.76         355.61635      136381.22     -807624.45     -9695.9021      0.3635791      0.05698845     30.019061      4.0955589    
     99890   199.78         357.37077      134893.53     -807625.88     -9661.0108      0.36358148     0.056783003    30.030173      3.7542532    
     99900   199.8          353.66758      137066.08     -807623.07     -9733.3722      0.36358371     0.057207959    30.076575      3.4129486    
     99910   199.82         358.24792      134357.27     -807626.38     -9649.1669      0.3635858      0.056712715    30.105317      3.0716456    
     99920   199.84         353.20858      137019.36     -807624.39     -9688.9014      0.36358775     0.056945949    30.096825      2.7303444    
     99930   199.86         353.98515      135603.69     -807624.22     -9701.5941      0.36358955     0.057020267    30.058669      2.3890453    
     99940   199.88         346.85079      137521.59     -807622.52     -9725.3559      0.36359121     0.057159664    30.125358      2.0477475    
     99950   199.9          349.8509       135098.45     -807625.18     -9656.8395      0.36359273     0.05675673     30.097008      1.7064517    
     99960   199.92         356.90101      136155.32     -807625.49     -9679.6496      0.3635941      0.056890579    30.039882      1.365158     
     99970   199.94         347.86416      136444.47     -807623.86     -9698.8016      0.36359533     0.057002949    30.021515      1.0238661    
     99980   199.96         352.44579      136244.91     -807623.74     -9725.3882      0.36359641     0.057159036    30.040657      0.68257569   
     99990   199.98         361.42126      135627.6      -807626.47     -9682.6345      0.36359736     0.056907612    30.086871      0.34128695   
    100000   200            351.40154      136184.88     -807624.77     -9700.6345      0.36359816     0.057013278    30.081277      0            
Loop time of 3412.86 on 32 procs for 100000 steps with 1080 atoms

Performance: 5.063 ns/day, 4.740 hours/ns, 29.301 timesteps/s, 31.645 katom-step/s
61.3% CPU use with 32 MPI tasks x 1 OpenMP threads

MPI task timing breakdown:
Section |  min time  |  avg time  |  max time  |%varavg| %total
---------------------------------------------------------------
Pair    | 2504.3     | 2794.5     | 3112.6     | 264.4 | 81.88
Neigh   | 0.0016425  | 0.0017553  | 0.0019475  |   0.2 |  0.00
Comm    | 227.44     | 545.24     | 835.15     | 598.5 | 15.98
Output  | 2.3279     | 2.3363     | 2.3419     |   0.2 |  0.07
Modify  | 64.119     | 64.75      | 65.404     |   5.0 |  1.90
Other   |            | 6.052      |            |       |  0.18

Nlocal:          33.75 ave          40 max          27 min
Histogram: 2 1 2 7 3 4 6 3 2 2
Nghost:           1028 ave        1046 max        1013 min
Histogram: 1 1 5 7 5 7 3 1 0 2
Neighs:              0 ave           0 max           0 min
Histogram: 32 0 0 0 0 0 0 0 0 0
FullNghs:      5359.62 ave        6414 max        4274 min
Histogram: 2 1 4 4 5 3 6 3 2 2

Total # of neighbors = 171508
Ave neighs/atom = 158.8037
Neighbor list builds = 4
Dangerous builds = 0

Total wall time: 1:00:13
