
units		metal
atom_style	atomic

read_data ${STRUCTURE}.data
read_data BaTiO3-sc333.data
Reading data file ...
  orthogonal box = (0 0 0) to (11.898253 11.898253 12.912076)
  2 by 4 by 4 MPI processor grid
  reading atoms ...
  135 atoms
  read_data CPU = 0.004 seconds
replicate $L $L $L
replicate 2 $L $L
replicate 2 2 $L
replicate 2 2 2
Replication is creating a 2x2x2 = 8 times larger system...
  orthogonal box = (0 0 0) to (23.796507 23.796507 25.824152)
  2 by 4 by 4 MPI processor grid
  1080 atoms
  replicate CPU = 0.003 seconds

pair_style allegro
pair_coeff	* * ${MODEL}.pth Ba Ti O
pair_coeff	* * BaTiO3-E0.pth Ba Ti O
mass 1 137.3
mass 2 47.9
mass 3 15.9994

timestep 0.002
compute polarization all allegro polarization 3
compute allegro will evaluate the quantity polarization of length 3 (src/compute_allegro.cpp:53)
compute polarizability all allegro polarizability 9
compute allegro will evaluate the quantity polarizability of length 9 (src/compute_allegro.cpp:53)

thermo_style custom pe fmax fnorm spcpu cpuremain

variable efield equal 1e-2*36.36
fix born all addbornforce 0.0 0.0 ${efield}
fix born all addbornforce 0.0 0.0 0.3636

thermo 10
min_style fire
#minimize 0.0 1e-6 100 100
velocity all create ${TEMP} ${SEED} dist gaussian rot yes mom yes
velocity all create 350 ${SEED} dist gaussian rot yes mom yes
velocity all create 350 14525 dist gaussian rot yes mom yes
fix nvt all nvt temp ${TEMP} ${TEMP} $(100*dt)
fix nvt all nvt temp 350 ${TEMP} $(100*dt)
fix nvt all nvt temp 350 350 $(100*dt)
fix nvt all nvt temp 350 350 0.2000000000000000111
run 5000
Neighbor list info ...
  update: every = 1 steps, delay = 0 steps, check = yes
  max neighbors/atom: 2000, page size: 100000
  master list distance cutoff = 8
  ghost atom cutoff = 8
  binsize = 8, bins = 3 3 4
  1 neighbor lists, perpetual/occasional/extra = 1 0 0
  (1) pair allegro/kk, perpetual
      attributes: full, newton on, kokkos_device
      pair build: full/bin/kk/device
      stencil: full/bin/3d
      bin: kk/device
Per MPI rank memory allocation (min/avg/max) = 3.516 | 3.516 | 3.516 Mbytes
    PotEng          Fmax          Fnorm          S/CPU         CPULeft    
-807708.29      1.5955074      37.041346      0              0            
-807644.69      3.468327       45.603557      2.6734181      1866.5253    
-807633.09      2.4395663      36.099737      25.827717      1027.8004    
-807608.17      3.1974127      36.821376      25.843786      747.92748    
-807602.66      4.0164515      49.675291      25.805262      607.86917    
-807566.79      3.6696495      40.01603       25.762216      523.74327    
-807597.56      2.9227979      39.735874      25.840195      467.43354    
-807644.34      3.6379035      34.354199      25.825597      427.11708    
-807680.35      2.4503799      34.845854      25.821872      396.7864     
-807663.69      3.5329155      35.822158      25.818864      373.11227    
-807649.36      5.2024356      36.872505      25.856172      354.06812    
-807659.06      3.2228639      29.621487      25.833948      338.43101    
-807624.08      4.7606864      33.813729      25.833328      325.33595    
-807582.78      3.7807087      42.362183      25.816424      314.20544    
-807563.95      4.7456192      40.863542      25.859544      304.58728    
-807628.59      3.8874811      36.678087      25.824489      296.21693    
-807647.58      4.7550231      33.892233      25.777063      288.86603    
-807659.88      2.9604277      35.939341      25.782999      282.33176    
-807642.13      5.3576936      46.836535      25.8375        276.45852    
-807676.76      3.1826338      37.981297      25.796977      271.17818    
-807638.95      4.1165308      41.928672      25.77433       266.39526    
-807614.48      3.0468055      40.023404      25.83833       262.00899    
-807561.63      4.7917058      47.151585      25.86858       257.97647    
-807600.42      4.1568328      50.301478      25.796271      254.28344    
-807607.82      4.1923254      40.19402       25.745559      250.88102    
-807636.9       3.0985153      36.310798      25.838092      247.69327    
-807640.45      4.5984413      44.895919      25.861819      244.71451    
-807677.4       2.9058011      38.173173      25.806909      241.94216    
-807661.58      2.9323502      35.535171      25.777392      239.34764    
-807634.48      3.8298001      34.073449      25.846702      236.88841    
-807609.9       3.2145584      34.172968      25.867103      234.56254    
-807601.19      3.83097        42.110551      25.838432      232.36828    
-807593.92      3.5113737      38.654802      25.757063      230.30485    
-807601.54      3.1445482      36.285759      25.836194      228.32612    
-807639.71      3.3316383      32.494864      25.838885      226.44048    
-807666.33      2.8550768      34.599144      25.84186       224.63986    
-807672.3       3.4173387      35.621052      25.766542      222.93237    
-807640.48      4.7190671      41.952743      25.840801      221.28223    
-807647.32      3.1744174      33.492368      25.831216      219.70034    
-807618.89      4.0753529      36.895007      25.839085      218.17831    
-807599.3       4.0967975      44.400383      25.787397      216.72195    
-807565.61      3.7880135      43.666768      25.839691      215.30894    
-807617.15      2.860281       38.096722      25.856298      213.94207    
-807641.92      3.7966983      37.545836      25.77047       212.63448    
-807667.58      2.8553164      36.366182      25.735697      211.37412    
-807638.64      5.2257974      47.044318      25.786696      210.14473    
-807662.53      3.0827732      36.881598      25.823567      208.94648    
-807644.52      3.8396096      37.572125      25.818975      207.78339    
-807621.3       3.5195247      38.606882      25.841851      206.6494     
-807565.27      5.2696762      44.565006      25.824424      205.54831    
-807593.97      4.0064341      44.177572      25.83756       204.474      
-807616.18      4.2707775      37.608839      25.759857      203.43692    
-807648.77      3.6277819      34.111166      25.780376      202.42214    
-807638.59      4.6701382      41.563903      25.824205      201.42545    
-807665.44      3.0506459      35.090818      25.833323      200.45021    
-807662.51      3.211904       34.630286      25.744494      199.50717    
-807640.55      3.3452529      32.615902      25.788112      198.57872    
-807600.88      4.0950065      37.093252      25.854468      197.66151    
-807590.17      3.9567195      39.849697      25.855495      196.76247    
-807599.9       4.1734691      43.469938      25.736743      195.89414    
-807611.7       4.2536199      36.099118      25.792363      195.03565    
-807630.29      4.1023619      35.771438      25.857008      194.18563    
-807654.49      4.5126676      37.504561      25.845699      193.35175    
-807670.12      3.2811468      38.090513      25.770516      192.53988    
-807644.26      5.1372209      40.420052      25.757614      191.74258    
-807630.76      3.9058036      36.149372      25.857783      190.9478     
-807610.68      4.0715597      37.777682      25.854403      190.16573    
-807601.36      4.3082713      45.701286      25.779374      189.40273    
-807576.75      4.1400061      42.148194      25.782888      188.65042    
-807606.44      4.1341012      38.930427      25.815875      187.90558    
-807636.96      3.9836187      37.524738      25.844659      187.16831    
-807666.38      3.3527894      37.907123      25.769524      186.44772    
-807647.43      3.9401942      41.639306      25.751745      185.73796    
-807648.18      5.6237794      38.212978      25.817681      185.0312     
-807640.32      3.2273278      35.674921      25.829469      184.33206    
-807623.63      3.9979915      38.165618      25.800607      183.6437     
-807580.64      4.0648439      40.191623      25.799538      182.96334    
-807582.35      3.3995474      40.956412      25.812706      182.2895     
-807619.67      3.4195443      34.852881      25.755497      181.62765    
-807649.36      2.9336625      33.585021      25.790737      180.96991    
-807647.6       3.9997255      36.71414       25.844915      180.31465    
-807650.06      3.614937       37.788363      25.778701      179.67116    
-807662.93      3.5000413      34.478979      25.8591        179.02775    
-807641.88      3.300116       34.810132      25.867009      178.38993    
-807606.93      3.4685188      36.70858       25.894488      177.75606    
-807581.9       3.5558059      40.128129      25.926104      177.12572    
-807601.15      3.84512        41.412693      25.861333      176.50573    
-807619.19      4.5210313      35.93829       25.821564      175.89392    
-807633.25      3.572599       35.145046      25.857648      175.28468    
-807644.14      4.5952544      39.277216      25.813022      174.68353    
-807666.86      3.4343925      37.188505      25.832843      174.08578    
-807651.05      3.5905683      37.164971      25.816359      173.49377    
-807630.32      3.6076597      35.365971      25.896558      172.90089    
-807605.05      3.4124957      36.944708      25.8938        172.31263    
-807602.98      3.5815901      43.065704      25.907307      171.7278     
-807592.41      3.4899448      39.582584      25.852092      171.15068    
-807609.55      3.45031        37.533319      25.86614       170.57663    
-807633.58      4.4548782      36.587527      25.832368      170.00855    
-807662.85      2.6638507      36.104636      25.80097       169.4461     
-807656.08      3.8326986      36.89869       25.809323      168.88666    
-807644.25      3.6589157      35.87809       25.860777      168.32759    
-807634.81      3.5976158      34.108981      25.925231      167.76813    
-807620.98      3.0734679      36.277259      25.89498       167.21384    
-807594.49      3.0063201      38.347261      25.811984      166.66759    
-807584.36      3.6458842      39.840101      25.855509      166.12192    
-807615.85      3.6403377      35.235217      25.788521      165.58305    
-807647.83      3.289694       34.588712      25.789266      165.047      
-807655.46      3.4482629      35.325099      25.773963      164.51455    
-807643.92      3.4783122      38.901525      25.863557      163.97991    
-807652.06      2.8733918      35.263619      25.885449      163.44681    
-807640.38      3.6057991      34.625324      25.884532      162.91643    
-807613.08      3.4650961      36.322605      25.056344      162.43339    
-807577.4       3.8226515      41.361609      25.905344      161.90654    
-807599.19      3.9491862      40.230194      12.204592      162.86629    
-807620.55      4.7718544      37.621207      17.414217      162.96485    
-807642.24      3.1576035      35.266566      18.663522      162.92303    
-807638.24      4.5852019      40.734718      21.17173       162.66256    
-807657.89      3.0402428      37.28815       9.1300924      164.43771    
-807649.97      3.6787848      36.687155      14.949564      164.78394    
-807633.14      3.0194412      34.683631      12.632006      165.50603    
-807598.13      3.6641031      38.228882      25.85389       164.92086    
-807597.61      3.7826079      41.155539      25.733644      164.34464    
-807599.22      4.2177949      39.586501      25.582421      163.77861    
-807616.91      3.5569881      35.99908       18.441484      163.67936    
-807629.16      4.7455155      36.899953      22.920167      163.25167    
-807655.16      4.0337424      35.904883      16.72638       163.30852    
-807655.96      2.7970733      36.150286      20.885705      163.00158    
-807642.82      3.320472       35.852719      25.847846      162.42197    
-807624.33      3.7738998      35.062614      25.904158      161.84292    
-807615.19      3.4988034      36.432265      25.858993      161.26881    
-807597.96      3.5779517      40.419101      25.812348      160.69957    
-807591.79      3.7808091      39.221284      25.836605      160.13208    
-807613.12      3.4052856      35.857688      25.783617      159.56955    
-807643.41      3.2493177      34.22983       25.834116      159.00754    
-807656.06      2.8109868      35.722841      25.861212      158.44705    
-807646.46      3.5687042      38.019896      25.857261      157.88928    
-807642.86      3.7162823      36.008991      25.885369      157.33291    
-807633.54      3.0282673      35.043018      25.815563      156.78179    
-807615         3.161796       37.553808      25.860287      156.23128    
-807588.38      3.2637264      39.434538      25.852611      155.68343    
-807595.14      3.5049139      39.409575      25.767651      155.14116    
-807623.02      3.1498423      34.410208      25.795002      154.60003    
-807646.31      4.1892382      33.867378      25.75395       154.06261    
-807644.55      3.5986548      36.820151      25.695258      153.5295     
-807649.23      3.7009596      36.535275      25.890087      152.99115    
-807645.84      3.6608448      35.144941      25.836586      152.45685    
-807635.04      3.3014895      34.422248      25.827294      151.92491    
-807602.04      3.8508415      36.828036      25.8093        151.39558    
-807593.69      3.7016459      39.654555      25.899547      150.86496    
-807604.3       3.6094626      37.677273      25.876472      150.33709    
-807628.41      3.4146733      34.33679       25.865514      149.81149    
-807632.97      4.3466602      36.476237      25.93708       149.28527    
-807649.38      3.0808437      35.533312      25.867758      148.76326    
-807651.84      3.4828122      36.387968      25.807839      148.24506    
-807645.75      3.3599297      34.841548      25.821718      147.72808    
-807620.69      3.5608726      35.982195      25.8529        147.21174    
-807607.42      3.8869092      36.753435      25.936629      146.69431    
-807600.18      3.5666865      39.491068      25.888337      146.18013    
-807605.66      3.1299087      36.828201      25.815456      145.66993    
-807618.43      4.4579633      35.067054      25.901956      145.1585     
-807638.56      3.4236         35.014124      25.920341      144.64805    
-807654.55      3.0577447      35.379949      25.780711      144.14356    
-807649.32      3.404935       35.782686      25.831389      143.63891    
-807637.31      3.6953469      35.683032      25.82054       143.13604    
-807624.36      3.2651239      34.133233      25.850235      142.63368    
-807616.39      3.2399443      36.941548      25.87166       142.13206    
-807594.67      3.1264396      38.236291      25.859428      141.63219    
-807598.45      3.3031794      38.037387      25.851808      141.13391    
-807621.43      3.4597538      36.015621      25.892335      140.63576    
-807646.76      3.0116533      35.981638      25.852191      140.1401     
-807646.43      4.2879156      37.200289      25.862749      139.64543    
-807641.97      3.0639361      36.550407      25.833188      139.15286    
-807639.7       3.7653623      35.110306      25.840615      138.66131    
-807634.26      3.1177102      35.312368      25.854814      138.17057    
-807604.91      3.5182611      36.472508      25.849124      137.68118    
-807590.96      3.9003849      39.341107      25.892138      137.19177    
-807605.81      3.0174951      36.55114       25.828929      136.70527    
-807631.23      3.5496934      35.103471      25.874657      136.21865    
-807636.14      3.3914758      35.476721      25.865248      135.73341    
-807642.95      2.5386892      35.592518      25.858125      135.24946    
-807648.38      2.816279       34.733578      25.827694      134.7674     
-807643.23      2.976974       34.813589      25.844626      134.28594    
-807621.22      4.3356383      35.147765      25.81024       133.80642    
-807600.81      2.8288905      37.105635      25.778534      133.32873    
-807598.61      3.6389489      37.490635      25.880812      132.84938    
-807611.49      3.5690823      38.184689      25.850034      132.37183    
-807620.93      3.3282589      35.834089      25.877617      131.89455    
-807634.45      4.3869441      36.151148      25.891876      131.41789    
-807649.23      3.6639629      36.210962      25.845182      130.94334    
-807647.38      3.6186248      36.998665      25.788335      130.47113    
-807634.3       3.5843625      36.33581       25.828267      129.99883    
-807615.94      4.0696139      36.760702      25.905297      129.52556    
-807609.55      3.8098229      37.347452      25.92029       129.05284    
-807599.85      3.7688521      39.362102      25.816485      128.58349    
-807604.97      3.6391864      37.574578      25.832247      128.11461    
-807619.18      4.9048189      36.382586      25.799116      127.64734    
-807641.87      3.6289397      35.500063      25.789608      127.18111    
-807645.72      4.0685715      36.556263      25.811794      126.71517    
-807641.73      3.2994826      36.3234        25.859194      126.24893    
-807629.34      4.2056571      36.949089      25.895332      125.78268    
-807627.75      3.2239074      35.52643       25.887752      125.3174     
-807604.71      3.6428955      37.443893      25.898128      124.85267    
-807598.91      3.6681129      38.738964      25.888744      124.38893    
-807605.17      3.2300081      36.685204      25.916771      123.92534    
-807630.72      2.9944202      35.550832      25.883072      123.46324    
-807637.37      4.510431       36.009321      25.892714      123.00168    
-807644.35      2.9141801      35.303239      25.909014      122.54049    
-807639.19      2.5516349      35.841848      25.852625      122.08123    
-807640.41      2.885455       34.465306      25.816373      121.62343    
-807621.25      3.0855044      35.113584      25.875036      121.16507    
-807604.59      3.6525627      36.731127      25.928203      120.70631    
-807599.5       3.3405421      37.969688      25.901852      120.24878    
-807617.26      3.2779044      36.56769       25.86039       119.79276    
-807629.09      2.9814037      35.002753      25.902026      119.33656    
-807636.68      3.3613788      35.769523      25.881963      118.88141    
-807644.14      4.0223626      36.119364      25.854623      118.42744    
-807643.56      3.5495768      35.87927       25.850314      117.97418    
-807636.74      3.0497177      34.556208      25.915659      117.52026    
-807612.57      3.7585822      37.16166       25.963677      117.06604    
-807606.01      3.3624347      37.693114      25.9684        116.61237    
-807606.2       3.508417       37.374335      25.927635      116.16008    
-807616.69      2.8506719      36.104867      25.919234      115.70856    
-807623.62      3.1348101      36.406085      25.879848      115.25836    
-807643.13      3.2219875      35.022202      25.910833      114.80817    
-807645.86      3.4865309      36.344656      25.865472      114.35938    
-807642.96      3.4252285      35.039184      25.898208      113.91054    
-807625.86      3.4742828      35.455213      25.886062      113.46248    
-807620.74      3.1902646      34.854275      25.932261      113.01414    
-807606.09      3.6678507      37.375477      25.915978      112.56663    
-807604.78      3.2329137      38.143205      25.868328      112.12051    
-807613.27      4.2650514      35.724462      25.90908       111.67419    
-807632.24      2.708315       34.492542      25.910683      111.22836    
-807643.26      3.2235558      35.581589      25.927241      110.78277    
-807645.46      2.7653591      35.138732      25.912156      110.33794    
-807636.08      3.6136966      35.619178      25.924922      109.89341    
-807631.6       3.0395889      34.827812      25.87902       109.45014    
-807620.24      3.1753948      35.449832      25.912343      109.0068     
-807604.44      3.0919327      37.115272      25.927429      108.5637     
-807602.3       4.2818824      37.494326      25.909792      108.12137    
-807619.08      3.1270894      35.894559      25.866155      107.68022    
-807632.46      3.4086191      35.792808      25.863688      107.23957    
-807638.58      3.0215985      36.20788       25.854627      106.79951    
-807640.11      3.0767282      36.647933      25.865388      106.35972    
-807639.5       3.279803       36.19041       25.87166       105.92026    
-807631.43      3.7030504      36.022371      25.85178       105.48156    
-807612.51      3.6127163      37.471128      25.909136      105.04238    
-807600.52      3.9131466      39.961473      25.925142      104.6034     
-807609.41      3.2014355      37.83103       25.917643      104.16495    
-807619.64      3.1061492      36.712132      25.895135      103.72728    
-807627.18      4.0107103      36.8231        25.901389      103.28992    
-807637.43      3.0607259      36.010611      25.929053      102.85256    
-807644.65      3.9607675      36.545061      25.919051      102.41576    
-807638.68      3.8954925      36.200608      25.918859      101.97937    
-807622.96      3.6942173      36.867676      25.882052      101.54391    
-807610.63      3.019389       36.678795      25.899678      101.10858    
-807605.72      3.5788086      38.668399      25.872577      100.67403    
-807606.79      2.9534853      37.941848      25.91231       100.23929    
-807615.29      2.9600663      36.66947       25.928678      99.804702    
-807630.52      3.8835698      35.530696      25.921341      99.370593    
-807641.22      3.6761499      36.790679      25.883072      98.937389    
-807643.1       3.9098946      36.247339      25.863417      98.504815    
-807634.88      3.81434        35.542772      25.851574      98.072755    
-807623.29      3.0227309      36.417026      25.899524      97.640391    
-807615.53      3.2567268      36.650009      25.928363      97.207991    
-807606.64      2.7860495      37.090878      25.920956      96.776043    
-807606.74      2.9577616      36.43656       25.878969      96.345       
-807619.98      2.8936214      35.099016      25.865463      95.914468    
-807635.93      3.7065532      35.408897      25.828747      95.484746    
-807641.33      2.7983062      36.181849      25.826692      95.055368    
-807641.21      3.7586288      34.934124      25.889173      94.625501    
-807634.5       2.8525819      35.713547      25.880245      94.19607     
-807627.79      3.2635998      35.893389      25.894872      93.766773    
-807613.49      3.3725403      36.7922        25.90711       93.33764     
-807602.49      3.5294721      38.040191      25.920561      92.908655    
-807611.12      3.614586       37.230315      25.912492      92.480087    
-807624.61      3.1966796      36.350339      25.835564      92.052768    
-807635.23      3.4637228      35.80957       25.862589      91.625412    
-807638.42      3.7525362      36.797411      25.879927      91.198142    
-807642.81      3.1341837      36.025944      25.85317       90.771485    
-807637.42      2.5534779      35.043508      25.804355      90.345694    
-807622.96      3.5669706      36.691905      25.916174      89.918862    
-807609.42      2.8375548      36.141789      25.938395      89.492064    
-807608.19      3.8542607      37.694447      25.920016      89.06577     
-807615.59      2.9378475      35.744208      25.889824      88.640107    
-807625.87      3.0921463      34.795101      25.867541      88.214975    
-807633.18      3.402778       35.840374      25.86385       87.790155    
-807643.08      3.7567897      35.778114      25.870243      87.36553     
-807643.27      3.933836       35.978049      25.868261      86.941193    
-807634.3       3.5017507      35.715548      25.886351      86.516919    
-807617.36      3.571215       36.786313      25.900928      86.09275     
-807612.73      3.4681834      37.091681      25.966784      85.668133    
-807609.98      3.5449756      37.974039      25.921757      85.244269    
-807612.43      3.4466516      37.315275      25.940251      84.820469    
-807623.38      3.4371443      36.938046      25.89246       84.397435    
-807636.42      3.5269822      35.615539      25.819584      83.975414    
-807643.35      3.1710093      36.254074      25.857979      83.553229    
-807638.35      3.377689       35.235161      25.865756      83.131203    
-807630.79      3.6660917      35.156947      25.893406      82.709133    
-807620.77      3.3895225      35.684207      25.935628      82.286879    
-807613.06      3.6200314      36.717125      25.929428      81.864931    
-807607.13      3.2102572      36.754946      25.933077      81.443189    
-807612.26      3.054801       37.021663      25.905394      81.02196     
-807625.25      3.4742104      36.420001      25.888069      80.601134    
-807637.96      2.7128999      36.056855      25.851643      80.180889    
-807638.54      3.3640219      37.074092      25.89674       79.76043     
-807636.95      4.5853535      37.012083      25.88974       79.340262    
-807630.86      3.7169638      36.746729      25.888331      78.92033     
-807620.56      3.3798444      36.919576      25.894871      78.500555    
-807607.46      3.3788773      37.635751      25.925193      78.080717    
-807607.73      3.3838386      37.727379      25.935017      77.66101     
-807613.46      3.9616888      37.827478      25.898698      77.241854    
-807628.19      3.6320093      35.572387      25.843151      76.823415    
-807634         3.0095594      36.616288      25.809857      76.405478    
-807639.31      3.3237533      36.785576      25.813063      75.987708    
-807637.35      3.2578349      37.069199      25.891917      75.569432    
-807630.71      3.127362       36.313764      25.87403       75.151517    
-807617.55      3.2832184      36.982599      25.915081      74.733444    
-807606.38      4.0413194      37.60588       25.918881      74.315541    
-807608.95      3.4324822      37.944767      25.907124      73.897941    
-807616.28      4.1278341      37.540199      25.863355      73.480909    
-807626.46      3.3767785      35.979565      25.860389      73.064092    
-807634.19      3.7497767      36.357633      25.882963      72.647275    
-807642.46      3.3757178      36.192698      25.913618      72.230394    
-807639.39      3.2180956      36.191105      25.928662      71.813582    
-807630.41      3.288666       35.663669      25.935012      71.396912    
-807618.18      3.429088       36.096744      25.911179      70.980623    
-807611.95      3.5171809      36.441284      25.925202      70.56441     
-807610.49      3.3295655      37.037799      25.913261      70.148477    
-807619.05      3.2393651      35.588181      25.863808      69.733114    
-807626.72      3.3626155      35.351134      25.873052      69.317854    
-807639.45      3.1151724      34.905628      25.90658       68.90251     
-807641.89      4.3138885      36.633282      25.927254      68.487187    
-807636.47      3.391277       35.91493       25.930653      68.072016    
-807627.43      3.4910612      36.40286       25.947631      67.656896    
-807620.53      3.9417784      36.105759      25.924475      67.242126    
-807612.94      3.3891026      37.304666      25.92431       66.827529    
-807608.53      3.7337343      37.780881      25.900263      66.41328     
-807620.64      3.1353239      35.834011      25.916784      65.999078    
-807631.54      3.3872024      35.812327      25.868238      65.585392    
-807639.74      3.6636541      35.659691      25.889281      65.171716    
-807637.14      4.0378962      36.922584      25.917103      64.758006    
-807636.77      3.3303314      35.675333      25.899626      64.344581    
-807628.13      3.2524078      36.032332      25.87143       63.93151     
-807618.25      3.0523167      36.545529      25.866453      63.518628    
-807606.9       3.2040615      38.087275      25.916179      63.105563    
-807612.89      3.1198369      37.857956      25.853146      62.693077    
-807621.73      3.5739496      37.127309      25.868752      62.280637    
-807632.24      4.4002727      36.255489      25.897321      61.868157    
-807636.78      4.4476988      36.734197      25.903159      61.455791    
-807639.7       3.3178236      35.51432       25.915991      61.043493    
-807635.83      3.312865       35.580954      25.927766      60.631271    
-807626.54      2.5073904      35.330835      25.91192       60.2193      
-807613.37      3.8432465      36.005739      25.872926      59.807722    
-807609.92      3.803091       36.67377       25.910049      59.396055    
-807612.85      3.358712       36.654256      25.90389       58.984571    
-807622.07      3.3945658      35.843885      25.922978      58.573115    
-807629.69      3.4100089      35.911581      25.881269      58.162055    
-807638.79      3.1301589      35.184593      25.920307      57.750899    
-807639.3       4.0143287      36.67011       25.856531      57.340263    
-807632.75      3.1657633      36.242779      25.854846      56.929769    
-807623.17      3.5406171      36.688826      25.912192      56.519075    
-807614.08      3.1254696      36.634272      25.873183      56.108742    
-807611.15      3.6501546      37.513393      25.826696      55.698806    
-807611.09      3.1256306      37.26105       25.803104      55.289129    
-807622.63      3.2944561      36.473338      25.882322      54.879129    
-807630.35      3.4262792      36.597991      25.907532      54.469121    
-807638.9       4.4064791      36.541804      25.866308      54.059469    
-807637.17      3.6911673      36.648898      25.878645      53.649876    
-807631.38      3.357705       36.952593      25.912079      53.24023     
-807620.15      3.8295035      37.520426      25.846781      52.831058    
-807615.13      3.4111078      37.088243      25.922945      52.421608    
-807609.3       4.014998       37.006571      25.930522      52.012246    
-807613.91      3.0721083      36.903945      25.875451      51.603294    
-807623.53      4.2011731      35.786974      25.786119      51.194918    
-807634.3       2.8060024      34.848748      25.831999      50.786421    
-807636.88      3.6687743      35.616161      25.864135      50.377877    
-807635.85      2.9547733      35.40393       25.881232      49.969366    
-807630.79      2.9132615      35.475388      25.841043      49.561167    
-807625.2       3.7798919      35.146801      25.858119      49.152999    
-807612.97      2.925072       36.102701      25.855042      48.744959    
-807610.39      3.1242731      37.215851      25.813966      48.337225    
-807616.22      3.280326       36.572174      25.817801      47.929579    
-807626.16      3.0523732      35.99615       25.873927      47.521781    
-807631.46      4.1962673      36.908748      25.904874      47.113952    
-807636.28      2.9375255      36.315839      25.819412      46.706624    
-807636.63      3.5273912      35.775598      25.858632      46.299223    
-807632.03      3.6528188      35.862126      25.910931      45.8917      
-807621.29      3.1390555      36.638459      25.929292      45.484208    
-807612         3.0956177      37.544708      25.919284      45.076872    
-807612.24      3.146721       37.358832      25.873342      44.669842    
-807617.75      3.3476214      36.281816      25.864775      44.262953    
-807625.56      3.6851284      37.070524      25.844051      43.856254    
-807633.81      2.8103986      35.744021      25.867705      43.449559    
-807638.24      2.7285374      35.537357      25.848624      43.043043    
-807636.2       2.8517518      35.257726      25.858212      42.636589    
-807629.18      3.3457407      35.195878      25.846137      42.230283    
-807619.17      2.9957107      36.007598      25.858334      41.824027    
-807613.18      2.7727286      36.002         25.883997      41.41777     
-807612.18      2.6129994      35.84544       25.896305      41.011565    
-807616.98      3.044319       36.269185      25.889047      40.605489    
-807629.27      2.870125       34.457564      25.919449      40.199399    
-807636.9       2.7646868      35.666355      25.879946      39.793555    
-807638.09      3.1996437      34.859561      25.890957      39.387767    
-807636.32      2.7353852      34.247007      25.856881      38.9822      
-807628.16      3.9903238      35.229149      25.856526      38.576726    
-807618.78      3.09203        36.070431      25.85549       38.171349    
-807610.59      4.4751853      37.186187      25.806857      37.766232    
-807612.77      3.1914376      36.39913       25.759157      37.361366    
-807619.86      3.8846964      35.864849      25.814008      36.956396    
-807630.74      3.1388758      35.304324      25.829804      36.551458    
-807634.44      3.8626586      36.472138      25.808894      36.146677    
-807638.51      2.7870576      35.029073      25.803485      35.741997    
-807633.19      3.616296       36.410091      25.875325      35.33717     
-807627.21      3.0708649      35.401663      25.916385      34.932304    
-807618.39      3.7372602      36.439485      25.897363      34.527588    
-807612.41      2.9538822      36.184789      25.83115       34.123164    
-807613.88      2.8993782      36.192122      25.834748      33.718813    
-807622.3       2.9102939      35.648075      25.849968      33.314499    
-807630.28      3.0839149      35.097312      25.812528      32.910379    
-807634.57      3.3230687      35.865209      25.846239      32.506241    
-807636.49      3.4077927      36.236413      25.84025       32.102202    
-807633.21      3.7713416      35.428659      25.813268      31.69832     
-807626.52      4.3860486      36.249634      25.826682      31.294479    
-807617.59      3.7702057      35.848883      25.88951       30.890545    
-807612.76      3.7086633      36.922095      25.802378      30.486929    
-807616.17      3.5274038      36.047764      25.842452      30.083282    
-807623.51      3.5710873      35.432145      25.900338      29.679564    
-807630.22      2.725584       35.179567      25.897106      29.275936    
-807636.12      3.4484729      34.337736      25.91843       28.872336    
-807637.58      2.7315634      35.333806      25.859062      28.468966    
-807633.28      3.8654223      35.035915      25.830754      28.065742    
-807625.34      3.8112523      35.728031      25.830782      27.662593    
-807616.68      2.7657454      35.656684      25.842554      27.25949     
-807612.03      3.4127801      37.274229      25.878898      26.856378    
-807614.41      3.195369       37.246639      25.833547      26.453446    
-807621.02      3.4694662      36.973665      25.875895      26.050492    
-807630.07      3.2656734      36.254549      25.954237      25.647442    
-807636.74      4.0687848      36.80072       25.888859      25.244614    
-807635.92      2.7850765      36.003535      25.909051      24.841819    
-807632.19      4.9121878      36.399489      25.900052      24.43912     
-807622.73      3.2144947      36.152603      25.87603       24.036544    
-807615.52      4.4945847      37.250911      25.927597      23.633939    
-807611.32      3.8812625      36.926044      25.92195       23.231421    
-807612.81      4.6145857      37.429828      25.940191      22.828945    
-807624.99      3.8800119      35.463713      25.955799      22.426515    
-807631.74      3.3688096      36.124759      25.831694      22.024391    
-807635.48      3.780735       35.530764      25.876966      21.622253    
-807634.92      3.5064866      35.85693       25.834062      21.220261    
-807630.85      3.2450659      35.563584      25.89305       20.818233    
-807621.9       4.1195254      36.298         25.826333      20.416388    
-807613.68      2.8038745      36.118638      25.816931      20.014625    
-807610.62      3.3722133      37.492565      25.81917       19.612922    
-807616.42      2.6497655      36.93637       25.881784      19.211183    
-807623.83      4.1841205      36.687641      25.903853      18.809478    
-807629.69      3.0087044      36.494394      25.908643      18.407834    
-807633.68      3.6688551      37.134806      25.857624      18.006335    
-807634.53      3.4991609      36.661198      25.851672      17.604909    
-807629.25      3.7031673      36.897615      25.886108      17.203499    
-807621.32      4.004527       37.324889      25.932119      16.802091    
-807615.01      3.378051       37.24338       25.882313      16.400819    
-807613.84      4.0816291      36.892484      25.826538      15.999684    
-807616.19      3.044743       36.600951      25.836698      15.598597    
-807624.36      3.4522977      36.549183      25.79687       15.19762     
-807631.79      3.1650974      36.174248      25.785896      14.796713    
-807636.33      3.4645914      35.866408      25.83832       14.395802    
-807633.26      2.7049706      35.733978      25.838684      13.99495     
-807629.01      3.6289629      35.977466      25.88505       13.594107    
-807623.78      3.0790986      35.269168      25.885724      13.193325    
-807616.15      3.8746426      36.444662      25.908029      12.792583    
-807615.1       2.7529083      35.928658      25.884264      12.391927    
-807619.26      3.4470305      36.21041       25.896033      11.99132     
-807629.69      4.0991272      34.688529      25.881747      11.590788    
-807632.92      3.3793526      35.355433      25.933077      11.190271    
-807635.26      3.6472363      35.582644      25.923011      10.789825    
-807635.89      3.2664376      35.476239      25.923917      10.389441    
-807629.84      3.0157116      36.316942      25.921026      9.9891205    
-807619.9       3.7639001      36.322279      25.91367       9.5888665    
-807616.46      3.4643552      37.402333      25.861332      9.1887104    
-807617.16      4.4026391      37.022945      25.79213       8.7886584    
-807620.94      3.7302791      36.689526      25.781889      8.3886647    
-807627.41      4.0178329      36.809935      25.8377        7.9886866    
-807632.26      3.7025403      36.527359      25.865355      7.588746     
-807636.4       4.3057452      36.24274       25.810286      7.1888915    
-807632.5       4.4027718      36.541604      25.872927      6.7890554    
-807626.19      3.437247       36.450094      25.908779      6.3892566    
-807620.06      3.675447       36.570907      25.858124      5.9895383    
-807617.66      3.1811778      36.254207      25.874932      5.5898662    
-807616.75      4.0416187      36.202689      25.911606      5.1902337    
-807622.61      3.4537665      35.232616      25.903159      4.7906605    
-807630.11      3.3837204      35.289051      25.879399      4.3911505    
-807633.97      3.3207385      35.285961      25.899059      3.9916881    
-807634.34      3.2834863      35.428848      25.880484      3.5922851    
-807631.37      3.0045585      35.156427      25.832255      3.1929467    
-807626.33      3.4675264      36.060181      25.790666      2.7936667    
-807619.96      2.8453691      36.072584      25.815488      2.394429     
-807616.47      3.4630819      36.357761      25.792037      1.9952428    
-807617         2.8133515      36.757622      25.866345      1.5960939    
-807620.82      3.2518652      36.721235      25.892025      1.1969931    
-807629.4       3.2170167      37.181276      25.860118      0.79794601   
-807631.5       4.1585092      37.007426      25.881293      0.39894777   
-807632.44      3.9337311      36.125422      25.903403      0            
Loop time of 199.462 on 32 procs for 5000 steps with 1080 atoms

Performance: 4.332 ns/day, 5.541 hours/ns, 25.067 timesteps/s, 27.073 katom-step/s
75.6% CPU use with 32 MPI tasks x 1 OpenMP threads

MPI task timing breakdown:
Section |  min time  |  avg time  |  max time  |%varavg| %total
---------------------------------------------------------------
Pair    | 100.81     | 144.02     | 192.92     | 312.8 | 72.20
Neigh   | 0          | 0          | 0          |   0.0 |  0.00
Comm    | 3.814      | 52.711     | 95.907     | 517.0 | 26.43
Output  | 0.039548   | 0.04102    | 0.043324   |   0.3 |  0.02
Modify  | 2.293      | 2.3258     | 2.3783     |   1.1 |  1.17
Other   |            | 0.3665     |            |       |  0.18

Nlocal:          33.75 ave          48 max          21 min
Histogram: 8 8 0 0 0 0 0 8 0 8
Nghost:        1106.25 ave        1119 max        1092 min
Histogram: 8 0 8 0 0 0 0 0 8 8
Neighs:              0 ave           0 max           0 min
Histogram: 32 0 0 0 0 0 0 0 0 0
FullNghs:       5494.5 ave        7896 max        3378 min
Histogram: 8 8 0 0 0 0 0 8 0 8

Total # of neighbors = 175824
Ave neighs/atom = 162.8
Neighbor list builds = 0
Dangerous builds = 0

reset_timestep 0


variable interval equal 1000
thermo 10

variable nintervals equal $(v_PERIOD/v_interval)
variable nintervals equal 100
variable efield equal 1e-2*36.36*cos((step/${PERIOD})*2*3.14)
variable efield equal 1e-2*36.36*cos((step/100000)*2*3.14)
fix born all addbornforce 0.0 0.0 v_efield

variable Px equal f_born[1]+c_polarization[1]
variable Py equal f_born[2]+c_polarization[2]
variable Pz equal (f_born[3]+c_polarization[3])/vol
variable pe equal pe

fix aveP all ave/time 1 $(v_interval/2) ${interval} v_efield v_Pz v_pe f_born file Pz.${MODEL}.${STRUCTURE}.${TEMP}.$L.${ITER}
fix aveP all ave/time 1 500 ${interval} v_efield v_Pz v_pe f_born file Pz.${MODEL}.${STRUCTURE}.${TEMP}.$L.${ITER}
fix aveP all ave/time 1 500 1000 v_efield v_Pz v_pe f_born file Pz.${MODEL}.${STRUCTURE}.${TEMP}.$L.${ITER}
fix aveP all ave/time 1 500 1000 v_efield v_Pz v_pe f_born file Pz.BaTiO3-E0.${STRUCTURE}.${TEMP}.$L.${ITER}
fix aveP all ave/time 1 500 1000 v_efield v_Pz v_pe f_born file Pz.BaTiO3-E0.BaTiO3-sc333.${TEMP}.$L.${ITER}
fix aveP all ave/time 1 500 1000 v_efield v_Pz v_pe f_born file Pz.BaTiO3-E0.BaTiO3-sc333.350.$L.${ITER}
fix aveP all ave/time 1 500 1000 v_efield v_Pz v_pe f_born file Pz.BaTiO3-E0.BaTiO3-sc333.350.2.${ITER}
fix aveP all ave/time 1 500 1000 v_efield v_Pz v_pe f_born file Pz.BaTiO3-E0.BaTiO3-sc333.350.2.1

thermo_style custom step time temp press pe f_born v_efield v_Pz spcpu cpuremain

# dump 4a all custom 1000 dump.hyst.${MODEL}.${STRUCTURE}.${TEMP}.$L.${ITER}.bin id type xu yu zu fx fy fz
# dump_modify 4a sort id

fix nvt all nvt temp ${TEMP} ${TEMP} $(100*dt)
fix nvt all nvt temp 350 ${TEMP} $(100*dt)
fix nvt all nvt temp 350 350 $(100*dt)
fix nvt all nvt temp 350 350 0.2000000000000000111

run $(v_PERIOD)
run 100000
WARNING: non-constant efield is experimental, strongly distrust scalar/vector output (src/fix_addbornforce.cpp:193)
Per MPI rank memory allocation (min/avg/max) = 3.516 | 3.516 | 3.516 Mbytes
   Step          Time           Temp          Press          PotEng         f_born        v_efield         v_Pz          S/CPU         CPULeft    
         0   0              343.51181      127807.43     -807632.43     -293.67226      0.3636         0.055231466    0              0            
        10   0.02           351.22231      130666.3      -807631.22     -296.02276      0.36359993     0.055673539    29.289549      3413.8646    
        20   0.04           364.42554      136376.05     -807625.88     -303.19205      0.36359971     0.057021914    29.307636      3412.4604    
        30   0.06           362.16457      140459.76     -807619.12     -309.71792      0.36359935     0.058249304    29.334254      3410.7331    
        40   0.08           361.28791      144198.61     -807615.43     -313.37311      0.36359885     0.058936825    29.267379      3411.6456    
        50   0.1            354.5859       140692.88     -807618.61     -309.40352      0.36359821     0.058190359    29.208117      3413.4422    
        60   0.12           357.10011      137306.53     -807623.32     -305.02838      0.36359742     0.057367638    29.211442      3414.461     
        70   0.14           349.38718      130571.51     -807629.53     -297.91959      0.36359649     0.056030811    29.231582      3414.7542    
        80   0.16           338.42789      129495.89     -807630.73     -295.25279      0.36359541     0.055529419    29.223581      3415.0054    
        90   0.18           340.41794      128237.16     -807632.97     -293.45286      0.36359419     0.055191085    29.262905      3414.6144    
       100   0.2            353.27035      132691.19     -807630.03     -298.28851      0.36359283     0.056100758    29.258211      3414.2884    
       110   0.22           364.10089      136401.02     -807624.96     -305.08367      0.36359132     0.057378999    29.277888      3413.7502    
       120   0.24           343.66842      142187.08     -807616.25     -311.1192       0.36358968     0.058514404    29.225985      3413.7499    
       130   0.26           361.11201      141030.44     -807618.83     -311.17384      0.36358788     0.05852497     29.250733      3413.4747    
       140   0.28           347.67009      141429.61     -807618.97     -309.28186      0.36358595     0.058169439    29.269742      3413.0316    
       150   0.3            362.89426      134922.83     -807626.77     -303.88353      0.36358387     0.057154454    29.240351      3412.8306    
       160   0.32           346.11711      132661.67     -807629.34     -299.15042      0.36358165     0.056264594    29.257027      3412.4904    
       170   0.34           336.18696      128649.2      -807634.25     -293.14691      0.36357928     0.055135805    29.238823      3412.2746    
       180   0.36           343.07772      130709.16     -807633.29     -295.27237      0.36357677     0.05553595     29.266284      3411.8674    
       190   0.38           346.187        131788.31     -807629.8      -299.5855       0.36357412     0.05634759     29.25344       3411.5456    
       200   0.4            348.52552      138137.8      -807622.97     -306.98894      0.36357132     0.057740512    29.237915      3411.3127    
       210   0.42           344.58412      140097.45     -807620.5      -309.28709      0.36356838     0.058173232    29.284331      3410.8113    
       220   0.44           348.06552      142126        -807619.65     -310.84714      0.3635653      0.058467156    29.261918      3410.4433    
       230   0.46           348.78243      138772.94     -807622.12     -308.7541       0.36356207     0.058073991    29.319315      3409.7873    
       240   0.48           344.57863      134938.38     -807627.15     -303.36871      0.3635587      0.057061575    29.254032      3409.4742    
       250   0.5            342.49362      130257.34     -807633.3      -297.05249      0.36355519     0.055874078    29.238876      3409.2291    
       260   0.52           332.58815      128146.86     -807635.33     -293.79365      0.36355153     0.055261663    29.296027      3408.7208    
       270   0.54           326.95429      130241.27     -807631.73     -296.76353      0.36354773     0.055820871    29.29713       3408.2201    
       280   0.56           334.54582      132538.1      -807629.06     -300.67321      0.36354379     0.056556889    29.300181      3407.7181    
       290   0.58           334.83651      138507.35     -807623.4      -306.36504      0.3635397      0.057628176    29.301693      3407.2212    
       300   0.6            340.22919      140026.35     -807620.73     -309.88496      0.36353547     0.058290963    29.308128      3406.7097    
       310   0.62           336.32692      142385.02     -807617.39     -312.61175      0.3635311      0.058804593    29.348269      3406.0591    
       320   0.64           336.19763      137219.21     -807622.33     -307.66808      0.36352658     0.057875371    29.343217      3405.4462    
       330   0.66           336.4205       135039.27     -807628.5      -301.30795      0.36352192     0.056679694    29.292922      3405.0266    
       340   0.68           332.35039      129001        -807633.82     -295.34042      0.36351712     0.055557863    29.257888      3404.7312    
       350   0.7            329.49389      130354.78     -807632.02     -296.49672      0.36351217     0.05577614     29.293546      3404.3147    
       360   0.72           333.00871      128972.95     -807633.11     -295.76988      0.36350708     0.055640188    29.252114      3404.0364    
       370   0.74           346.73994      135858.12     -807628.68     -301.67077      0.36350185     0.05675108     29.20863       3403.8917    
       380   0.76           345.72409      137023.82     -807623.74     -306.18671      0.36349647     0.057601482    29.220015      3403.7015    
       390   0.78           345.06505      143241        -807616.23     -313.07006      0.36349095     0.058897308    29.263216      3403.3743    
       400   0.8            341.83093      140550.74     -807618.9      -309.56945      0.36348529     0.058239652    29.263006      3403.0474    
       410   0.82           353.85464      139495.46     -807622.91     -306.56064      0.36347948     0.057674524    29.222412      3402.8349    
       420   0.84           346.16659      133077.73     -807627.61     -300.43512      0.36347353     0.05652303     29.226444      3402.605     
       430   0.86           336.41674      132162.02     -807627.98     -298.21385      0.36346744     0.056106067    29.230293      3402.3594    
       440   0.88           348.32541      128289.04     -807634.63     -292.94934      0.3634612      0.055116545    29.207468      3402.17      
       450   0.9            344.88607      132096.74     -807630.78     -296.01298      0.36345482     0.055693927    29.178131      3402.05      
       460   0.92           357.09096      134391.04     -807626.34     -302.09079      0.3634483      0.056838468    29.199004      3401.8671    
       470   0.94           354.42881      139281.77     -807619.75     -308.16413      0.36344163     0.057982232    29.234465      3401.5896    
       480   0.96           349.62963      142028.59     -807617.82     -309.35079      0.36343482     0.058206598    29.294612      3401.1637    
       490   0.98           355.23801      140830.26     -807619.21     -308.69087      0.36342786     0.058083541    29.318841      3400.684     
       500   1              360.18298      138506.96     -807621.31     -307.21709      0.36342077     0.057807362    29.30207       3400.2487    
       510   1.02           354.07542      134302.77     -807626.96     -9621.9614      0.36341353     0.056579624    29.196759      3400.0572    
       520   1.04           344.63178      132086.45     -807630.29     -9468.824       0.36340614     0.055680269    29.160618      3399.9412    
       530   1.06           358.02137      127463.18     -807634.83     -9385.2837      0.36339862     0.055190163    29.169226      3399.7975    
       540   1.08           348.26428      133520.16     -807627.82     -9563.9236      0.36339095     0.056241842    29.197897      3399.5845    
       550   1.1            348.49993      133578.45     -807625.6      -9641.9182      0.36338313     0.056701718    29.190492      3399.3825    
       560   1.12           347.96044      141682.23     -807618.53     -9861.2054      0.36337518     0.057992561    29.23234       3399.0884    
       570   1.14           343.29847      140625.16     -807617.46     -9880.5566      0.36336707     0.058107659    29.237993      3398.781     
       580   1.16           350.9675       143614.95     -807615.41     -9976.0626      0.36335883     0.058670661    29.255407      3398.4377    
       590   1.18           363.91661      136205.25     -807624.33     -9751.0104      0.36335044     0.057348421    29.201452      3398.2007    
       600   1.2            353.51488      134773.27     -807626.65     -9625.8171      0.36334191     0.056613453    29.181383      3397.9992    
       610   1.22           352.08529      128460.41     -807633.82     -9394.9859      0.36333324     0.055257158    29.203661      3397.7505    
       620   1.24           346.48384      131183.49     -807629.65     -9502.8728      0.36332442     0.055893057    29.188498      3397.5273    
       630   1.26           365.96862      129753.47     -807632.81     -9494.5307      0.36331546     0.055845368    29.171466      3397.3319    
       640   1.28           347.09815      136825.31     -807624.82     -9667.5337      0.36330636     0.05686437     29.191075      3397.0961    
       650   1.3            350.42874      138922.86     -807620.1      -9837.1393      0.36329711     0.057863462    29.236094      3396.7764    
       660   1.32           352.85286      142178.92     -807616.35     -9972.0022      0.36328772     0.058658261    29.195057      3396.5284    
       670   1.34           359.40911      139902.41     -807619.62     -9898.6464      0.36327819     0.058228288    29.118507      3396.411     
       680   1.36           348.05797      137670.4      -807623.89     -9713.3422      0.36326851     0.057139767    29.112604      3396.2973    
       690   1.38           350.36852      133075.07     -807627.92     -9597.3679      0.36325869     0.056459063    29.116215      3396.1707    
       700   1.4            347.38971      129933.18     -807630.85     -9492.5775      0.36324873     0.055844137    29.117625      3396.0354    
       710   1.42           340.81151      131062.66     -807631.04     -9459.6608      0.36323863     0.055652039    29.104065      3395.9168    
       720   1.44           337.3621       131349.97     -807629.29     -9507.1681      0.36322838     0.055933107    29.142925      3395.7287    
       730   1.46           356.15162      137263.35     -807624.86     -9734.5363      0.36321798     0.057272411    29.213773      3395.4232    
       740   1.48           341.93386      139542.62     -807618.63     -9879.7694      0.36320745     0.058128565    29.201213      3395.1366    
       750   1.5            355.29487      143198.28     -807618.01     -9959.6873      0.36319677     0.058600492    29.209529      3394.8354    
       760   1.52           341.37225      139550.65     -807620.46     -9824.7506      0.36318595     0.057808279    29.217982      3394.5202    
       770   1.54           346.56271      137976.89     -807623.53     -9752.4204      0.36317498     0.057384425    29.216735      3394.2063    
       780   1.56           348.25586      131447.62     -807630.56     -9541.5076      0.36316387     0.056145106    29.168186      3393.9641    
       790   1.58           340.38314      131177.53     -807631.78     -9466.8993      0.36315262     0.055707814    29.158819      3393.7331    
       800   1.6            339.02501      129279.66     -807634.03     -9393.8558      0.36314122     0.055279725    29.184155      3393.4625    
       810   1.62           351.83374      133992.83     -807629.84     -9586.0851      0.36312968     0.056412723    29.174314      3393.2042    
       820   1.64           344.22528      135379.99     -807624.73     -9721.4935      0.363118       0.057211423    29.264926      3392.8155    
       830   1.66           363.94518      140940.94     -807622.14     -9890.5707      0.36310618     0.058208346    29.248188      3392.4513    
       840   1.68           338.95898      139857.84     -807619.63     -9865.9141      0.36309421     0.058065149    29.190027      3392.1681    
       850   1.7            342.75018      141540.22     -807619.93     -9872.5672      0.3630821      0.058106244    29.171787      3391.9084    
       860   1.72           347.87625      134255.68     -807626.82     -9677.4143      0.36306984     0.056959569    29.212014      3391.5923    
       870   1.74           339.52248      133541.39     -807629.37     -9557.8117      0.36305745     0.056257531    29.177482      3391.3219    
       880   1.76           334.14473      127778.59     -807633.13     -9415.3841      0.3630449      0.055421112    29.173606      3391.0549    
       890   1.78           339.73029      131362.96     -807631.44     -9490.9119      0.36303222     0.055867638    29.152514      3390.8138    
       900   1.8            349.64762      132468.2      -807630.14     -9578.9377      0.36301939     0.056387789    29.164443      3390.5551    
       910   1.82           337.65203      138907.88     -807621.21     -9809.6586      0.36300642     0.057748024    29.17001       3390.2873    
       920   1.84           346.60094      140130.83     -807621.08     -9852.268       0.36299331     0.058000954    29.192622      3389.9893    
       930   1.86           352.54896      141327.61     -807620.37     -9896.8787      0.36298005     0.058265708    29.213463      3389.6644    
       940   1.88           350.15673      138148.41     -807622.53     -9812.5754      0.36296665     0.057771523    29.221726      3389.3288    
       950   1.9            350.37656      134867.83     -807626.88     -9668.2723      0.36295311     0.056924063    29.164598      3389.0631    
       960   1.92           338.26179      131170.29     -807630.25     -9497.8348      0.36293942     0.055922684    29.12254       3388.8467    
       970   1.94           348.94989      129161.36     -807634.23     -9408.9524      0.36292559     0.055401461    29.115795      3388.6359    
       980   1.96           336.17476      132084.12     -807629.81     -9484.5618      0.36291162     0.055848811    29.137771      3388.3962    
       990   1.98           347.12605      133508.96     -807627.38     -9603.2868      0.3628975      0.05655011     29.193075      3388.0894    
      1000   2              343.3449       139321.84     -807620.48     -9793.9651      0.36288325     0.057675209    29.132187      3387.8527    
      1010   2.02           353.37086      139115.69     -807620.38     -307.28588      0.36286884     0.05790825     29.3367        3387.3796    
      1020   2.04           358.54256      142780.79     -807617.44     -310.42865      0.3628543      0.058502852    29.376907      3386.8636    
      1030   2.06           357.45066      136498.33     -807622.37     -305.14903      0.36283961     0.057510192    29.330198      3386.4031    
      1040   2.08           361.70437      136914.16     -807626.14     -301.54652      0.36282478     0.056833565    29.282552      3385.9977    
      1050   2.1            355.72475      130034.92     -807631.49     -295.21781      0.3628098      0.055643067    29.230132      3385.6513    
      1060   2.12           352.53871      131754.89     -807629.96     -295.99068      0.36279469     0.055791064    29.273614      3385.2575    
      1070   2.14           344.41529      130616.23     -807629.39     -295.36291      0.36277943     0.055675078    29.275038      3384.8631    
      1080   2.16           358.65953      136529.31     -807625.29     -301.18807      0.36276402     0.056775513    29.286314      3384.4577    
      1090   2.18           356.95053      137503.04     -807621.62     -304.59558      0.36274848     0.057420308    29.261003      3384.0803    
      1100   2.2            369.89218      142602.29     -807618.37     -309.46717      0.36273279     0.05834119     29.271705      3383.6922    
      1110   2.22           357.21322      141064.94     -807617.68     -308.35886      0.36271695     0.058134789    29.274542      3383.3021    
      1120   2.24           363.15785      138816.6      -807621.69     -305.07152      0.36270098     0.05751756     29.250417      3382.9377    
      1130   2.26           366.33653      132723.04     -807628.58     -298.60915      0.36268486     0.056301661    29.283864      3382.5395    
      1140   2.28           362.57653      131865        -807630.53     -296.11428      0.3626686      0.055833765    29.350435      3382.0751    
      1150   2.3            337.93912      129487.08     -807629.02     -294.27469      0.36265219     0.055489412    29.291754      3381.6716    
      1160   2.32           364.57961      132064.69     -807630.85     -296.11087      0.36263564     0.055838195    29.277768      3381.283     
      1170   2.34           360.50278      134716.01     -807626.5      -300.06479      0.36261895     0.056586399    29.271681      3380.9013    
      1180   2.36           355.85161      139899.93     -807619.43     -306.56847      0.36260212     0.057815551    29.32024       3380.4728    
      1190   2.38           365.17696      141851.73     -807618.38     -309.00071      0.36258514     0.058276974    29.332036      3380.0344    
      1200   2.4            353.81186      140075.18     -807618.47     -307.37534      0.36256802     0.057973169    29.375599      3379.5561    
      1210   2.42           359.51618      137749.16     -807623.09     -303.71089      0.36255076     0.057284755    29.368387      3379.0868    
      1220   2.44           362.79554      132857.51     -807628.03     -299.41815      0.36253335     0.056477786    29.318144      3378.6669    
      1230   2.46           357.11155      131050        -807629.9      -296.86557      0.3625158      0.055999017    29.292389      3378.2723    
      1240   2.48           348.32298      129406.01     -807632.65     -293.13344      0.36249811     0.055297709    29.258354      3377.9103    
      1250   2.5            351.80433      133533.64     -807628.25     -298.19626      0.36248028     0.056255545    29.238453      3377.5669    
      1260   2.52           363.99385      134909.35     -807626.56     -301.86052      0.3624623      0.056949641    29.291928      3377.1747    
      1270   2.54           348.08816      140483.84     -807619.33     -307.08303      0.36244418     0.057937827    29.348468      3376.732     
      1280   2.56           350.11538      139497.23     -807620.48     -306.48769      0.36242592     0.057828419    29.369562      3376.2722    
      1290   2.58           341.75371      141296.21     -807619.16     -306.80562      0.36240751     0.057891345    29.354262      3375.8277    
      1300   2.6            343.06749      136429.13     -807623.36     -303.12911      0.36238896     0.05720055     29.348594      3375.3898    
      1310   2.62           353.23395      133754.54     -807628.16     -299.77124      0.36237027     0.056569837    29.363159      3374.9407    
      1320   2.64           342.89815      129357.09     -807632.08     -294.62443      0.36235143     0.055601472    29.302868      3374.5456    
      1330   2.66           331.72889      131790.75     -807629.62     -295.67525      0.36233245     0.055802705    29.276505      3374.1742    
      1340   2.68           345.65117      131695.85     -807629.13     -298.27557      0.36231333     0.056296435    29.313198      3373.7716    
      1350   2.7            357.32884      136920.83     -807625.66     -303.38091      0.36229407     0.057263059    29.357687      3373.3323    
      1360   2.72           343.51143      138493        -807621.64     -305.63458      0.36227466     0.05769153     29.331291      3372.9166    
      1370   2.74           348.67422      140863.63     -807619.91     -308.1297       0.36225511     0.058165647    29.296675      3372.531     
      1380   2.76           348.30514      137702.44     -807622.03     -306.01058      0.36223542     0.057768761    29.25353       3372.182     
      1390   2.78           346.17371      135837.42     -807624.92     -302.82504      0.36221558     0.057170523    29.249401      3371.8366    
      1400   2.8            341.09986      132545.97     -807629        -298.0577       0.3621956      0.056273598    29.243702      3371.4959    
      1410   2.82           339.30205      131994.63     -807631.34     -295.40439      0.36217548     0.05577575     29.26492       3371.1378    
      1420   2.84           338.01626      131137.99     -807630.25     -296.24225      0.36215522     0.055937077    29.246414      3370.7949    
      1430   2.86           348.69131      132996.92     -807629.11     -298.85026      0.36213481     0.056432707    29.30005       3370.409     
      1440   2.88           347.33532      136099.87     -807624.86     -302.86297      0.36211426     0.057193683    29.327056      3370.0021    
      1450   2.9            352.96195      138866.94     -807622.81     -305.64571      0.36209357     0.057722484    29.337013      3369.5884    
      1460   2.92           339.7712       139383.76     -807620.17     -306.38672      0.36207273     0.057865756    29.316626      3369.1916    
      1470   2.94           347.54801      137894.76     -807622.31     -305.25375      0.36205176     0.057655118    29.334398      3368.7817    
      1480   2.96           343.33865      135759.59     -807625.37     -301.5857       0.36203064     0.056965635    29.305639      3368.3949    
      1490   2.98           341.98391      132622.03     -807628.81     -297.78268      0.36200937     0.056250598    29.329218      3367.9907    
      1500   3              343.98214      131467.2      -807631.49     -295.29304      0.36198796     0.055783607    29.304841      3367.606     
      1510   3.02           336.86222      132447.96     -807629.34     -9484.2062      0.36196642     0.05599255     29.182329      3367.3152    
      1520   3.04           341.98378      134622.84     -807626.93     -9580.2933      0.36194472     0.056563216    29.221834      3366.9938    
      1530   3.06           345.91147      135660.62     -807624.93     -9659.4204      0.36192289     0.057033833    29.276894      3366.6307    
      1540   3.08           349.55566      138632.92     -807621.43     -9784.3047      0.36190091     0.057774718    29.245637      3366.2912    
      1550   3.1            346.62724      139319.55     -807619.65     -9824.3604      0.36187879     0.058014786    29.251361      3365.9474    
      1560   3.12           344.0423       138646.01     -807621.17     -9760.496       0.36185653     0.0576412      29.227423      3365.6213    
      1570   3.14           348.75827      135687.97     -807627.01     -9591.2025      0.36183412     0.056644934    29.198986      3365.3158    
      1580   3.16           350.15483      132295.67     -807629.29     -9519.658       0.36181157     0.056225902    29.227172      3364.9894    
      1590   3.18           332.05739      131867.86     -807627.98     -9477.6059      0.36178888     0.05598104     29.170338      3364.704     
      1600   3.2            343.22812      131971.33     -807629.29     -9481.2801      0.36176605     0.056006277    29.161491      3364.4243    
      1610   3.22           344.84346      135165.3      -807626.12     -9585.1882      0.36174307     0.056623663    29.191914      3364.1219    
      1620   3.24           344.05023      138211.91     -807621.72     -9719.8978      0.36171995     0.057423118    29.178416      3363.8288    
      1630   3.26           352.83132      140421.09     -807619.6      -9822.5376      0.36169669     0.058033225    29.20035       3363.5194    
      1640   3.28           350.1849       139525.85     -807619.96     -9795.085       0.36167329     0.057874775    29.233241      3363.1865    
      1650   3.3            346.5398       137733.04     -807621.8      -9715.4419      0.36164974     0.057407937    29.221846      3362.8615    
      1660   3.32           353.7217       134930.41     -807626.55     -9590.8069      0.36162605     0.056675189    29.269491      3362.5033    
      1670   3.34           345.4725       132558.75     -807627.93     -9505.0933      0.36160222     0.056172382    29.201297      3362.1922    
      1680   3.36           350.35718      130423.55     -807630.3      -9445.5534      0.36157824     0.055824219    29.173862      3361.8996    
      1690   3.38           352.77677      131898.98     -807630.15     -9456.4186      0.36155413     0.055892162    29.180051      3361.6022    
      1700   3.4            359.355        134950.31     -807626.81     -9590.1873      0.36152987     0.056686605    29.234769      3361.2672    
      1710   3.42           358.53441      137732.17     -807621.53     -9750.2682      0.36150546     0.057636717    29.258659      3360.916     
      1720   3.44           349.64732      139558.56     -807620.04     -9755.2674      0.36148092     0.057670184    29.245577      3360.5737    
      1730   3.46           350.26381      140301.37     -807619.33     -9773.2134      0.36145623     0.057780222    29.191902      3360.2671    
      1740   3.48           353.26298      136358.54     -807621.34     -9718.8937      0.3614314      0.057463026    29.211663      3359.947     
      1750   3.5            358.26696      135212.26     -807625.22     -9612.2196      0.36140643     0.056836242    29.252275      3359.5999    
      1760   3.52           353.00026      132358.46     -807629.22     -9455.765       0.36138131     0.055915025    29.267983      3359.2427    
      1770   3.54           362.51057      131747.51     -807630.98     -9436.2202      0.36135605     0.05580335     29.202417      3358.9282    
      1780   3.56           348.51269      131797.16     -807627.4      -9487.6077      0.36133065     0.056111187    29.218077      3358.6033    
      1790   3.58           352.68461      135435.47     -807623.94     -9611.0667      0.36130511     0.056845361    29.261177      3358.2505    
      1800   3.6            354.74679      137225.33     -807622.31     -9669.2404      0.36127942     0.057193499    29.268235      3357.8934    
      1810   3.62           365.08095      139802.74     -807620.15     -9776.6685      0.3612536      0.05783307     29.243039      3357.5524    
      1820   3.64           356.47235      138612.9      -807619.33     -9761.2073      0.36122763     0.057745762    29.247023      3357.2089    
      1830   3.66           363.74509      137871.71     -807621.82     -9706.0056      0.36120151     0.057423349    29.078283      3356.9718    
      1840   3.68           361.85763      133903.22     -807626.31     -9550.1574      0.36117526     0.056505416    29.024255      3356.7677    
      1850   3.7            359.30216      132857.15     -807626.96     -9512.1573      0.36114886     0.056284694    29.137771      3356.4909    
      1860   3.72           351.32377      132354.55     -807627.81     -9446.4297      0.36112232     0.055899884    29.172792      3356.1917    
      1870   3.74           354.03945      133822.35     -807626.26     -9503.3126      0.36109564     0.056240648    29.18318       3355.8855    
      1880   3.76           349.12086      136085.71     -807623.24     -9575.9466      0.36106881     0.056674706    29.199415      3355.5691    
      1890   3.78           361.42199      137507.61     -807621.57     -9681.4191      0.36104184     0.057303219    29.189545      3355.2583    
      1900   3.8            362.76426      139918.2      -807619.13     -9761.6641      0.36101474     0.057782519    29.172382      3354.9577    
      1910   3.82           365.35719      137553.71     -807621.5      -9699.7448      0.36098748     0.057420333    29.156782      3354.666     
      1920   3.84           362.20548      137846.48     -807621.26     -9690.4084      0.36096009     0.057369417    29.119153      3354.3964    
      1930   3.86           364.89476      134423.42     -807626.68     -9532.3216      0.36093255     0.056437813    29.147084      3354.1094    
      1940   3.88           365.51428      133651.87     -807627.84     -9497.6365      0.36090487     0.056236766    29.154639      3353.8172    
      1950   3.9            357.09469      131478.53     -807629.08     -9427.0559      0.36087705     0.055823152    29.14995       3353.5274    
      1960   3.92           350.92918      134509.27     -807625.67     -9513.6027      0.36084909     0.056340013    29.169315      3353.2255    
      1970   3.94           355.72201      135272.32     -807624.26     -9588.196       0.36082098     0.056786181    29.196271      3352.9076    
      1980   3.96           363.8229       138479.26     -807621.98     -9705.6377      0.36079273     0.057486231    29.183983      3352.5965    
      1990   3.98           347.84746      139318.72     -807618.71     -9749.2228      0.36076434     0.057748928    29.146366      3352.3068    
      2000   4              353.90943      138650.77     -807620.81     -9715.1786      0.36073581     0.057551822    29.213362      3351.9781    
      2010   4.02           360.65234      136075.86     -807625.08     -300.62564      0.36070713     0.056992643    29.315077      3351.5914    
      2020   4.04           355.01023      134718.65     -807626.28     -298.88628      0.36067831     0.056667424    29.323482      3351.2003    
      2030   4.06           356.02879      131700.29     -807629.82     -295.73465      0.36064935     0.056074392    29.254421      3350.8486    
      2040   4.08           347.72766      131703.91     -807630.41     -294.23694      0.36062025     0.055794913    29.305309      3350.469     
      2050   4.1            344.78931      132900.93     -807628.23     -296.31761      0.36059101     0.056194019    29.283073      3350.1012    
      2060   4.12           349.93694      135237.74     -807625        -300.45458      0.36056162     0.056983202    29.312166      3349.718     
      2070   4.14           353.11233      136895.51     -807624.11     -302.02441      0.36053209     0.057285622    29.306515      3349.3383    
      2080   4.16           330.75821      138540.66     -807619.66     -303.51975      0.36050242     0.057573985    29.258187      3348.9855    
      2090   4.18           353.63584      137101.9      -807622.62     -303.84167      0.36047261     0.057639816    29.248815      3348.638     
      2100   4.2            352.6581       135666.67     -807624.97     -301.48135      0.36044265     0.057196808    29.276385      3348.2754    
      2110   4.22           339.26087      133680.21     -807626.85     -297.83887      0.36041256     0.056510478    29.292323      3347.9045    
      2120   4.24           349.53049      131629.31     -807631.16     -294.98391      0.36038232     0.055973488    29.254654      3347.5542    
      2130   4.26           334.62995      132072.9      -807628.71     -295.46599      0.36035193     0.056069691    29.26763       3347.1969    
      2140   4.28           348.7827       133363.39     -807628.21     -297.93313      0.36032141     0.056542662    29.244442      3346.8522    
      2150   4.3            343.93296      134424.27     -807625.92     -299.62897      0.36029075     0.056869342    29.233074      3346.5136    
      2160   4.32           346.35471      137568.65     -807624.24     -301.64879      0.36025994     0.0572576      29.191979      3346.1967    
      2170   4.34           340.39464      137969.29     -807621.73     -303.33955      0.36022899     0.057583478    29.248218      3345.85      
      2180   4.36           337.45518      139075.75     -807621.12     -303.50193      0.36019789     0.057619277    29.25105       3345.5018    
      2190   4.38           351.36888      134813.19     -807626.9      -299.64904      0.36016666     0.056892747    29.274685      3345.1413    
      2200   4.4            344.29353      133814.44     -807628.14     -297.27877      0.36013528     0.056447634    29.279121      3344.7786    
      2210   4.42           344.27368      131068.64     -807629.88     -295.52988      0.36010377     0.056120464    29.261948      3344.4251    
      2220   4.44           338.45713      133352.8      -807627.21     -297.28273      0.36007211     0.056458291    29.332012      3344.0357    
      2230   4.46           347.25434      132791.49     -807629.84     -295.82465      0.3600403      0.056186342    29.282367      3343.672     
      2240   4.48           351.37001      136377.09     -807626.01     -300.01474      0.36000836     0.056987227    29.205425      3343.3479    
      2250   4.5            335.8953       136869.87     -807621.39     -302.44997      0.35997627     0.057454916    29.215126      3343.0186    
      2260   4.52           347.72162      140252.44     -807620.91     -304.31495      0.35994404     0.057814372    29.284852      3342.654     
      2270   4.54           354.49439      135258.19     -807625.55     -300.51735      0.35991167     0.057098031    29.320738      3342.2716    
      2280   4.56           352.25948      136087.8      -807625.77     -299.66161      0.35987916     0.056940585    29.338125      3341.8808    
      2290   4.58           346.97524      131718.82     -807628.05     -296.54666      0.35984651     0.056353808    29.319099      3341.5       
      2300   4.6            352.41112      132825.05     -807628.6      -296.42564      0.35981371     0.056335943    29.315863      3341.1211    
      2310   4.62           342.13676      131716.04     -807629.35     -294.08226      0.35978077     0.055895698    29.262163      3340.769     
      2320   4.64           346.10146      135022.52     -807625.74     -297.84381      0.35974769     0.056615855    29.258265      3340.4189    
      2330   4.66           358.62903      135745.63     -807626.06     -299.03575      0.35971447     0.056847676    29.281624      3340.0574    
      2340   4.68           349.94829      139030.11     -807621.69     -301.83544      0.35968111     0.057385228    29.270766      3339.7015    
      2350   4.7            360.50905      137460.75     -807623.21     -301.45234      0.3596476      0.057317733    29.269557      3339.3462    
      2360   4.72           358.88625      136919.83     -807623.28     -300.73833      0.35961396     0.057187323    29.292647      3338.9799    
      2370   4.74           346.94464      135883.37     -807623.2      -298.85987      0.35958017     0.056835462    29.264568      3338.6273    
      2380   4.76           362.55426      133112.68     -807627.95     -295.96587      0.35954624     0.056290409    29.249192      3338.2821    
      2390   4.78           357.34401      133968.17     -807627.07     -295.84639      0.35951216     0.056273017    29.282984      3337.9209    
      2400   4.8            345.14333      133085.58     -807625.79     -295.18377      0.35947795     0.056152325    29.268468      3337.5667    
      2410   4.82           358.12708      136338.51     -807624.34     -298.10557      0.35944359     0.056713553    29.280439      3337.207     
      2420   4.84           360.21798      135103.22     -807624.62     -298.04632      0.35940909     0.056707724    29.309676      3336.8336    
      2430   4.86           367.11071      138930.4      -807621.55     -301.78707      0.35937446     0.057424992    29.300242      3336.465     
      2440   4.88           363.69208      135512.03     -807621.96     -300.94469      0.35933967     0.057270245    29.291868      3336.1005    
      2450   4.9            362.61902      138965.9      -807621.26     -301.26702      0.35930475     0.057337155    29.267379      3335.7475    
      2460   4.92           338.95143      135195.85     -807621.59     -297.72162      0.35926969     0.056667926    29.209375      3335.4216    
      2470   4.94           363.15068      135155.94     -807625.44     -297.14767      0.35923448     0.056564224    29.212205      3335.0941    
      2480   4.96           365.45077      131638.25     -807628.09     -294.91811      0.35919913     0.056145336    29.272178      3334.739     
      2490   4.98           359.3534       135349.01     -807625.25     -296.85798      0.35916364     0.056520225    29.277229      3334.3817    
      2500   5              357.39816      133466.61     -807627.33     -294.64155      0.35912801     0.056103795    29.252012      3334.036     
[...]
     98740   197.48         356.97758      134830.59     -807626.13     -9671.702       0.36236891     0.057036059    27.019286      44.02106     
     98750   197.5          347.65912      136962.62     -807623.25     -9721.6438      0.36238762     0.057327618    26.995145      43.671954    
     98760   197.52         351.68655      137036.56     -807624.1      -9712.8686      0.36240618     0.057272938    26.97529       43.322846    
     98770   197.54         346.67128      136570.99     -807623.26     -9719.2934      0.36242459     0.05730791     26.969843      42.973735    
     98780   197.56         351.8815       135584.65     -807624.99     -9688.3167      0.36244287     0.057122382    27.045044      42.624606    
     98790   197.58         344.74601      135432.92     -807625.71     -9633.0516      0.362461       0.056793698    27.042168      42.275474    
     98800   197.6          342.6791       133216.12     -807627.46     -9565.8768      0.36247899     0.056394856    26.943341      41.926354    
     98810   197.62         347.18676      133628.1      -807627.75     -9577.5401      0.36249683     0.056460836    26.933053      41.577232    
     98820   197.64         355.49445      134473.08     -807626.46     -9654.3688      0.36251453     0.056910972    26.858054      41.228117    
     98830   197.66         347.66196      136347.44     -807625.05     -9661.9583      0.36253209     0.056952952    26.875871      40.878995    
     98840   197.68         355.79761      136967.57     -807625.1      -9694.4181      0.36254951     0.057141543    26.898116      40.529865    
     98850   197.7          346.24322      136920.73     -807622.62     -9730.5119      0.36256678     0.057351557    26.896105      40.18073     
     98860   197.72         343.87655      137345.85     -807621.96     -9738.5138      0.36258391     0.057396009    26.885666      39.831592    
     98870   197.74         353.95868      135587.44     -807625.16     -9677.259       0.3626009      0.057032319    26.89412       39.482449    
     98880   197.76         344.43522      134946.17     -807625.79     -9612.4539      0.36261774     0.056647762    26.88916       39.133301    
     98890   197.78         344.61096      134823.63     -807625.47     -9620.7512      0.36263445     0.056694048    26.901664      38.784147    
     98900   197.8          352.38606      135788.69     -807626.1      -9633.1127      0.362651       0.056764302    26.898783      38.434989    
     98910   197.82         346.18774      136163.06     -807625.07     -9635.8936      0.36266742     0.056778118    26.899571      38.085827    
     98920   197.84         350.69051      136000.02     -807624.56     -9669.0252      0.36268369     0.056970785    26.925147      37.736655    
     98930   197.86         362.02059      136330.84     -807625.29     -9693.017       0.36269982     0.057109607    26.958611      37.387475    
     98940   197.88         343.50651      137274.14     -807621.45     -9732.2639      0.36271581     0.057338316    26.993567      37.038285    
     98950   197.9          363.36913      136310.84     -807625.26     -9696.1712      0.36273165     0.057123178    26.995781      36.68909     
     98960   197.92         357.6447       135620.94     -807626.54     -9628.0557      0.36274735     0.056719434    27.031702      36.339885    
     98970   197.94         345.7706       135658.14     -807624.49     -9637.987       0.36276291     0.056775505    27.021591      35.990678    
     98980   197.96         342.7274       135040.42     -807624        -9639.0079      0.36277832     0.056779106    27.021805      35.641467    
     98990   197.98         356.59677      135017.34     -807626.29     -9624.4211      0.36279359     0.056690795    26.994885      35.292255    
     99000   198            355.30316      134847.49     -807625.8      -9633.5056      0.36280872     0.05674194     26.966155      34.943043    
     99010   198.02         360.17484      136318.79     -807624.71     -302.71082      0.3628237      0.057053174    27.035959      34.593817    
     99020   198.04         360.52157      135876.99     -807623.44     -304.0393       0.36283855     0.057301215    27.077506      34.244582    
     99030   198.06         360.56219      136758.33     -807623.11     -304.31032      0.36285324     0.057349969    27.061048      33.895344    
     99040   198.08         361.66991      135726.04     -807625.07     -302.50615      0.3628678      0.05700767     27.043057      33.546105    
     99050   198.1          346.32625      136299.67     -807621.85     -303.59277      0.36288221     0.057210173    27.033126      33.196862    
     99060   198.12         348.27562      134509.34     -807624.22     -301.59458      0.36289648     0.056831392    27.022825      32.847617    
     99070   198.14         359.49433      135922.35     -807626.23     -301.12571      0.36291061     0.056740831    27.038486      32.498366    
     99080   198.16         353.89145      134489.92     -807626.27     -300.43423      0.36292459     0.056608355    27.027319      32.149112    
     99090   198.18         359.73911      136906.07     -807624.24     -303.2345       0.36293843     0.057133808    26.982839      31.79986     
     99100   198.2          350.37284      135552.23     -807624.04     -302.34176      0.36295213     0.056963454    26.953678      31.450606    
     99110   198.22         362.28135      137247.56     -807624.25     -303.78081      0.36296568     0.057232444    26.958479      31.101348    
     99120   198.24         354.14037      135733.88     -807623.93     -303.19899      0.36297909     0.057120719    26.964942      30.752085    
     99130   198.26         351.09307      137345.75     -807622.54     -304.31551      0.36299236     0.057328968    26.96454       30.402817    
     99140   198.28         336.48151      135514.7      -807622.38     -302.61208      0.36300548     0.057006004    26.973897      30.053544    
     99150   198.3          353.85527      135471.47     -807625.97     -301.60918      0.36301846     0.056815045    26.992158      29.704264    
     99160   198.32         353.28847      134410.86     -807627.07     -300.66654      0.3630313      0.056635475    27.032937      29.354976    
     99170   198.34         352.66308      134566.67     -807625.92     -301.89547      0.36304399     0.056864975    27.0477        29.005681    
     99180   198.36         361.03156      134210.22     -807626.86     -302.30671      0.36305655     0.056940469    27.006515      28.656387    
     99190   198.38         357.89543      134884.33     -807626.78     -302.27126      0.36306895     0.056931845    27.08812       28.30708     
     99200   198.4          339.28466      136952.4      -807622.97     -303.80041      0.36308122     0.057217923    27.081796      27.957769    
     99210   198.42         347.13445      136325.11     -807623.57     -304.55659      0.36309334     0.057358428    27.069848      27.608456    
     99220   198.44         346.42741      135843.55     -807624.68     -303.58466      0.36310532     0.057173494    27.030708      27.259143    
     99230   198.46         347.19504      135094        -807626.62     -301.97591      0.36311715     0.056868667    27.033341      26.909825    
     99240   198.48         349.28098      135442.55     -807626.55     -302.56554      0.36312885     0.056977873    27.016544      26.560505    
     99250   198.5          342.95831      134188.13     -807626.47     -302.04934      0.3631404      0.056878856    27.054207      26.211177    
     99260   198.52         351.22587      135013.06     -807627.8      -302.0329       0.3631518      0.056873974    27.063974      25.861844    
     99270   198.54         340.90797      134151.15     -807626.73     -301.87197      0.36316306     0.056841907    27.029386      25.51251     
     99280   198.56         338.22278      137654.44     -807623.73     -304.62234      0.36317418     0.05735804     27.036445      25.163172    
     99290   198.58         332.91202      135961.59     -807623.77     -304.04697      0.36318516     0.057247972    27.004417      24.813832    
     99300   198.6          345.4254       137320.1      -807625.72     -303.7788       0.36319599     0.057195773    27.023973      24.464486    
     99310   198.62         342.60246      134276.51     -807627.11     -302.16967      0.36320668     0.05689113     27.04717       24.115134    
     99320   198.64         349.9397       136416.41     -807626.01     -304.25165      0.36321723     0.057281452    27.063897      23.765777    
     99330   198.66         339.72403      133872.96     -807627.06     -301.89583      0.36322763     0.056836295    27.080328      23.416413    
     99340   198.68         346.80464      135269.35     -807627.66     -302.18335      0.36323789     0.056888817    27.041709      23.067049    
     99350   198.7          341.35465      133521.32     -807627.66     -301.46822      0.36324801     0.056752606    27.044988      22.717681    
     99360   198.72         329.55516      137155.45     -807623.16     -304.24328      0.36325798     0.057273451    27.017089      22.368311    
     99370   198.74         351.45197      134317.37     -807627.13     -303.28987      0.36326781     0.057092427    26.994927      22.018939    
     99380   198.76         340.54305      135693.06     -807625.8      -302.93942      0.3632775      0.057024937    26.960083      21.669566    
     99390   198.78         336.46619      134377.73     -807624.87     -303.18577      0.36328704     0.05706981     26.976963      21.320187    
     99400   198.8          348.92466      136492.02     -807624.48     -305.08228      0.36329644     0.05742531     26.976094      20.970803    
     99410   198.82         342.26854      135012.53     -807625.53     -302.8941       0.3633057      0.057011979    26.957418      20.621417    
     99420   198.84         343.99498      135957.03     -807626.33     -301.92909      0.36331481     0.056828916    27.005074      20.272023    
     99430   198.86         338.10592      134926.12     -807625.27     -301.88963      0.36332378     0.056820087    27.021949      19.922623    
     99440   198.88         360.10345      135071.89     -807625.74     -304.04593      0.36333261     0.057224542    26.968492      19.573223    
     99450   198.9          351.16546      135009.81     -807625.89     -302.23453      0.36334129     0.056882261    26.977334      19.223818    
     99460   198.92         344.71273      136866.88     -807623.95     -302.80421      0.36334983     0.056988137    26.968635      18.87441     
     99470   198.94         345.89358      135788.07     -807623.66     -302.92916      0.36335823     0.057010336    26.955465      18.524998    
     99480   198.96         343.93977      136950.25     -807622.17     -303.76009      0.36336648     0.057165416    26.95985       18.175582    
     99490   198.98         357.08952      136415.08     -807623.64     -303.8161       0.3633746      0.05717468     27.014872      17.826157    
     99500   199            348.09364      136304.56     -807623.89     -302.07065      0.36338256     0.05684496     27.029901      17.476727    
     99510   199.02         355.66734      136008.42     -807624.61     -9670.8656      0.36339039     0.056870815    26.990551      17.127296    
     99520   199.04         346.48335      135440.27     -807622.21     -9705.0026      0.36339807     0.057070356    27.01946       16.777858    
     99530   199.06         371.35895      135460.91     -807625.55     -9704.5768      0.3634056      0.057066669    26.992047      16.428419    
     99540   199.08         359.72813      135656.73     -807625.04     -9669.0172      0.363413       0.056856407    26.980765      16.078975    
     99550   199.1          348.18487      137743.24     -807622.69     -9691.2689      0.36342025     0.056986116    27.00459       15.729526    
     99560   199.12         356.65386      134992.43     -807623.83     -9697.3851      0.36342736     0.057020965    27.003566      15.380073    
     99570   199.14         357.59599      136571.28     -807622.98     -9727.9148      0.36343432     0.057199385    27.00731       15.030615    
     99580   199.16         357.45259      134430.26     -807625.24     -9657.0712      0.36344114     0.056781764    27.00569       14.681154    
     99590   199.18         353.17387      136881.35     -807622.79     -9717.8621      0.36344782     0.057138154    27.028738      14.331686    
     99600   199.2          346.43772      135674.55     -807622.96     -9686.9325      0.36345435     0.056955273    27.016167      13.982216    
     99610   199.22         360.62654      137082.23     -807623.8      -9723.675       0.36346074     0.057170299    27.029764      13.63274     
     99620   199.24         364.41901      134375.87     -807626.37     -9660.6014      0.36346699     0.056798482    27.002482      13.283262    
     99630   199.26         353.57137      136829.28     -807623.3      -9712.5648      0.3634731      0.057103036    26.950026      12.933782    
     99640   199.28         342.39817      134457.49     -807623.52     -9662.781       0.36347906     0.056809411    26.902776      12.584301    
     99650   199.3          353.26256      136733.24     -807623.52     -9714.7643      0.36348487     0.057114117    26.944706      12.234813    
     99660   199.32         347.41595      134845.98     -807624.52     -9663.1288      0.36349055     0.05680966     26.980211      11.885318    
     99670   199.34         356.65512      136641.12     -807623.75     -9732.6348      0.36349608     0.057217415    26.973461      11.53582     
     99680   199.36         340.98502      135930.63     -807622.29     -9716.9635      0.36350147     0.057124439    26.951055      11.186319    
     99690   199.38         360.8517       137107.74     -807625.32     -9710.7353      0.36350671     0.057087       26.952035      10.836813    
     99700   199.4          358.12674      134829.44     -807625.45     -9702.707       0.36351181     0.057039003    26.914139      10.487305    
     99710   199.42         341.98636      136666.33     -807623.08     -9713.4809      0.36351677     0.057101561    26.897455      10.137793    
     99720   199.44         352.58381      135710.21     -807625.92     -9675.9581      0.36352158     0.056880227    26.894575      9.7882759    
     99730   199.46         339.13232      134871.32     -807624.7      -9661.5393      0.36352625     0.056794736    26.89697       9.4387548    
     99740   199.48         345.14507      135869.38     -807625.49     -9669.2178      0.36353078     0.056839166    26.937963      9.0892277    
     99750   199.5          344.7326       135585.72     -807624.35     -9710.2224      0.36353516     0.057079517    26.91118       8.7396971    
     99760   199.52         352.74822      135550.69     -807625.3      -9718.8112      0.3635394      0.057129338    26.901199      8.3901625    
     99770   199.54         344.76333      135077.54     -807624.98     -9699.2616      0.3635435      0.057013779    26.919017      8.0406229    
     99780   199.56         344.32463      136478.02     -807624.82     -9708.2776      0.36354745     0.057066156    26.936301      7.6910783    
     99790   199.58         354.61253      134601.8      -807625.81     -9726.3341      0.36355126     0.057171695    27.000888      7.3415276    
     99800   199.6          337.18008      136452.17     -807623.64     -9721.7685      0.36355493     0.057144281    27.000521      6.9919726    
     99810   199.62         339.8881       134195.5      -807626.42     -9650.1665      0.36355845     0.056722857    26.980892      6.642414     
     99820   199.64         346.97521      135903.88     -807626.07     -9692.1633      0.36356183     0.056969181    26.963658      6.2928516    
     99830   199.66         350.17582      134002.2      -807627.03     -9683.357       0.36356507     0.056916912    26.985494      5.9432845    
     99840   199.68         333.23181      137504.27     -807622.51     -9752.3334      0.36356816     0.057321855    26.987839      5.5937131    
     99850   199.7          340.37593      134597.65     -807626.19     -9671.7359      0.36357111     0.056847661    26.95819       5.244138     
     99860   199.72         343.48213      136711.36     -807624.76     -9729.9103      0.36357392     0.057189152    26.981579      4.8945583    
     99870   199.74         335.75736      134583.64     -807624.57     -9705.6525      0.36357658     0.057046155    26.980211      4.5449744    
     99880   199.76         345.85338      136072.97     -807624.68     -9745.6459      0.3635791      0.057280824    27.001046      4.1953859    
     99890   199.78         346.75779      133734.94     -807627.38     -9664.0643      0.36358148     0.05680095     27.003694      3.8457932    
     99900   199.8          341.02195      135997.32     -807625.38     -9699.1657      0.36358371     0.057006909    26.964399      3.4961969    
     99910   199.82         349.37919      134440.42     -807627.28     -9677.6645      0.3635858      0.056880209    26.990164      3.146596     
     99920   199.84         341.75015      135830.03     -807625.08     -9709.5013      0.36358775     0.057067024    27.002533      2.7969908    
     99930   199.86         354.4772       134182.99     -807627.44     -9688.158       0.36358955     0.056941297    27.011595      2.4473814    
     99940   199.88         339.93236      136503.37     -807624.15     -9724.045       0.36359121     0.057151959    27.026039      2.0977677    
     99950   199.9          337.22715      135880.57     -807624.43     -9699.3079      0.36359273     0.057006332    26.977964      1.7481503    
     99960   199.92         349.08291      135882.3      -807625.35     -9713.781       0.3635941      0.05709118     26.957606      1.3985288    
     99970   199.94         352.18835      135102.32     -807626.06     -9695.2171      0.36359533     0.056981882    26.938318      1.0489031    
     99980   199.96         347.84554      136152.54     -807624.73     -9705.3918      0.36359641     0.057041511    26.906816      0.69927311   
     99990   199.98         356.78019      135004.83     -807626.07     -9689.9995      0.36359736     0.056950898    26.90898       0.34963875   
    100000   200            348.32065      136260.1      -807623.94     -9704.9646      0.36359816     0.057038727    26.900835      0            
Loop time of 3496.41 on 32 procs for 100000 steps with 1080 atoms

Performance: 4.942 ns/day, 4.856 hours/ns, 28.601 timesteps/s, 30.889 katom-step/s
71.6% CPU use with 32 MPI tasks x 1 OpenMP threads

MPI task timing breakdown:
Section |  min time  |  avg time  |  max time  |%varavg| %total
---------------------------------------------------------------
Pair    | 2546.3     | 2792.4     | 3074.6     | 203.7 | 79.87
Neigh   | 0.001232   | 0.0013362  | 0.0015385  |   0.3 |  0.00
Comm    | 349        | 631.05     | 877.08     | 428.6 | 18.05
Output  | 2.2998     | 2.3152     | 2.3246     |   0.3 |  0.07
Modify  | 63.655     | 64.527     | 65.077     |   4.7 |  1.85
Other   |            | 6.103      |            |       |  0.17

Nlocal:          33.75 ave          44 max          26 min
Histogram: 1 3 6 4 4 9 2 1 1 1
Nghost:        1024.47 ave        1043 max        1004 min
Histogram: 1 3 1 4 5 4 7 4 2 1
Neighs:              0 ave           0 max           0 min
Histogram: 32 0 0 0 0 0 0 0 0 0
FullNghs:      5357.31 ave        6993 max        4180 min
Histogram: 2 3 5 4 6 8 1 1 1 1

Total # of neighbors = 171434
Ave neighs/atom = 158.73519
Neighbor list builds = 3
Dangerous builds = 0

Total wall time: 1:01:38
