
units		metal
atom_style	atomic

read_data ${STRUCTURE}.data
read_data BaTiO3-sc333.data
Reading data file ...
  orthogonal box = (0 0 0) to (11.898253 11.898253 12.912076)
  2 by 4 by 4 MPI processor grid
  reading atoms ...
  135 atoms
  read_data CPU = 0.006 seconds
replicate $L $L $L
replicate 2 $L $L
replicate 2 2 $L
replicate 2 2 2
Replication is creating a 2x2x2 = 8 times larger system...
  orthogonal box = (0 0 0) to (23.796507 23.796507 25.824152)
  2 by 4 by 4 MPI processor grid
  1080 atoms
  replicate CPU = 0.004 seconds

pair_style allegro
pair_coeff	* * ${MODEL}.pth Ba Ti O
pair_coeff	* * BaTiO3-E0.pth Ba Ti O
mass 1 137.3
mass 2 47.9
mass 3 15.9994

timestep 0.002
compute polarization all allegro polarization 3
compute allegro will evaluate the quantity polarization of length 3 (src/compute_allegro.cpp:53)
compute polarizability all allegro polarizability 9
compute allegro will evaluate the quantity polarizability of length 9 (src/compute_allegro.cpp:53)

thermo_style custom pe fmax fnorm spcpu cpuremain

variable efield equal 1e-2*36.36
fix born all addbornforce 0.0 0.0 ${efield}
fix born all addbornforce 0.0 0.0 0.3636

thermo 10
min_style fire
#minimize 0.0 1e-6 100 100
velocity all create ${TEMP} ${SEED} dist gaussian rot yes mom yes
velocity all create 330 ${SEED} dist gaussian rot yes mom yes
velocity all create 330 29212 dist gaussian rot yes mom yes
fix nvt all nvt temp ${TEMP} ${TEMP} $(100*dt)
fix nvt all nvt temp 330 ${TEMP} $(100*dt)
fix nvt all nvt temp 330 330 $(100*dt)
fix nvt all nvt temp 330 330 0.2000000000000000111
run 5000
Neighbor list info ...
  update: every = 1 steps, delay = 0 steps, check = yes
  max neighbors/atom: 2000, page size: 100000
  master list distance cutoff = 8
  ghost atom cutoff = 8
  binsize = 8, bins = 3 3 4
  1 neighbor lists, perpetual/occasional/extra = 1 0 0
  (1) pair allegro/kk, perpetual
      attributes: full, newton on, kokkos_device
      pair build: full/bin/kk/device
      stencil: full/bin/3d
      bin: kk/device
Per MPI rank memory allocation (min/avg/max) = 3.516 | 3.516 | 3.516 Mbytes
    PotEng          Fmax          Fnorm          S/CPU         CPULeft    
-807708.29      1.5961489      37.044612      0              0            
-807644.86      3.3638663      45.650452      2.2665672      2201.5682    
-807633.98      2.2702737      35.703137      25.927328      1194.6159    
-807606.12      2.7750517      37.436759      25.901836      858.77073    
-807602.07      3.7810558      50.379437      25.896107      690.66576    
-807567.48      3.3917312      40.180995      25.851124      589.71484    
-807599.61      2.713199       39.141782      25.91191       522.21056    
-807644.57      3.4350471      33.811152      25.954248      473.83862    
-807683.83      2.4509971      34.235057      25.948529      437.46857    
-807666.26      2.9480777      34.672841      25.870504      409.15852    
-807651.23      3.1990726      35.257048      25.949135      386.3758     
-807659.03      2.6341361      27.643699      25.942459      367.6697     
-807626.83      2.8989219      31.294267      25.904789      352.03985    
-807584.99      3.1511905      40.419025      25.894945      338.76069    
-807566.43      3.1704574      38.10433       25.9575        327.29109    
-807629.52      3.6091159      34.1699        25.937027      317.30923    
-807651.77      4.0637074      31.329812      25.940678      308.52527    
-807664.16      3.1018684      34.587199      25.936895      300.73096    
-807644.78      4.370432       45.492991      25.985624      293.74049    
-807678.06      2.6184061      36.959887      25.905674      287.47541    
-807640.31      3.9712999      40.022182      25.898496      281.80081    
-807616.5       2.7988924      39.280529      25.908918      276.62633    
-807557.91      4.2810979      46.972002      25.948181      271.87448    
-807603.1       4.1319274      49.459635      25.901147      267.51684    
-807610.06      3.8650544      39.75791       25.874141      263.49815    
-807640.59      2.9687576      35.721715      25.939954      259.75141    
-807639.72      5.0334796      45.860549      25.947217      256.26125    
-807680.17      2.9610996      38.035476      25.8988        253.0137     
-807662.12      3.3589479      35.119838      25.856166      249.98127    
-807639.34      3.0044852      32.42541       25.927915      247.11392    
-807604.65      3.1784122      34.615475      25.956634      244.40533    
-807603.09      4.4343196      42.446297      25.924432      241.85387    
-807594.09      3.6723658      36.866135      25.808484      239.46311    
-807606.16      2.8587272      34.111658      25.959895      237.16179    
-807637.91      3.3644582      31.582896      25.968705      234.97138    
-807671.33      2.549769       32.513023      25.910925      232.89555    
-807675.32      2.6365686      33.432885      25.826569      230.92984    
-807644.26      4.2416345      38.46919       25.945364      229.02728    
-807645.83      2.7629464      31.654914      25.961547      227.20164    
-807621.98      3.7182938      34.00254       25.944382      225.45289    
-807599.45      4.4256047      43.950964      25.882363      223.78292    
-807565.77      3.9140247      41.970463      25.98486       222.1585     
-807618.88      3.3098504      36.597424      25.928333      220.60227    
-807645.72      3.8279389      36.414462      25.915132      219.10256    
-807671.54      2.9779206      36.008388      25.877461      217.65931    
-807640.69      4.5287653      47.372515      25.912083      216.2578     
-807665.25      2.8774775      36.390279      25.928394      214.89806    
-807644.05      3.3044851      37.145588      25.886102      213.58583    
-807626.48      3.5489219      38.405931      25.947278      212.30361    
-807562.45      3.5586154      44.019398      25.968606      211.05508    
-807596.51      3.4812737      44.82598       25.947744      209.84388    
-807618.38      3.744416       36.46443       25.938408      208.66629    
-807651.61      3.0935881      33.584877      25.948764      207.51782    
-807639.54      5.5064416      42.05782       25.941933      206.39901    
-807670.49      2.9370615      35.360523      25.93822       205.30783    
-807664.62      3.0474871      34.711467      25.856049      204.25221    
-807644.28      3.01704        31.458271      25.941787      203.21034    
-807602.45      3.1295429      35.202194      25.967617      202.18853    
-807594.5       3.1008853      38.708575      25.94041       201.19175    
-807601.3       3.9658479      40.631622      25.860247      200.22462    
-807615.96      3.1995901      33.167027      25.962385      199.26569    
-807633.62      3.4916357      33.221195      25.967263      198.32504    
-807659.73      2.8126832      34.700959      25.93271       197.40594    
-807674.99      3.0301888      36.477416      25.848525      196.51249    
-807645.27      6.0881854      39.690263      25.869657      195.63272    
-807635.57      3.0216805      34.199785      25.954498      194.75967    
-807612.74      4.332861       37.015367      25.902356      193.9065     
-807603.99      4.2943275      45.893149      25.901733      193.06733    
-807575.95      4.1833223      42.010971      25.894121      192.2422     
-807608.35      3.0978124      38.280855      25.963732      191.42334    
-807639.36      3.8856819      37.853527      25.917219      190.62111    
-807672.36      2.7645072      36.7938        25.898782      189.83227    
-807646.75      4.3760808      42.979793      25.926506      189.05216    
-807650.99      2.837732       36.752962      25.952447      188.28061    
-807642.15      3.4865271      35.72989       25.940842      187.52048    
-807627.01      4.0038688      37.642357      25.938112      186.77058    
-807575.93      3.2073082      40.031364      25.98056       186.02675    
-807582.91      3.1472024      42.099593      25.970603      185.29305    
-807619.82      3.2550122      34.752668      25.983526      184.56726    
-807655.25      3.4349093      32.918983      25.953496      183.85247    
-807647.69      3.2034696      37.227642      25.936078      183.14727    
-807655.59      4.0766292      36.840296      25.837204      182.4576     
-807662.13      2.6099841      34.451339      25.885559      181.77163    
-807645.01      3.0614629      33.090353      25.923446      181.09004    
-807605.82      3.1588714      36.05909       25.957086      180.41302    
-807581.74      4.0396867      40.610988      25.930394      179.7448     
-807599.17      4.4140458      41.729327      25.914189      179.08431    
-807622.18      3.7943609      35.607357      25.914395      178.43012    
-807636.08      3.291289       34.505974      25.905862      177.78262    
-807646.72      4.3865778      39.069851      25.952799      177.13778    
-807669.41      2.6029804      36.445221      25.866246      176.50457    
-807653.59      4.190917       36.486105      25.843929      175.87829    
-807632.34      3.2915908      34.470268      25.948562      175.25029    
-807604.45      3.7429085      37.176933      25.954023      174.62715    
-807603.71      3.7514082      43.420801      25.898753      174.01263    
-807592.4       5.0235454      38.602333      25.910541      173.40216    
-807610.45      3.598159       36.772518      25.947349      172.79407    
-807634.67      4.2567757      36.172991      25.899531      172.19353    
-807666.91      3.1807317      36.146159      25.847489      171.60055    
-807657.5       4.3358796      37.209863      25.868484      171.01046    
-807647.06      2.9318622      35.219529      25.956314      170.41921    
-807634.81      3.9467896      34.659919      25.940918      169.83294    
-807624.88      3.3715343      37.409399      25.945637      169.25034    
-807590.84      3.2523565      38.835859      25.962729      168.67059    
-807584.21      3.5796788      40.695915      25.958032      168.09484    
-807616.77      3.1149173      34.710787      25.932714      167.52414    
-807653.39      2.8388245      33.157494      25.939611      166.95655    
-807657.12      2.6396487      34.494062      25.92254       166.39329    
-807649.4       3.4685966      36.962625      25.902675      165.8344     
-807656.55      2.9342001      33.453188      25.886556      165.27954    
-807644.1       3.3876817      32.586413      25.898205      164.72713    
-807614.97      3.0715703      34.260251      25.918599      164.17665    
-807577.65      4.5833493      39.934994      25.941276      163.62794    
-807601.45      3.5556585      39.134549      25.926878      163.08285    
-807625.75      3.3346238      35.291029      25.831439      162.54539    
-807644.68      3.0757991      34.341586      25.900033      162.0071     
-807643.12      4.6513599      39.686378      25.895756      161.47166    
-807663.93      2.6258764      35.94293       25.889459      160.93907    
-807652.59      3.1810706      37.0819        25.893733      160.40875    
-807634.74      3.2228409      34.575896      25.94964       159.87819    
-807595.91      3.8202176      38.99414       25.999427      159.34772    
-807600.26      3.4983719      40.895425      25.975518      158.82077    
-807600.65      3.804292       38.619058      25.866135      158.30118    
-807622.93      3.3939343      33.941786      25.900122      157.78221    
-807633.13      3.4892961      35.893495      25.933424      157.26387    
-807662.06      3.0425654      34.565786      25.860659      156.75092    
-807659.25      3.1199013      35.582046      25.853011      156.2403     
-807647.46      3.2526889      33.791893      25.889103      155.73006    
-807624.24      3.8472075      34.049094      25.958738      155.21874    
-807616.77      3.1764066      35.310236      25.919941      154.71103    
-807598.96      3.6633913      38.673177      25.867653      154.20742    
-807594.6       3.790316       38.844954      25.923832      153.70323    
-807616.09      4.0199648      34.898767      25.933932      153.20042    
-807647.82      4.5560553      34.431689      25.938992      152.69917    
-807659.36      2.896374       35.702733      25.892057      152.20155    
-807648.83      3.3521474      37.672364      25.943842      151.70349    
-807643.79      3.5270573      35.239215      25.916455      151.20819    
-807635.59      3.1446043      33.977574      25.892867      150.71541    
-807615.49      3.2072076      36.718109      25.902943      150.22378    
-807584.52      3.1405985      38.551436      25.948365      149.73192    
-807595.97      3.2453524      38.165487      25.951813      149.24145    
-807628.04      3.7786961      34.836121      25.919158      148.7537     
-807650.58      2.9646634      33.929647      25.8915        148.26843    
-807644.87      4.8287355      38.1117        25.907527      147.78395    
-807653.52      3.5303374      35.790436      25.949767      147.29928    
-807649.92      4.0962444      36.037548      25.904255      146.81764    
-807636.05      3.7416606      35.158745      25.936656      146.33614    
-807595.81      4.5631615      38.993299      25.96225       145.85503    
-807591.37      3.1049749      40.418103      25.896164      145.37756    
-807603.28      3.554621       38.964535      25.921921      144.9004     
-807630.04      2.8804106      34.948722      25.885401      144.42574    
-807633.04      3.8660675      37.451139      25.940613      143.95035    
-807654.01      2.8711594      35.535299      25.927089      143.4766     
-807656.63      3.5993377      36.791214      25.844546      143.00679    
-807647.62      2.9638237      34.951983      25.84881       142.53792    
-807620.07      5.3752915      35.739066      25.942554      142.06699    
-807605.11      3.305398       37.473951      25.9513        141.59688    
-807599.29      4.2523422      39.933586      25.885958      141.12997    
-807605.83      3.7056783      37.265634      25.902779      140.66353    
-807616.98      3.6308298      35.581657      25.961675      140.19623    
-807643.59      3.8393754      33.95875       25.887755      139.73229    
-807660.32      2.960531       35.014702      25.932058      139.26793    
-807654.17      3.4207649      35.293333      25.868004      138.80653    
-807637.31      3.6402887      35.553861      25.949466      138.34354    
-807627.69      4.7734838      34.340605      25.923498      137.88229    
-807615.6       3.5196407      37.551422      25.994985      137.4198     
-807592.9       4.2276956      40.054635      25.927202      136.96027    
-807600.02      3.3595885      38.290891      25.921086      136.5018     
-807625.11      3.5327606      36.192949      25.914692      136.04439    
-807652.76      3.5233664      35.034333      25.91806       135.58773    
-807649.08      3.960933       37.029834      25.949334      135.131      
-807648.22      2.884667       36.325433      25.919233      134.67596    
-807645.32      3.3998951      34.329485      25.921227      134.22167    
-807635         2.9315831      33.585402      25.95026       133.76736    
-807604.42      3.5303111      36.482225      25.937803      133.31419    
-807592.12      2.8647768      38.143938      25.952029      132.8614     
-807608.92      2.9834743      35.293182      25.949837      132.40943    
-807637.3       2.7191348      33.361663      25.894478      131.95972    
-807642.13      3.3149704      35.121939      25.950651      131.50922    
-807648.68      3.9365987      35.975713      25.910785      131.0605     
-807652.55      3.9558007      36.10753       25.975216      130.61078    
-807647.37      3.4622527      34.381285      25.866583      130.16462    
-807622.72      3.8753826      35.529277      25.893813      129.71841    
-807600.97      4.0552172      38.455079      26.018897      129.26964    
-807600.57      3.9500444      39.227856      25.925841      128.82394    
-807615.89      3.8021707      36.880756      25.885363      128.37991    
-807629.74      2.955606       33.81925       25.902371      127.93608    
-807637.73      3.4441556      36.782592      25.932753      127.4921     
-807655.76      3.481904       35.54339       25.931522      127.04878    
-807650.31      3.6502869      36.657027      25.861014      126.6078     
-807639.24      3.2600094      34.297409      25.901903      126.16639    
-807616.88      3.3693382      35.845443      25.93863       125.72468    
-807612.4       3.6586526      37.13424       25.913214      125.28416    
-807603.47      3.5293978      37.712286      25.827511      124.84625    
-807610.19      3.731311       36.452367      25.888504      124.40741    
-807626.15      3.3085909      34.669919      25.932931      123.96808    
-807648.3       3.5335868      34.587878      25.919153      123.52962    
-807651.01      3.6398768      36.458796      25.875053      123.09271    
-807644.57      4.0753935      35.844975      25.902535      122.65567    
-807634.18      3.4257966      35.441102      25.857572      122.22017    
-807627.85      3.3418129      35.154917      25.930527      121.78352    
-807607.04      3.4976102      38.581635      25.919392      121.34763    
-807597.55      3.5099745      38.761085      25.926845      120.91206    
-807609.88      2.8664309      37.010989      25.957905      120.47632    
-807634.81      3.5528966      35.351954      25.948624      120.04126    
-807646.84      2.6102461      35.042615      25.916371      119.60739    
-807643.64      3.0003485      36.788457      25.895284      119.17443    
-807645.87      3.268195       35.133212      25.858063      118.7427     
-807639.58      3.0389958      34.544901      25.861757      118.31133    
-807623.61      2.9108922      34.891133      25.85288       117.88058    
-807597.51      3.5076933      37.301391      25.908708      117.44909    
-807600.23      3.4747631      37.476998      25.874848      117.01873    
-807616.16      3.6758821      37.230963      25.915039      116.58796    
-807635.23      3.3434928      35.379634      25.856073      116.1588     
-807637.78      4.2995207      37.29937       25.868756      115.72979    
-807648.61      3.1820657      36.057077      25.903608      115.30048    
-807648.32      4.1693969      36.590588      25.923142      114.87119    
-807636.69      3.3412523      35.391262      25.893246      114.44288    
-807610.15      4.3555064      36.833996      25.918055      114.01448    
-807604.87      3.9673355      36.966882      25.946315      113.58593    
-807602.94      3.8317675      38.412195      25.91101       113.15844    
-807616.5       2.8936102      35.430868      25.864275      112.7322     
-807627.09      3.1080357      34.44475       25.998648      112.30382    
-807644.97      3.1525271      35.095803      25.986941      111.87605    
-807651.4       3.3017499      35.447209      25.883557      111.45055    
-807643.76      4.0204571      36.727016      25.873052      111.0256     
-807629.23      4.6074872      36.88606       25.881274      110.60083    
-807618.11      3.4356988      36.867469      25.940942      110.17534    
-807608.93      3.5966971      38.456648      25.899462      109.75093    
-807602.45      3.6199951      38.919368      25.858726      109.32758    
-807615.74      3.6192112      36.181432      25.917342      108.90352    
-807633.95      3.0213202      35.920687      25.965856      108.47895    
-807648.26      4.023157       35.399157      25.893925      108.05595    
-807645.51      3.4581422      35.896839      25.853865      107.63396    
-807641.64      4.012854       35.252045      25.915245      107.21123    
-807632.59      3.4745038      34.44864       25.869196      106.78958    
-807621.83      3.19456        35.776763      25.848484      106.36858    
-807604.26      3.0857229      37.071039      25.838487      105.94804    
-807605.04      3.4023036      37.26201       25.865775      105.52732    
-807619.86      3.3476847      36.569796      25.858903      105.10701    
-807640.14      2.7283671      34.683948      25.949198      104.68551    
-807644.24      3.9288585      36.111988      25.904105      104.26504    
-807645.32      3.6790741      35.729657      25.944228      103.84421    
-807642.82      4.0043546      35.674353      25.900258      103.42437    
-807635.36      3.5371339      34.819137      25.925432      103.00441    
-807614         3.9723766      36.427014      25.935036      102.58458    
-807601.8       4.8384189      37.852398      25.952005      102.16477    
-807609.71      4.3254885      37.407423      25.961388      101.7451     
-807625.42      4.5368469      35.861918      26.011088      101.32496    
-807635.05      3.4580096      34.779654      25.968705      100.90573    
-807644.91      3.7703559      35.126097      25.96298       100.48687    
-807649.69      3.6244178      35.234302      25.954932      100.06839    
-807643.2       3.8123006      35.385785      25.86956       99.651424    
-807629.28      3.7993617      34.260508      25.864625      99.234772    
-807612.03      3.8122089      35.149973      25.862598      98.818387    
-807607.58      3.5409528      37.221347      25.850906      98.402402    
-807611.36      3.694549       36.727595      25.870112      97.986371    
-807623.51      2.8586501      34.455007      25.891214      97.570272    
-807634.95      3.5628389      35.095538      25.934364      97.153801    
-807648.89      3.1078219      34.656966      25.914832      96.73784     
-807648.05      4.4667994      35.887035      25.876587      96.322635    
-807640.19      3.4903743      35.257223      25.865228      95.907808    
-807625.5       3.7883456      35.754005      25.897949      95.492751    
-807618.27      3.4236786      35.97206       25.883028      95.078116    
-807605.87      3.6328454      37.947337      25.909786      94.663337    
-807609.09      3.6678192      36.877267      25.930235      94.248507    
-807621.36      3.8302341      35.642596      25.916643      93.834073    
-807640.65      3.3459122      35.112499      25.917065      93.419849    
-807644.81      4.4080658      36.01966       25.907972      93.005953    
-807645.07      4.303398       35.777682      25.809964      92.593523    
-807636.83      5.3510983      36.336216      25.905352      92.180063    
-807628.51      3.1133664      35.545293      25.897611      91.766904    
-807612.04      3.5525979      36.609586      25.861168      91.354399    
-807602.21      2.7494298      37.935958      25.916906      90.941392    
-807610.01      3.4073232      37.090993      25.92932       90.52843     
-807628.94      2.6528484      34.504394      25.941619      90.115518    
-807638.42      3.1319422      34.554952      25.919815      89.703067    
-807643.48      3.2735838      35.169817      25.928075      89.29071     
-807644.34      3.9871912      35.753709      25.869518      88.879242    
-807640.34      2.7144968      34.367074      25.880778      88.46782     
-807625.24      3.1278331      34.882037      25.884685      88.05653     
-807606.59      3.4487735      37.754466      25.90202       87.645217    
-807604.43      3.3380264      37.796463      25.854677      87.234628    
-807614.3       2.8793734      36.372379      25.863499      86.824108    
-807629.16      3.0703473      35.179276      25.937075      86.412921    
-807636.59      4.1175457      35.720445      25.921898      86.002084    
-807646.82      3.1527086      35.453367      25.912098      85.591532    
-807644.86      3.1624942      36.244304      25.86335       85.181691    
-807637.62      2.9168344      35.123748      25.925902      84.771325    
-807619.43      3.2410147      36.418164      25.951413      84.360852    
-807612.05      3.6448063      37.200721      25.937845      83.950699    
-807605.95      3.5783509      38.127099      25.916605      83.540942    
-807617.4       3.020792       36.810876      25.969756      83.130786    
-807627.14      3.4955581      36.033372      25.920251      82.721321    
-807643.05      4.316982       35.715691      25.898895      82.312239    
-807645.39      3.5953899      36.294857      25.89526       81.903351    
-807645.3       3.0178043      35.468561      25.897134      81.494598    
-807634.89      3.3355737      34.995066      25.888696      81.086082    
-807621.98      3.5720745      35.880101      25.874076      80.677864    
-807611.31      3.1715946      36.006318      25.856031      80.269973    
-807608.25      3.5082628      36.99711       25.894787      79.861836    
-807617.99      2.7764679      35.063731      25.929827      79.453501    
-807632.34      3.2537521      35.079073      25.92585       79.045354    
-807643.48      3.410342       35.026364      25.923179      78.637382    
-807647.49      3.1953435      35.031961      25.886875      78.229904    
-807641.92      3.527131       35.176595      25.918379      77.822265    
-807633.1       4.3777096      35.721111      25.890283      77.415034    
-807621.32      3.225811       35.976878      25.894239      77.007903    
-807607.85      4.632336       37.651437      25.92385       76.600632    
-807607.81      3.7126796      37.413685      25.89578       76.19376     
-807619.98      4.9571506      36.881266      25.925489      75.78675     
-807635.51      3.6873214      35.394018      25.928493      75.379849    
-807640.8       4.2819643      36.245959      25.955346      74.972844    
-807645.91      3.6528577      36.096673      25.959487      74.565942    
-807641.41      4.657141       36.484912      25.922438      74.159503    
-807633.24      3.2985456      35.556386      25.894066      73.753444    
-807616.34      4.4411246      36.141905      25.932983      73.347174    
-807607.77      3.5512834      37.880073      25.950486      72.940883    
-807609.29      3.5495799      37.154389      25.920289      72.534982    
-807622.34      3.2011223      36.292114      25.942888      72.129015    
-807632.4       3.3354407      35.708332      25.973459      71.722922    
-807644.42      3.4451052      35.748825      25.937375      71.317258    
-807645.23      4.6230513      36.009548      25.909318      70.911951    
-807641.09      3.4235471      35.87401       25.891439      70.506909    
-807629.52      2.7814646      34.947248      25.894347      70.10196     
-807616.47      3.4092317      36.257452      25.872599      69.697301    
-807607.92      3.3693668      37.329818      25.824287      69.293139    
-807610.59      3.2170233      37.424317      25.888148      68.888575    
-807620.56      3.5810326      35.729963      25.854738      68.484385    
-807633.3       3.3479791      36.407856      25.924235      68.079762    
-807643.21      3.6027619      36.209781      25.893668      67.675487    
-807644.75      3.0364989      36.055608      25.910874      67.271191    
-807638.9       4.1349397      37.014554      25.872346      66.867297    
-807626.09      3.2740719      36.070141      25.904522      66.463266    
-807615.73      4.7678112      37.74392       25.920908      66.059222    
-807606.59      3.5929131      37.775267      25.931316      65.65521     
-807610.23      3.4781698      36.783561      25.933617      65.251291    
-807621.92      3.5588186      36.098465      25.934824      64.847472    
-807636.35      3.376124       34.889403      25.946371      64.443678    
-807643.61      3.7197006      35.10962       25.930141      64.040108    
-807644.9       3.4838789      35.205419      25.86434       63.637105    
-807638.75      3.8596994      34.476193      25.906172      63.233907    
-807630.43      3.9892778      34.828289      25.894492      62.830889    
-807615.25      3.3951622      35.454257      25.871594      62.428127    
-807608.46      3.6389451      37.914399      25.92608       62.02509     
-807612.13      3.0785737      35.800023      25.922583      61.622177    
-807625.75      3.2202732      34.819527      25.910007      61.219446    
-807636.99      3.1565865      34.829651      25.8728        60.817058    
-807644.28      2.8790034      34.964801      25.920542      60.414449    
-807643.08      4.2100456      35.626412      25.920673      60.011936    
-807640.82      3.7693405      34.82195       25.916352      59.609546    
-807628.58      2.7993175      34.449819      25.958258      59.206985    
-807616.57      3.8322903      35.619219      25.934636      58.804671    
-807608.55      3.4298578      36.649908      25.941262      58.402411    
-807617.13      3.1905527      35.956373      25.949978      58.000192    
-807627.93      3.6483896      34.577334      25.961548      57.597998    
-807637.7       3.4354569      34.934968      25.882158      57.196377    
-807644.64      2.6179014      34.397135      25.85761       56.794988    
-807642.18      2.9990138      35.642885      25.980948      56.392954    
-807640.08      3.1919153      33.392877      25.95392       55.991172    
-807625.46      3.6070643      34.624181      25.939866      55.589563    
-807614.85      3.1832576      35.645069      25.931494      55.188091    
-807611.4       3.2171482      36.490362      25.909036      54.786834    
-807618.07      2.9709015      35.935874      25.943969      54.385465    
-807625.33      3.3125118      35.659555      25.87078       53.984591    
-807639.4       3.8852745      34.5646        25.904588      53.583609    
-807643.86      3.1902822      36.149126      25.871748      53.182888    
-807644.18      3.2523196      34.642314      25.856517      52.782327    
-807632.67      3.2608377      35.30842       25.873693      52.381749    
-807625.24      3.2220494      34.446145      25.886917      51.981177    
-807613.37      2.9120785      35.886673      25.949207      51.580356    
-807613.31      3.209474       36.061651      25.914603      51.179798    
-807613.71      3.2448472      36.64761       25.86799       50.779558    
-807630.67      3.2820386      34.252849      25.944387      50.379004    
-807639.84      2.9099659      34.875978      25.922621      49.978639    
-807642.86      2.9275008      35.745976      25.904115      49.578445    
-807641.09      3.1359169      34.917547      25.916943      49.178262    
-807634.23      3.2942966      34.058585      25.939791      48.778044    
-807622.99      3.8495599      34.888393      25.923991      48.377981    
-807612.23      3.0768346      36.364092      25.920256      47.97801     
-807609.64      3.0256204      36.439181      25.922198      47.578105    
-807617.97      3.093731       35.591548      25.917286      47.178298    
-807631.76      4.1602664      34.660665      25.962565      46.778355    
-807640.3       3.3999734      34.661774      25.918083      46.378691    
-807641.97      3.2721824      36.177912      25.96629       45.978883    
-807640.66      3.0977773      35.712103      25.875245      45.579557    
-807633.68      3.2140598      35.639873      25.904372      45.180168    
-807619.42      3.7403008      35.722376      25.898497      44.780874    
-807610.85      3.3923067      37.35686       25.963323      44.38137     
-807611.55      4.1147633      36.461014      25.943612      43.982023    
-807618.65      3.1972523      36.539468      25.916352      43.582861    
-807631.16      4.0441075      35.361284      25.925798      43.183729    
-807641.8       2.8489086      34.652516      25.93714       42.784618    
-807642.58      3.659746       35.703271      25.916366      42.385661    
-807639.78      3.1480729      35.629581      25.855238      41.987015    
-807631.07      3.2731783      35.027721      25.911118      41.588208    
-807620.14      3.8604337      36.067266      25.931179      41.189387    
-807609.93      3.2019885      36.599495      25.943076      40.790588    
-807611.63      4.1152258      37.974228      25.849613      40.392212    
-807621.01      3.9399216      34.567636      25.874511      39.993799    
-807631.87      5.3452252      35.331861      25.955868      39.595144    
-807641.48      3.4806881      34.980565      25.948201      39.196583    
-807644.45      5.0404176      34.958876      25.867214      38.798383    
-807638.2       3.4320528      34.518247      25.856811      38.400277    
-807631.15      4.4115078      34.478982      25.923846      38.00199     
-807619.42      4.1719434      35.30833       25.908568      37.603818    
-807612.65      3.2998855      36.150668      25.871056      37.205835    
-807614.66      3.3488442      36.521123      25.925428      36.807724    
-807621.9       3.7507385      35.742268      25.888963      36.409796    
-807634.76      3.9903196      34.64285       25.830638      36.012119    
-807641.6       3.95559        34.468166      25.84721       35.614439    
-807642.98      4.1881131      35.584684      25.844252      35.216822    
-807637.49      3.325638       34.300122      25.872084      34.819167    
-807630.25      2.8038793      34.590092      25.903487      34.421467    
-807620.28      3.0073874      34.488527      25.946606      34.02369     
-807614.35      3.2156723      35.898447      25.874525      33.626193    
-807616.39      3.2736355      35.465858      25.899078      33.228675    
-807626.03      2.7239825      34.765218      25.883754      32.831257    
-807633.45      3.5607386      35.535451      25.892839      32.433866    
-807643.67      3.3324957      34.525449      25.919678      32.03645     
-807641.11      3.1629039      35.416121      25.959251      31.638978    
-807639.09      3.4270844      34.956972      25.95663       31.241571    
-807629.65      3.0634594      34.543186      25.887156      30.844413    
-807621.52      3.1954677      35.446427      25.942404      30.447157    
-807614.66      3.2544442      35.872429      25.910223      30.050042    
-807618.96      2.7361466      35.470457      25.94877       29.652878    
-807626.66      3.1474154      34.720344      25.865733      29.255985    
-807637.16      3.7184875      34.514283      25.82937       28.859233    
-807641.67      2.7975816      34.685823      25.822997      28.462541    
-807641.66      3.4820575      35.545294      25.841411      28.065849    
-807637.35      3.9983525      34.701485      25.89363       27.669074    
-807628.48      3.7385059      35.911951      25.448214      27.27343     
-807618.96      2.792817       35.583118      25.88636       26.876752    
-807613.04      3.7498089      36.779588      25.901458      26.480087    
-807618.07      3.1198023      36.114132      25.917778      26.083434    
-807626.96      4.7972208      35.397788      25.916821      25.686833    
-807634.88      3.4964282      35.077865      25.891687      25.290336    
-807640.39      3.7753947      35.523961      25.923883      24.893817    
-807642.43      3.2580725      34.845996      25.804015      24.497601    
-807636.41      3.3693681      34.858825      25.923292      24.101176    
-807627.65      3.3672239      34.261541      25.952283      23.704741    
-807615.94      3.3020705      36.002183      25.891856      23.308478    
-807616.65      3.3951047      36.312104      25.944966      22.912155    
-807617.09      3.0638755      36.348466      25.865526      22.516034    
-807626.22      3.7345998      35.825514      25.82859       22.120026    
-807635.31      2.6761702      34.502688      25.890852      21.723943    
-807639.2       3.6289137      35.885898      25.887519      21.327909    
-807638.62      3.2710307      35.576422      25.857104      20.931973    
-807632.72      3.6245925      36.025837      25.908336      20.535989    
-807625.64      3.2921832      35.682476      25.952112      20.139976    
-807616.43      3.5120035      37.886387      25.924516      19.744056    
-807614.62      3.4085256      37.024728      25.976138      19.348098    
-807619.35      3.5493925      37.066659      25.992822      18.952163    
-807626.24      3.9720414      37.240345      25.964635      18.55632     
-807635.49      3.0110768      36.603407      25.93176       18.160574    
-807638.92      2.8331886      35.927002      25.982582      17.764797    
-807636.25      2.9361805      35.81089       25.950574      17.369114    
-807631.78      3.5540473      35.515726      25.951764      16.973475    
-807625         3.412213       35.3395        25.988996      16.577831    
-807615.97      3.0776667      36.462092      25.953528      16.18228     
-807613.77      3.3759726      36.410718      25.924018      15.786812    
-807621.43      3.1146766      36.026076      25.934442      15.391374    
-807628.59      3.0887385      35.930562      25.923272      14.995991    
-807634.96      3.381762       35.980683      25.916834      14.600658    
-807637.41      4.2332186      36.07434       25.881132      14.205407    
-807637.97      3.2650522      35.488917      25.834057      13.810247    
-807630.46      3.4343265      35.969606      25.862662      13.415091    
-807620.63      2.8897564      36.218798      25.880739      13.019952    
-807615.09      3.8470507      36.48839       25.968421      12.624761    
-807615.47      3.2979013      36.774763      25.955593      12.229626    
-807621.5       3.5675558      36.146165      25.891658      11.834593    
-807627.64      2.9421503      35.970448      25.893708      11.439596    
-807635.44      3.9132761      36.242793      25.912458      11.04462     
-807638.98      4.4252131      35.896078      25.903059      10.64969     
-807637.3       4.4278974      35.585073      25.862596      10.254831    
-807630.03      3.2111166      35.670782      25.893877      9.8599811    
-807621.33      4.1084678      35.910243      25.930178      9.4651408    
-807617.63      3.4513701      36.923204      25.977604      9.070305     
-807617.48      3.4002722      36.598075      25.899413      8.6755641    
-807622.76      3.2153788      35.487448      25.870246      8.2808784    
-807630.36      2.980995       35.054015      25.864395      7.8862302    
-807638.24      3.3057522      35.143044      25.839712      7.4916299    
-807638.43      3.0262219      34.796724      23.098434      7.0987764    
-807636.1       3.2330659      34.695303      25.938158      6.7040886    
-807629.58      3.8036197      35.121268      25.939991      6.3094378    
-807623.09      3.4031261      35.237792      25.94724       5.9148214    
-807617.44      3.1310884      36.842149      25.949525      5.5202419    
-807619.57      3.0991632      35.845372      25.927008      5.1257092    
-807625.09      4.0018813      36.029019      25.923525      4.731214     
-807632.1       3.597996       35.650744      25.88692       4.3367668    
-807638.13      2.9795426      35.88912       25.898828      3.9423493    
-807638.5       4.3741265      35.39627       25.878686      3.5479711    
-807636.03      3.1696606      34.97986       25.919691      3.1536153    
-807628.36      2.6157679      34.736436      25.918344      2.7592945    
-807623.34      3.2128052      34.947242      25.865769      2.3650176    
-807618.16      2.7282239      35.089208      25.861503      1.9707723    
-807619.6       3.6327423      35.602226      25.890754      1.576554     
-807627.24      4.4915393      35.326283      25.883846      1.1823684    
-807633.48      3.6807548      35.959063      25.871545      0.7882151    
-807639.09      4.3968947      34.978661      25.932493      0.39409053   
-807636.93      3.4077228      35.837141      25.920118      0            
Loop time of 197.037 on 32 procs for 5000 steps with 1080 atoms

Performance: 4.385 ns/day, 5.473 hours/ns, 25.376 timesteps/s, 27.406 katom-step/s
66.9% CPU use with 32 MPI tasks x 1 OpenMP threads

MPI task timing breakdown:
Section |  min time  |  avg time  |  max time  |%varavg| %total
---------------------------------------------------------------
Pair    | 101.61     | 144.28     | 192.94     | 311.8 | 73.22
Neigh   | 0          | 0          | 0          |   0.0 |  0.00
Comm    | 1.7573     | 50.41      | 93.085     | 527.5 | 25.58
Output  | 0.029428   | 0.030213   | 0.03143    |   0.3 |  0.02
Modify  | 1.9778     | 1.9959     | 2.0143     |   0.7 |  1.01
Other   |            | 0.3218     |            |       |  0.16

Nlocal:          33.75 ave          48 max          21 min
Histogram: 8 8 0 0 0 0 0 8 0 8
Nghost:        1106.25 ave        1119 max        1092 min
Histogram: 8 0 8 0 0 0 0 0 8 8
Neighs:              0 ave           0 max           0 min
Histogram: 32 0 0 0 0 0 0 0 0 0
FullNghs:       5494.5 ave        7896 max        3378 min
Histogram: 8 8 0 0 0 0 0 8 0 8

Total # of neighbors = 175824
Ave neighs/atom = 162.8
Neighbor list builds = 0
Dangerous builds = 0

reset_timestep 0


variable interval equal 1000
thermo 10

variable nintervals equal $(v_PERIOD/v_interval)
variable nintervals equal 100
variable efield equal 1e-2*36.36*cos((step/${PERIOD})*2*3.14)
variable efield equal 1e-2*36.36*cos((step/100000)*2*3.14)
fix born all addbornforce 0.0 0.0 v_efield

variable Px equal f_born[1]+c_polarization[1]
variable Py equal f_born[2]+c_polarization[2]
variable Pz equal (f_born[3]+c_polarization[3])/vol
variable pe equal pe

fix aveP all ave/time 1 $(v_interval/2) ${interval} v_efield v_Pz v_pe f_born file Pz.${MODEL}.${STRUCTURE}.${TEMP}.$L.${ITER}
fix aveP all ave/time 1 500 ${interval} v_efield v_Pz v_pe f_born file Pz.${MODEL}.${STRUCTURE}.${TEMP}.$L.${ITER}
fix aveP all ave/time 1 500 1000 v_efield v_Pz v_pe f_born file Pz.${MODEL}.${STRUCTURE}.${TEMP}.$L.${ITER}
fix aveP all ave/time 1 500 1000 v_efield v_Pz v_pe f_born file Pz.BaTiO3-E0.${STRUCTURE}.${TEMP}.$L.${ITER}
fix aveP all ave/time 1 500 1000 v_efield v_Pz v_pe f_born file Pz.BaTiO3-E0.BaTiO3-sc333.${TEMP}.$L.${ITER}
fix aveP all ave/time 1 500 1000 v_efield v_Pz v_pe f_born file Pz.BaTiO3-E0.BaTiO3-sc333.330.$L.${ITER}
fix aveP all ave/time 1 500 1000 v_efield v_Pz v_pe f_born file Pz.BaTiO3-E0.BaTiO3-sc333.330.2.${ITER}
fix aveP all ave/time 1 500 1000 v_efield v_Pz v_pe f_born file Pz.BaTiO3-E0.BaTiO3-sc333.330.2.7

thermo_style custom step time temp press pe f_born v_efield v_Pz spcpu cpuremain

# dump 4a all custom 1000 dump.hyst.${MODEL}.${STRUCTURE}.${TEMP}.$L.${ITER}.bin id type xu yu zu fx fy fz
# dump_modify 4a sort id

fix nvt all nvt temp ${TEMP} ${TEMP} $(100*dt)
fix nvt all nvt temp 330 ${TEMP} $(100*dt)
fix nvt all nvt temp 330 330 $(100*dt)
fix nvt all nvt temp 330 330 0.2000000000000000111

run $(v_PERIOD)
run 100000
WARNING: non-constant efield is experimental, strongly distrust scalar/vector output (src/fix_addbornforce.cpp:193)
Per MPI rank memory allocation (min/avg/max) = 3.516 | 3.516 | 3.516 Mbytes
   Step          Time           Temp          Press          PotEng         f_born        v_efield         v_Pz          S/CPU         CPULeft    
         0   0              310.37483      126842.64     -807636.93     -292.80988      0.3636         0.055069277    0              0            
        10   0.02           321.62626      130657.77     -807633.57     -297.71289      0.36359993     0.055991405    29.967451      3336.6438    
        20   0.04           328.98805      134951.12     -807627.8      -304.53806      0.36359971     0.057275061    30.025939      3333.0468    
        30   0.06           320.36361      142345.25     -807618.85     -312.19182      0.36359935     0.058714577    30.015736      3332.0044    
        40   0.08           318.29746      143593.42     -807616        -314.78139      0.36359885     0.059201685    30.020563      3331.1825    
        50   0.1            335.42554      142232.45     -807620.41     -312.5819       0.36359821     0.058788125    30.011779      3330.7512    
        60   0.12           323.61791      136298.85     -807626.49     -304.77563      0.36359742     0.057320102    29.976611      3331.0038    
        70   0.14           338.10323      130399.18     -807635.07     -297.98854      0.36359649     0.056043777    29.986009      3330.9397    
        80   0.16           318.82527      125927.91     -807637.57     -292.65381      0.36359541     0.055040619    30.046266      3329.9727    
        90   0.18           318.04074      126575.3      -807637.95     -291.99134      0.36359419     0.05491621     30.016208      3329.5173    
       100   0.2            326.83795      129933.74     -807633.94     -297.11344      0.36359283     0.055879756    29.989784      3329.3786    
       110   0.22           327.76568      137254.43     -807624.93     -306.10346      0.36359132     0.057570797    30.022722      3328.8731    
       120   0.24           326.94942      141821.33     -807618.66     -312.07883      0.36358968     0.058694889    30.042723      3328.2115    
       130   0.26           327.24431      144292.27     -807616.3      -314.15831      0.36358788     0.059086283    30.04493       3327.5812    
       140   0.28           338.23736      140233.27     -807621.05     -310.71904      0.36358595     0.058439743    30.03179       3327.0977    
       150   0.3            328.40121      136771.13     -807624.57     -305.4954       0.36358387     0.057457613    30.031337      3326.6376    
       160   0.32           339.00675      129676.62     -807634.48     -296.85606      0.36358165     0.055833066    30.018864      3326.2796    
       170   0.34           327.8775       127590.24     -807637.09     -292.34381      0.36357928     0.054984754    29.934772      3326.4742    
       180   0.36           322.95805      127393.14     -807636.47     -292.00767      0.36357677     0.054921912    29.93844       3326.5876    
       190   0.38           333.19367      131922.06     -807630.72     -298.9977       0.36357412     0.056237034    29.981683      3326.4003    
       200   0.4            341.8064       137199.29     -807624.26     -306.4113       0.36357132     0.057631866    30.034713      3325.9048    
       210   0.42           338.05979      142030.73     -807617.99     -311.89458      0.36356838     0.058663672    30.02242       3325.4897    
       220   0.44           336.17542      144233.29     -807616.25     -313.23438      0.3635653      0.058916171    30.004263      3325.1731    
       230   0.46           348.87502      141557.86     -807619.82     -311.27781      0.36356207     0.05854868     30.042269      3324.6724    
       240   0.48           350.2572       135993.03     -807626.11     -305.00556      0.3635587      0.057369455    30.075519      3324.0329    
       250   0.5            333.0288       130248.23     -807633.66     -294.93254      0.36355519     0.055475327    30.013326      3323.6925    
       260   0.52           334.6337       127248.09     -807637.21     -291.49538      0.36355153     0.054829365    30.050037      3323.1966    
       270   0.54           329.78372      128281.43     -807635.01     -293.05743      0.36354773     0.055123758    30.13717       3322.3576    
       280   0.56           345.34321      133084.25     -807630.32     -299.93168      0.36354379     0.056417407    30.126802      3321.5952    
       290   0.58           333.8661       138078.41     -807622.23     -306.50607      0.3635397      0.057654704    30.042635      3321.1824    
       300   0.6            344.84041      143898.24     -807617.81     -312.37936      0.36353547     0.058760171    30.007464      3320.9045    
       310   0.62           341.40741      143375.1      -807615.53     -314.36243      0.3635311      0.059133909    29.945653      3320.8443    
       320   0.64           344.69443      141235.6      -807619.24     -311.18319      0.36352658     0.058536598    29.967922      3320.6897    
       330   0.66           346.63518      133334.91     -807629.72     -301.10971      0.36352192     0.056642403    29.994923      3320.4336    
       340   0.68           334.54858      130338.99     -807633.66     -295.4665       0.36351712     0.055581582    29.958284      3320.2925    
       350   0.7            320.7404       125185.87     -807636.58     -290.78174      0.36351217     0.054701054    29.974741      3320.0879    
       360   0.72           333.60983      129431.81     -807634.75     -294.42034      0.36350708     0.055386312    29.995809      3319.8115    
       370   0.74           338.19405      131720.47     -807631.62     -298.39545      0.36350185     0.056134917    29.991587      3319.5446    
       380   0.76           341.71667      140224.5      -807621.45     -309.0728       0.36349647     0.058144428    29.991216      3319.2753    
       390   0.78           342.26049      142422.16     -807617.97     -312.84837      0.36349095     0.058855603    29.977007      3319.0431    
       400   0.8            335.93213      145737.1      -807616        -313.98109      0.36348529     0.05906962     29.978331      3318.8021    
       410   0.82           339.81849      139023.74     -807622.9      -307.70956      0.36347948     0.057890674    30.022301      3318.4381    
       420   0.84           337.78111      134597.5      -807628.12     -302.23636      0.36347353     0.056861909    30.020821      3318.0792    
       430   0.86           325.96443      128084.85     -807634.22     -294.63034      0.36346744     0.055431863    30.002679      3317.7683    
       440   0.88           326.56022      127114.84     -807637.55     -291.3872       0.3634612      0.054822638    30.025234      3317.3997    
       450   0.9            318.31392      128643.8      -807634.45     -293.50107      0.36345482     0.05522132     30.050939      3316.9697    
       460   0.92           341.49319      133701.39     -807629.53     -301.7773       0.3634483      0.056779485    30.028509      3316.5976    
       470   0.94           336.8937       139027.42     -807621.91     -308.90987      0.36344163     0.058122546    29.969935      3316.3651    
       480   0.96           331.09667      143950.11     -807616.38     -313.72065      0.36343482     0.059028819    29.9572        3316.1577    
       490   0.98           333.26016      142685.39     -807618        -312.61207      0.36342786     0.058821358    30.027463      3315.7867    
       500   1              345.21788      138519.67     -807623.46     -308.89303      0.36342077     0.058122715    30.075999      3315.31      
       510   1.02           330.1081       132809.07     -807629.11     -9639.4698      0.36341353     0.056682579    29.95898       3315.0924    
       520   1.04           331.48226      127591.22     -807637.08     -9393.2654      0.36340614     0.055235955    29.941814      3314.9069    
       530   1.06           319.9219       126453.17     -807636.86     -9350.9216      0.36339862     0.054988097    29.999096      3314.5963    
       540   1.08           333.63898      128020.02     -807636.29     -9436.0169      0.36339095     0.055489671    29.974145      3314.3359    
       550   1.1            331.79866      134980.35     -807628.45     -9681.3923      0.36338313     0.056933855    29.943367      3314.1347    
       560   1.12           328.77474      139924.3      -807622.12     -9877.0687      0.36337518     0.058085851    29.983221      3313.8501    
       570   1.14           334.90138      143916.36     -807618.18     -10032.293      0.36336707     0.05900002     30.018826      3313.4947    
       580   1.16           331.7464       141343.05     -807619.31     -9985.2934      0.36335883     0.058724949    29.956147      3313.2596    
       590   1.18           333.34388      138570.01     -807624.03     -9842.6059      0.36335044     0.05788712     29.938609      3313.054     
       600   1.2            325.95898      131570.9      -807630.62     -9603.005       0.36334191     0.056479285    29.948923      3312.8251    
       610   1.22           327.30803      129056.02     -807636.1      -9434.5917      0.36333324     0.055490101    29.963256      3312.5667    
       620   1.24           313.45693      126753.11     -807636.98     -9348.7379      0.36332442     0.054986481    29.938909      3312.3495    
       630   1.26           332.07131      130045.4      -807634.47     -9512.5015      0.36331546     0.05595107     29.903337      3312.1912    
       640   1.28           327.75145      133570.83     -807628.37     -9695.0675      0.36330636     0.057026324    29.93307       3311.9759    
       650   1.3            336.27026      141002.9      -807621.92     -9937.7577      0.36329711     0.058455314    29.980641      3311.6757    
       660   1.32           317.72037      141878.47     -807618.22     -9978.814       0.36328772     0.05869833     30.013628      3311.3195    
       670   1.34           324.90887      141909.18     -807619.17     -9978.8319      0.36327819     0.058699976    29.964755      3311.0445    
       680   1.36           335.70826      134469.56     -807627.58     -9765.8084      0.36326851     0.057448406    29.936061      3310.8145    
       690   1.38           328.70842      132532.43     -807631.75     -9597.0139      0.36325869     0.05645698     29.913527      3310.6177    
       700   1.4            316.81039      126846.9      -807637.08     -9377.0662      0.36324873     0.055164592    29.903881      3310.4323    
       710   1.42           323.75973      128055.86     -807637.05     -9407.2021      0.36323863     0.055343419    29.941902      3310.1832    
       720   1.44           328.57149      129599.81     -807634.74     -9507.5071      0.36322838     0.055935101    29.974722      3309.8814    
       730   1.46           324.76448      136891.5      -807626.8      -9744.9598      0.36321798     0.057333737    29.984038      3309.5646    
       740   1.48           329.9886       139636.78     -807622.03     -9923.1595      0.36320745     0.058383855    30.03145       3309.1769    
       750   1.5            311.80186      143180.5      -807615.74     -10039.987      0.36319677     0.059072957    29.994867      3308.8442    
       760   1.52           323.69681      140243.87     -807620.55     -9940.2336      0.36318595     0.058487775    29.985432      3308.5253    
       770   1.54           328.42577      136415.78     -807626.24     -9778.6606      0.36317498     0.057538825    29.963525      3308.2373    
       780   1.56           318.85595      131487.15     -807631.91     -9552.9029      0.36316387     0.056212159    29.963757      3307.9479    
       790   1.58           325.2331       127392.07     -807637.61     -9395.1519      0.36315262     0.055285617    29.957877      3307.6656    
       800   1.6            316.90532      128001.12     -807636.62     -9387.902       0.36314122     0.055244689    29.962967      3307.3749    
       810   1.62           321.04109      131046.21     -807632.74     -9529.4361      0.36312968     0.056079352    29.962616      3307.0837    
       820   1.64           335.00183      136434.89     -807627.05     -9767.0884      0.363118       0.057479751    29.971868      3306.779     
       830   1.66           331.3187       140293.87     -807621.17     -9934.6764      0.36310618     0.058467918    30.028534      3306.3984    
       840   1.68           322.77377      143532.26     -807617.38     -10011.55       0.36309421     0.058922276    30.006093      3306.0483    
       850   1.7            331.95675      140083.98     -807621.48     -9915.4289      0.3630821      0.058358512    29.973016      3305.7414    
       860   1.72           337.20776      136566.22     -807627.02     -9751.3189      0.36306984     0.057394559    29.961807      3305.4484    
       870   1.74           333.74025      129364.06     -807633.62     -9517.6846      0.36305745     0.056021341    29.960359      3305.1562    
       880   1.76           318.50391      128648.3      -807634.8      -9402.1043      0.3630449      0.055342944    29.904218      3304.9337    
       890   1.78           323.57045      127983.51     -807636.12     -9377.9618      0.36303222     0.055202764    29.925975      3304.6817    
       900   1.8            333.87744      132796.3      -807630.48     -9596.0183      0.36301939     0.056488336    29.9526        3304.3951    
       910   1.82           339.94755      135765.54     -807626.45     -9747.4908      0.36300642     0.057382051    29.987479      3304.0651    
       920   1.84           321.07125      143748.09     -807617.26     -9947.2061      0.36299331     0.058559861    29.968091      3303.7583    
       930   1.86           339.94853      142027.3      -807619.04     -9969.7724      0.36298005     0.058694854    29.956605      3303.4645    
       940   1.88           339.42405      140970.85     -807620.61     -9908.607       0.36296665     0.05833691     29.935855      3303.1943    
       950   1.9            338.06351      135318.51     -807626.67     -9704.1441      0.36295311     0.057135267    29.891314      3302.9746    
       960   1.92           331.18318      132220.42     -807630.88     -9530.876       0.36293942     0.056117228    29.884869      3302.7601    
       970   1.94           327.01125      127956.61     -807634.6      -9389.4797      0.36292559     0.055286802    29.862263      3302.5689    
       980   1.96           339.24833      128163.72     -807635.79     -9400.3503      0.36291162     0.055352941    29.882493      3302.3518    
       990   1.98           334.5368       131649.92     -807629.97     -9563.4812      0.3628975      0.05631571     29.894447      3302.119     
      1000   2              343.58169      137183.59     -807624.39     -9778.9284      0.36288325     0.05758666     29.86007       3301.9222    
      1010   2.02           344.97531      141228.48     -807619.68     -310.44959      0.36286884     0.058504454    30.026198      3301.5412    
      1020   2.04           335.86758      142656.55     -807618.08     -310.72969      0.3628543      0.058559585    30.079935      3301.1033    
      1030   2.06           345.44424      140581.1      -807621.81     -308.28852      0.36283961     0.058101879    30.067978      3300.6802    
      1040   2.08           335.60268      134816.46     -807625.86     -302.8826       0.36282478     0.057085381    30.021835      3300.3075    
      1050   2.1            337.32036      130488.83     -807632.04     -296.91991      0.3628098      0.055963882    30.046979      3299.9093    
      1060   2.12           324.07019      128517.29     -807634.36     -292.82249      0.36279469     0.055193893    30.071072      3299.4874    
      1070   2.14           324.60509      129940.71     -807632.83     -294.48024      0.36277943     0.055508696    30.058156      3299.0804    
      1080   2.16           339.95366      132688.95     -807629.36     -300.24545      0.36276402     0.056597825    30.070213      3298.6625    
      1090   2.18           348.65256      138164.88     -807624.81     -306.14772      0.36274848     0.057712907    30.069638      3298.2468    
      1100   2.2            330.49109      142009        -807618.61     -309.92439      0.36273279     0.058427386    30.056635      3297.8455    
      1110   2.22           335.37949      141594.05     -807618.98     -310.43864      0.36271695     0.058526887    30.036893      3297.465     
      1120   2.24           338.7415       139158.03     -807623.15     -307.00207      0.36270098     0.057881543    30.013823      3297.1079    
      1130   2.26           329.44385      134411.09     -807627.67     -301.41676      0.36268486     0.056831024    30.013282      3296.7517    
      1140   2.28           327.88525      129868.11     -807633.05     -296.0651       0.3626686      0.055824492    30.054831      3296.356     
      1150   2.3            318.96391      129063.29     -807635.27     -292.87663      0.36265219     0.055225789    30.049917      3295.9661    
      1160   2.32           332.12324      129884.93     -807634.42     -295.82214      0.36263564     0.05578375     30.084808      3295.5443    
      1170   2.34           328.57505      134030.33     -807628.57     -301.47851      0.36261895     0.056852999    30.063754      3295.1437    
      1180   2.36           335.65797      137993.6      -807625.44     -305.88649      0.36260212     0.057686935    29.99728       3294.8059    
      1190   2.38           335.35232      140495.27     -807622.02     -309.5383       0.36258514     0.058378362    29.973587      3294.4901    
      1200   2.4            325.12224      140069.12     -807620.35     -310.02199      0.36256802     0.058472346    29.986581      3294.1621    
      1210   2.42           325.90938      137755.19     -807624.17     -306.52625      0.36255076     0.057815778    30.006364      3293.816     
      1220   2.44           325.12271      132808.56     -807630.69     -300.03957      0.36253335     0.056595003    30.035186      3293.4443    
      1230   2.46           319.62737      130369.95     -807634.28     -295.7339       0.3625158      0.055785545    30.078223      3293.035     
      1240   2.48           316.09494      127409.47     -807635.74     -293.8771       0.36249811     0.055437995    30.115549      3292.5941    
      1250   2.5            331.79584      130150.29     -807635.5      -296.31305      0.36248028     0.055900271    30.090309      3292.1769    
      1260   2.52           316.18459      133060.82     -807629.15     -300.60415      0.3624623      0.056712612    30.095843      3291.7563    
      1270   2.54           331.07051      138902.9      -807624.6      -307.20189      0.36244418     0.057960252    30.038236      3291.3866    
      1280   2.56           315.55285      140521.84     -807619.7      -310.00207      0.36242592     0.058491515    30.013062      3291.039     
      1290   2.58           315.84886      142223.72     -807619.25     -310.36146      0.36240751     0.058562299    29.991794      3290.7097    
      1300   2.6            330.39943      135732.99     -807627.29     -304.44827      0.36238896     0.057449475    30.007049      3290.3675    
      1310   2.62           332.78329      133555.57     -807631.59     -300.24928      0.36237027     0.056660048    30.049097      3289.9903    
      1320   2.64           313.43736      129385.34     -807634.59     -294.52117      0.36235143     0.055581984    30.114054      3289.5601    
      1330   2.66           313.4362       129524.47     -807634.54     -294.41952      0.36233245     0.055565712    30.112249      3289.1329    
      1340   2.68           330.32408      128866.65     -807636.56     -294.73155      0.36231333     0.055627536    30.087647      3288.727     
      1350   2.7            321.60837      135983.35     -807628.05     -301.8999       0.36229407     0.056983518    29.994986      3288.3973    
      1360   2.72           333.93963      138208.29     -807624.1      -307.55469      0.36227466     0.058053969    29.964585      3288.0921    
      1370   2.74           317.8169       142480.37     -807618.71     -310.48043      0.36225511     0.058609394    29.968994      3287.7829    
      1380   2.76           331.1415       138888.68     -807623.42     -307.52829      0.36223542     0.058055275    29.976473      3287.4674    
      1390   2.78           334.84956      136604.24     -807626.74     -304.515        0.36221558     0.057489572    30.027092      3287.1117    
      1400   2.8            334.31784      131972.79     -807631.92     -299.24788      0.3621956      0.056498306    30.013069      3286.7674    
      1410   2.82           317.03565      129293.41     -807633.8      -294.75427      0.36217548     0.055652999    30.040567      3286.4018    
      1420   2.84           322.04479      128650.55     -807636.04     -292.99402      0.36215522     0.055323739    30.054055      3286.0264    
      1430   2.86           321.70054      130900.07     -807632.91     -295.98344      0.36213481     0.055891357    30.012943      3285.683     
      1440   2.88           331.29514      136663.18     -807625.35     -304.81097      0.36211426     0.05756155     30.061614      3285.3028    
      1450   2.9            335.61919      139013.89     -807622.85     -307.83772      0.36209357     0.058136455    30.056629      3284.927     
      1460   2.92           325.65177      142418.39     -807619.86     -309.19228      0.36207273     0.058395629    30.022634      3284.5772    
      1470   2.94           325.63047      139407.09     -807622.29     -306.70568      0.36205176     0.057929354    30.047805      3284.2089    
      1480   2.96           325.56173      138294.77     -807622.92     -305.87575      0.36203064     0.05777597     30.087318      3283.8121    
      1490   2.98           327.29623      130608.13     -807631.31     -297.62882      0.36200937     0.056221533    30.15291       3283.3682    
      1500   3              327.15935      130095.01     -807635.57     -293.00873      0.36198796     0.055352081    30.124837      3282.9462    
      1510   3.02           329.5767       126919.88     -807636.93     -9344.9494      0.36196642     0.055170411    29.995501      3282.6188    
      1520   3.04           331.08962      132768.01     -807628.7      -9610.1351      0.36194472     0.056739406    30.010974      3282.2801    
      1530   3.06           339.75602      134371.5      -807626.83     -9708.4346      0.36192289     0.057323236    30.014912      3281.9387    
      1540   3.08           334.01052      141038.51     -807622.06     -9827.0676      0.36190091     0.058027226    29.946217      3281.6462    
      1550   3.1            339.59946      140203.07     -807621.2      -9880.6844      0.36187879     0.05834739     29.939053      3281.3583    
      1560   3.12           338.74032      140126.82     -807619.62     -9924.2239      0.36185653     0.058608105    29.981727      3281.0397    
      1570   3.14           338.62799      134643.22     -807627.33     -9672.1459      0.36183412     0.05712298     29.986097      3280.718     
      1580   3.16           336.41677      130892.04     -807633.86     -9449.0069      0.36181157     0.055808616    29.936293      3280.4307    
      1590   3.18           327.44171      128208.76     -807634.61     -9384.022       0.36178888     0.055428272    29.939735      3280.1404    
      1600   3.2            328.89442      129720.3      -807632.42     -9458.9182      0.36176605     0.055874185    29.963469      3279.8333    
      1610   3.22           328.76176      132227.15     -807630.01     -9535.2217      0.36174307     0.05632849     29.954035      3279.5322    
      1620   3.24           330.71067      136619.72     -807626.72     -9647.6762      0.36171995     0.056996448    29.965758      3279.2229    
      1630   3.26           329.65542      140875.17     -807619.68     -9867.9557      0.36169669     0.058301562    29.952349      3278.9223    
      1640   3.28           331.41058      142016.18     -807617.31     -9952.5439      0.36167329     0.058805129    29.963588      3278.6137    
      1650   3.3            346.70935      139807.78     -807623.24     -9827.5715      0.36164974     0.058070504    29.963024      3278.3052    
      1660   3.32           340.37611      133130.98     -807630.2      -9573.7242      0.36162605     0.056574242    29.991769      3277.9775    
      1670   3.34           341.23938      130895.8      -807633.34     -9477.2363      0.36160222     0.056007755    30.016095      3277.6337    
      1680   3.36           330.68925      128280.81     -807634.01     -9409.7634      0.36157824     0.055612697    30.029094      3277.2817    
      1690   3.38           341.13828      128764.02     -807635.86     -9398.4872      0.36155413     0.055549758    29.986053      3276.9577    
      1700   3.4            335.29702      131555.24     -807632.91     -9471.2849      0.36152987     0.055983785    29.979473      3276.6378    
      1710   3.42           334.70664      137466.98     -807624.5      -9742.7704      0.36150546     0.057592396    29.957632      3276.3317    
      1720   3.44           322.13548      141521.08     -807616.51     -9948.6458      0.36148092     0.058813379    29.955689      3276.0266    
      1730   3.46           337.77017      140922.42     -807621.3      -9871.852       0.36145623     0.058363384    29.973662      3275.7097    
      1740   3.48           323.7737       138903        -807623.45     -9744.7793      0.3614314      0.057616075    29.934327      3275.4175    
      1750   3.5            337.65414      133457.86     -807628.94     -9640.9079      0.36140643     0.057005873    29.970261      3275.1022    
      1760   3.52           326.69982      130115.76     -807631.38     -9522.1762      0.36138131     0.056307735    29.993126      3274.7726    
      1770   3.54           331.27689      128098.26     -807637.91     -9338.1663      0.36135605     0.055223485    29.997644      3274.4401    
      1780   3.56           317.43646      128923.25     -807635.88     -9349.7132      0.36133065     0.055295657    29.977226      3274.1201    
      1790   3.58           333.72262      133220.32     -807630.59     -9600.8521      0.36130511     0.056784946    30.029384      3273.7682    
      1800   3.6            327.49389      137306.31     -807623.42     -9811.3545      0.36127942     0.058034103    30.019147      3273.4227    
      1810   3.62           329.67327      139322.64     -807622.94     -9840.9672      0.3612536      0.058213424    29.955433      3273.1158    
      1820   3.64           318.45593      139467.02     -807623.7      -9772.5096      0.36122763     0.057812625    29.925969      3272.8263    
      1830   3.66           330.06858      137496.48     -807624.62     -9799.336       0.36120151     0.057975517    29.947764      3272.5232    
      1840   3.68           331.99219      131913.27     -807631.03     -9608.2762      0.36117526     0.056849288    29.950407      3272.2183    
      1850   3.7            314.33539      129550.15     -807634.87     -9404.7136      0.36114886     0.055648936    29.902663      3271.9413    
      1860   3.72           316.01727      127978.84     -807637.83     -9320.1623      0.36112232     0.055152688    29.901221      3271.6646    
      1870   3.74           321.11473      131169.47     -807633.19     -9493.3269      0.36109564     0.056181552    29.945102      3271.3615    
      1880   3.76           323.45219      134065.94     -807628.35     -9659.1656      0.36106881     0.057167233    29.995885      3271.0286    
      1890   3.78           326.94836      138422.4      -807625.68     -9757.832       0.36104184     0.057755498    29.987718      3270.7004    
      1900   3.8            317.06267      139149.37     -807622.42     -9817.2592      0.36101474     0.058111605    29.994904      3270.368     
      1910   3.82           341.21679      138469.13     -807624.37     -9860.6451      0.36098748     0.058372827    30.059147      3269.999     
      1920   3.84           321.15938      135382.12     -807625.08     -9746.8231      0.36096009     0.057703405    30.068192      3269.6253    
      1930   3.86           327.58212      132300.01     -807632.99     -9517.9633      0.36093255     0.056352802    29.971516      3269.3065    
      1940   3.88           317.17112      129176.91     -807636.76     -9344.7347      0.36090487     0.055331414    29.97215       3268.9872    
      1950   3.9            322.30156      128885.52     -807635.46     -9403.9934      0.36087705     0.055686585    29.982267      3268.6622    
      1960   3.92           322.52838      130384.46     -807632.41     -9499.5084      0.36084909     0.056256546    30.013389      3268.3197    
      1970   3.94           321.49675      133791.8      -807629.13     -9590.6531      0.36082098     0.056800733    30.026267      3267.9702    
      1980   3.96           328.89213      136476.06     -807626.11     -9712.7191      0.36079273     0.057528174    29.952212      3267.6616    
      1990   3.98           327.36416      140429.12     -807620.69     -9869.7043      0.36076434     0.058462593    29.972551      3267.3416    
      2000   4              333.45239      139586.38     -807621.89     -9849.9445      0.36073581     0.058350163    29.992379      3267.0107    
      2010   4.02           335.5741       136582.08     -807628.17     -301.4201       0.36070713     0.057143257    30.011534      3266.6694    
      2020   4.04           338.2799       131189.19     -807633.5      -296.16323      0.36067831     0.056151145    30.015529      3266.326     
      2030   4.06           331.8035       129063.31     -807633.28     -295.25014      0.36064935     0.055982524    30.055594      3265.9612    
      2040   4.08           317.31765      128115.77     -807632.7      -293.53659      0.36062025     0.055662108    30.062725      3265.593     
      2050   4.1            322.26856      131631.67     -807631.82     -294.81877      0.36059101     0.055909776    30.009867      3265.2532    
      2060   4.12           333.61         134255.13     -807628.85     -299.21545      0.36056162     0.056748193    30.005288      3264.9158    
      2070   4.14           341.40687      139959.97     -807621.86     -307.14326      0.36053209     0.058256526    30.052383      3264.5537    
      2080   4.16           325.36942      141300.71     -807618.6      -308.00226      0.36050242     0.058424262    30.046506      3264.195     
      2090   4.18           342.40859      139313.14     -807623.9      -304.80597      0.36047261     0.057822746    30.049167      3263.8352    
      2100   4.2            336.94447      135512.4      -807627.7      -300.1602       0.36044265     0.056946159    30.050554      3263.4749    
      2110   4.22           344.21163      131243.46     -807631        -297.79395      0.36041256     0.056501956    30.058699      3263.1107    
      2120   4.24           334.88273      129177.01     -807633.52     -293.85868      0.36038232     0.055759974    30.098601      3262.7264    
      2130   4.26           318.5155       129400.35     -807633.98     -291.00317      0.36035193     0.055222794    30.119191      3262.3322    
      2140   4.28           328.51389      132408.83     -807631.01     -295.30062      0.36032141     0.056043055    30.061911      3261.9675    
      2150   4.3            342.41079      135731.75     -807626.53     -301.7442       0.36029075     0.057270811    30.092408      3261.5877    
      2160   4.32           346.15344      139931.69     -807622.38     -306.30299      0.36025994     0.058141039    30.028798      3261.2402    
      2170   4.34           335.00685      139744.76     -807622.72     -304.42485      0.36022899     0.057789503    29.972413      3260.9212    
      2180   4.36           326.04614      140341.55     -807621.44     -304.349        0.36019789     0.057780092    29.991518      3260.5925    
      2190   4.38           336.39588      134292.94     -807626.11     -301.26273      0.36016666     0.057199129    29.994075      3260.2624    
      2200   4.4            337.16095      133707.43     -807629.5      -297.85291      0.36013528     0.056556653    30.018247      3259.9204    
      2210   4.42           321.25378      128505.34     -807633.97     -291.20597      0.36010377     0.055299363    30.032156      3259.5716    
      2220   4.44           335.74949      130964.36     -807633.89     -293.23816      0.36007211     0.055690168    30.047464      3259.2155    
      2230   4.46           331.87732      131397.08     -807630.19     -296.59134      0.3600403      0.05633196     30.07713       3258.8453    
      2240   4.48           339.32093      137228.36     -807624.69     -303.13311      0.36000836     0.057579556    30.145323      3258.4429    
      2250   4.5            331.87922      137080.51     -807624.51     -302.36499      0.35997627     0.057438772    30.079291      3258.072     
      2260   4.52           336.22671      140359.25     -807622.6      -304.89861      0.35994404     0.057925258    30.0863        3257.6986    
      2270   4.54           331.88448      138030.83     -807623.15     -303.93058      0.35991167     0.057746543    30.014226      3257.3598    
      2280   4.56           340.19443      135287.98     -807626.89     -301.39165      0.35987916     0.057269321    30.010848      3257.0226    
      2290   4.58           333.30038      130601.44     -807633.64     -293.76904      0.35984651     0.055825966    30.009307      3256.6863    
      2300   4.6            335.2805       129630.1      -807635.65     -292.07759      0.35981371     0.055509593    30.039326      3256.3358    
      2310   4.62           318.34231      130448.79     -807630.89     -294.70259      0.35978077     0.056013605    30.050333      3255.9803    
      2320   4.64           330.20591      132969.26     -807629.85     -297.55269      0.35974769     0.056560518    30.085105      3255.6088    
      2330   4.66           326.23391      136414.61     -807626.38     -300.59895      0.35971447     0.057144847    30.05808       3255.2502    
      2340   4.68           331.95249      137975.58     -807624.9      -303.09395      0.35968111     0.057624498    30.063489      3254.8893    
      2350   4.7            328.93548      140028.44     -807621.49     -306.20542      0.3596476      0.058221476    30.065433      3254.5278    
      2360   4.72           330.2848       135969.13     -807625.13     -303.03047      0.35961396     0.057623187    30.081281      3254.1593    
      2370   4.74           321.23508      135327.38     -807629.54     -297.53143      0.35958017     0.056582826    30.048832      3253.8058    
      2380   4.76           311.77759      130112.43     -807632.82     -293.1744       0.35954624     0.055759492    30.02861       3253.4617    
      2390   4.78           322.17832      130890.76     -807633.58     -294.13727      0.35951216     0.055947926    30.106113      3253.0827    
      2400   4.8            317.01208      129099.02     -807633.6      -293.74649      0.35947795     0.055878912    30.141821      3252.6881    
      2410   4.82           329.83234      132776.09     -807631.87     -297.4232       0.35944359     0.056583734    30.148497      3252.291     
      2420   4.84           326.28567      134379.59     -807628.9      -300.30518      0.35940909     0.057137505    30.074426      3251.9274    
      2430   4.86           330.00024      138918.43     -807624.68     -305.36129      0.35937446     0.058105105    30.090125      3251.5571    
      2440   4.88           317.48884      136870.03     -807624.37     -304.2511       0.35933967     0.057899459    30.108988      3251.1788    
      2450   4.9            314.55316      135719.52     -807627.47     -301.01539      0.35930475     0.057289265    30.06967       3250.8181    
      2460   4.92           308.05568      132669.16     -807631.13     -296.62722      0.35926969     0.056459619    30.04278       3250.4695    
      2470   4.94           302.62683      131787.19     -807631.87     -295.23829      0.35923448     0.05620076     30.048517      3250.1185    
      2480   4.96           312.0615       129780.56     -807634.72     -293.83899      0.35919913     0.055939897    30.004383      3249.7869    
      2490   4.98           316.7134       131148.3      -807635.11     -294.09017      0.35916364     0.055993248    30.052049      3249.4346    
      2500   5              310.50825      133468.34     -807630.83     -297.60962      0.35912801     0.056668955    30.13646       3249.0461    
[...]
     98740   197.48         343.25877      134128.54     -807629.57     -9648.5663      0.36236891     0.056899623    26.380034      45.289268    
     98750   197.5          333.40195      135862.74     -807626.45     -9710.4886      0.36238762     0.057261837    26.379052      44.930078    
     98760   197.52         331.2635       136818.01     -807624.69     -9758.6559      0.36240618     0.057542928    26.365806      44.570886    
     98770   197.54         335.1761       135205.74     -807627.35     -9692.4877      0.36242459     0.057149856    26.382576      44.211688    
     98780   197.56         333.92993      134988.41     -807629.2      -9629.6596      0.36244287     0.05677654     26.327642      43.852495    
     98790   197.58         333.32671      134779.22     -807627.85     -9673.1049      0.362461       0.05702984     26.268189      43.493308    
     98800   197.6          329.62024      133575.9      -807627.65     -9666.6486      0.36247899     0.056988948    26.311812      43.13411     
     98810   197.62         328.57886      133942.91     -807629.21     -9612.5352      0.36249683     0.056667137    26.372036      42.774896    
     98820   197.64         325.85456      133436.25     -807629.6      -9591.0321      0.36251453     0.056537612    26.369079      42.41568     
     98830   197.66         320.37628      136201.34     -807625.05     -9713.1164      0.36253209     0.057254506    26.378561      42.056457    
     98840   197.68         329.06013      134798.48     -807625.82     -9731.6767      0.36254951     0.057361156    26.409048      41.697226    
     98850   197.7          337.57435      136637.31     -807627.29     -9721.9963      0.36256678     0.057301367    26.383592      41.337995    
     98860   197.72         325.83516      135105.77     -807627.94     -9652.617       0.36258391     0.056889758    26.328228      40.978769    
     98870   197.74         339.75716      135476.29     -807628.27     -9705.8862      0.3626009      0.057201031    26.344592      40.619536    
     98880   197.76         320.24198      133879.41     -807626.44     -9680.6985      0.36261774     0.057049939    26.273756      40.26031     
     98890   197.78         333.79461      133814.14     -807629.75     -9635.4621      0.36263445     0.056780738    26.347762      39.901068    
     98900   197.8          322.92559      132417.93     -807630.19     -9577.5106      0.362651       0.056436659    26.398         39.541815    
     98910   197.82         330.56215      134601.27     -807628.09     -9680.8066      0.36266742     0.057042761    26.37107       39.182561    
     98920   197.84         334.27999      135089.02     -807627.91     -9706.9236      0.36268369     0.057194086    26.361583      38.823305    
     98930   197.86         328.14232      136922.16     -807626.27     -9732.9701      0.36269982     0.057345004    26.346599      38.464047    
     98940   197.88         336.57416      135487.66     -807628.89     -9688.6957      0.36271581     0.057081631    26.315569      38.10479     
     98950   197.9          327.10291      135115.5      -807626.48     -9725.7936      0.36273165     0.057297693    26.269895      37.745535    
     98960   197.92         316.3337       135035.69     -807624.61     -9742.4402      0.36274735     0.05739328     26.26734       37.386277    
     98970   197.94         323.64561      134555.41     -807628.18     -9660.9227      0.36276291     0.056910614    26.352214      37.027002    
     98980   197.96         315.14979      133403.74     -807629.03     -9598.394       0.36277832     0.056539868    26.410261      36.667714    
     98990   197.98         333.20333      133832.74     -807629.76     -9657.1821      0.36279359     0.056883767    26.434538      36.308418    
     99000   198            335.5619       133997.44     -807628.57     -9709.1479      0.36280872     0.057187478    26.556306      35.949101    
     99010   198.02         323.55308      134487.61     -807627.94     -302.44732      0.3628237      0.057003511    26.546936      35.589782    
     99020   198.04         326.49886      134755.41     -807628.32     -302.56951      0.36283855     0.057024209    26.534239      35.230462    
     99030   198.06         325.66777      136085.34     -807626.8      -304.04939      0.36285324     0.057300795    26.574464      34.871132    
     99040   198.08         318.24187      136365.49     -807624.84     -305.06495      0.3628678      0.05748988     26.584174      34.511797    
     99050   198.1          318.84237      134725.16     -807627.85     -302.16232      0.36288221     0.056940613    26.523803      34.152467    
     99060   198.12         323.24536      133598.26     -807630.53     -300.13398      0.36289648     0.056556161    26.500348      33.793137    
     99070   198.14         328.29642      133428.62     -807629.4      -302.04449      0.36291061     0.056913957    26.514083      33.433801    
     99080   198.16         334.14382      132776.19     -807629.02     -303.2397       0.36292459     0.057136967    26.561297      33.074456    
     99090   198.18         323.29905      133741.66     -807628.84     -301.8672       0.36293843     0.056876189    26.55055       32.715108    
     99100   198.2          326.64605      134408.74     -807629        -302.23105      0.36295213     0.056942595    26.408449      32.355775    
     99110   198.22         319.27282      136551.86     -807624.8      -305.39467      0.36296568     0.057536497    26.429546      31.996436    
     99120   198.24         321.97878      136157.92     -807624.62     -305.92677      0.36297909     0.057634615    26.450956      31.63709     
     99130   198.26         329.68262      135687.22     -807628.32     -303.20841      0.36299236     0.057120405    26.439117      31.277742    
     99140   198.28         321.71288      134548.98     -807628.67     -301.6306       0.36300548     0.056821113    26.352451      30.918401    
     99150   198.3          324.90048      134469.05     -807627.93     -302.70234      0.36301846     0.057020968    26.392886      30.559051    
     99160   198.32         335.48301      132128.74     -807630.69     -301.37273      0.3630313      0.056768498    26.476811      30.199686    
     99170   198.34         323.62473      134241.85     -807629.66     -300.56413      0.36304399     0.056614204    26.467855      29.84032     
     99180   198.36         328.31777      134117.33     -807629.55     -301.22367      0.36305655     0.056736474    26.414466      29.480955    
     99190   198.38         319.26383      136331.58     -807624.41     -304.95546      0.36306895     0.057437407    26.469195      29.121581    
     99200   198.4          330.39656      136119.14     -807625.71     -305.00251      0.36308122     0.057444327    26.476992      28.762201    
     99210   198.42         327.7913       136462.04     -807626.41     -303.72899      0.36309334     0.057202561    26.404339      28.402827    
     99220   198.44         338.76334      134919.61     -807628.76     -302.71641      0.36310532     0.057009978    26.384146      28.04345     
     99230   198.46         333.35741      134478.31     -807626.93     -303.58961      0.36311715     0.057172561    26.343986      27.684075    
     99240   198.48         339.34708      133630.34     -807629.78     -301.33838      0.36312885     0.056746778    26.389593      27.32469     
     99250   198.5          341.17189      133459.32     -807631.34     -299.81901      0.3631404      0.056458862    26.39617       26.9653      
     99260   198.52         331.45585      134472.99     -807627.62     -301.98839      0.3631518      0.056865591    26.380068      26.605909    
     99270   198.54         332.75773      135109.58     -807626.68     -303.01486      0.36316306     0.057057111    26.334024      26.246518    
     99280   198.56         327.68856      137687.38     -807623.69     -305.08293      0.36317418     0.057444765    26.392584      25.887117    
     99290   198.58         330.06597      136015.65     -807625.29     -303.73141      0.36318516     0.057188557    26.406666      25.527711    
     99300   198.6          337.40323      137897.58     -807624.67     -305.19485      0.36319599     0.057462388    26.4026        25.168301    
     99310   198.62         331.626        136148.1      -807624.99     -304.03493      0.36320668     0.057242313    26.332571      24.808894    
     99320   198.64         325.52148      136310.55     -807623.85     -304.10495      0.36321723     0.057253832    26.269755      24.449489    
     99330   198.66         358.23413      132031.18     -807632.73     -299.73592      0.36322763     0.05642966     26.381434      24.09007     
     99340   198.68         342.50818      134407.08     -807628.9      -301.17488      0.36323789     0.056698964    26.497783      23.730635    
     99350   198.7          339.41433      133610.62     -807627.89     -301.84448      0.36324801     0.05682344     26.475587      23.371199    
     99360   198.72         347.39739      135627.76     -807627.04     -303.68858      0.36325798     0.057169029    26.475122      23.011759    
     99370   198.74         342.31078      135420.31     -807627.06     -303.00831      0.36326781     0.057039424    26.498509      22.652313    
     99380   198.76         328.3967       137874.58     -807623.81     -304.41221      0.3632775      0.057302172    26.465726      22.292866    
     99390   198.78         325.00158      137072.16     -807622.9      -304.88724      0.36328704     0.057390083    26.478589      21.933415    
     99400   198.8          343.66518      135741.2      -807625.88     -304.52395      0.36329644     0.057320217    26.462322      21.573962    
     99410   198.82         337.71533      134336.54     -807627.84     -301.85306      0.3633057      0.056816031    26.470473      21.214504    
     99420   198.84         329.48314      133273.89     -807628.42     -300.27922      0.36331481     0.056518379    26.484206      20.855041    
     99430   198.86         349.51203      133793.27     -807629.58     -302.03117      0.36332378     0.056846727    26.521833      20.495571    
     99440   198.88         326.30878      135063.98     -807625.85     -302.78569      0.36333261     0.056987353    26.538473      20.136097    
     99450   198.9          333.79301      136184.48     -807626.27     -303.64806      0.36334129     0.057148295    26.539506      19.776619    
     99460   198.92         334.61163      135559.94     -807626.51     -303.81242      0.36334983     0.057177883    26.568724      19.417136    
     99470   198.94         331.60478      137166.77     -807624.03     -306.18916      0.36335823     0.057623857    26.544835      19.05765     
     99480   198.96         326.60371      135906.1      -807624.87     -305.05485      0.36336648     0.05740908     26.526998      18.698163    
     99490   198.98         328.6148       135865.74     -807627.54     -303.03096      0.3633746      0.057026926    26.482482      18.338675    
     99500   199            333.88688      133489.92     -807630.86     -300.80984      0.36338256     0.056607696    26.509184      17.979182    
     99510   199.02         324.14712      134943.86     -807628.82     -9660.2377      0.36339039     0.056808317    26.476816      17.619688    
     99520   199.04         326.09017      133921.38     -807629.32     -9665.1491      0.36339807     0.056835997    26.393592      17.260195    
     99530   199.06         325.29103      134010.98     -807629.74     -9657.5204      0.3634056      0.056789959    26.274421      16.900707    
     99540   199.08         324.0556       134656.44     -807628.63     -9694.5919      0.363413       0.057006793    26.261304      16.541215    
     99550   199.1          319.72989      135115.24     -807625.76     -9772.5331      0.36342025     0.057463962    26.259623      16.18172     
     99560   199.12         326.77419      135798.4      -807626.79     -9775.8128      0.36342736     0.057482123    26.261448      15.82222     
     99570   199.14         326.90943      135447.35     -807628.18     -9733.6807      0.36343432     0.057233288    26.255568      15.462716    
     99580   199.16         319.25536      135644.95     -807627.69     -9717.3847      0.36344114     0.057136397    26.263823      15.103207    
     99590   199.18         326.52361      133050.13     -807630.25     -9670.231       0.36344782     0.056858097    26.294948      14.743692    
     99600   199.2          326.06974      132575.26     -807630.21     -9667.0258      0.36345435     0.05683823     26.321283      14.384171    
     99610   199.22         319.51596      131966.41     -807631.03     -9614.2003      0.36346074     0.056526643    26.270637      14.024649    
     99620   199.24         325.67426      133648.13     -807629.24     -9696.7804      0.36346699     0.057011192    26.33431       13.66512     
     99630   199.26         309.26348      135304.3      -807625.52     -9743.2237      0.3634731      0.057283289    26.344039      13.305586    
     99640   199.28         325.85355      136848.01     -807626.84     -9772.0406      0.36347906     0.05745177     26.370244      12.946046    
     99650   199.3          313.25415      136092.09     -807625.5      -9755.8256      0.36348487     0.05735552     26.384817      12.586502    
     99660   199.32         325.36487      136393.72     -807626.3      -9780.341       0.36349055     0.057498752    26.392546      12.226953    
     99670   199.34         330.77538      134741.11     -807628.34     -9736.2155      0.36349608     0.057238466    26.410475      11.8674      
     99680   199.36         327.03537      134040.7      -807629.58     -9674.0386      0.36350147     0.05687209     26.400624      11.507843    
     99690   199.38         333.28074      132186.87     -807632.18     -9615.5335      0.36350671     0.056527333    26.391962      11.148283    
     99700   199.4          323.90943      133671.4      -807629.83     -9645.2766      0.36351181     0.056701389    26.421538      10.788718    
     99710   199.42         322.75152      134027.89     -807628.18     -9690.8449      0.36351677     0.056968494    26.476875      10.429146    
     99720   199.44         317.01747      135822.14     -807626.21     -9723.4501      0.36352158     0.057159409    26.392876      10.069575    
     99730   199.46         323.14725      136412.18     -807626.27     -9744.1732      0.36352625     0.057280494    26.379903      9.7099997    
     99740   199.48         336.11457      136353.34     -807626.65     -9782.8674      0.36353078     0.05750724     26.361102      9.3504215    
     99750   199.5          320.39264      136114.68     -807624.4      -9780.5204      0.36353516     0.05749275     26.33415       8.9908403    
     99760   199.52         333.34723      134613.61     -807628.23     -9708.6312      0.3635394      0.057069498    26.35854       8.6312542    
     99770   199.54         340.84325      132817.12     -807631.17     -9644.4272      0.3635435      0.056691454    26.378829      8.2716634    
     99780   199.56         325.61334      133517.84     -807628        -9672.2107      0.36354745     0.056854152    26.388469      7.9120685    
     99790   199.58         326.35695      133830.82     -807627.89     -9674.5878      0.36355126     0.056867528    26.375058      7.5524701    
     99800   199.6          319.56447      134580.48     -807626.5      -9684.0816      0.36355493     0.056922759    26.388061      7.1928673    
     99810   199.62         344.43435      135063.38     -807628.93     -9712.5172      0.36355845     0.057089349    26.425069      6.8332597    
     99820   199.64         332.75985      136095.76     -807625.63     -9761.683       0.36356183     0.057377808    26.382761      6.4736494    
     99830   199.66         331.40299      137039.99     -807623.9      -9805.9288      0.36356507     0.057637366    26.339692      6.1140363    
     99840   199.68         328.69209      135456.35     -807626.26     -9717.0805      0.36356816     0.057114647    26.250538      5.7544213    
     99850   199.7          330.04247      135580.74     -807627.19     -9687.6976      0.36357111     0.056941479    26.280565      5.3948013    
     99860   199.72         330.18922      133153.78     -807627.72     -9670.9507      0.36357392     0.056842607    26.397509      5.0351747    
     99870   199.74         329.4316       134867.51     -807626.98     -9686.3769      0.36357658     0.05693286     26.346075      4.6755453    
     99880   199.76         325.73198      134053.05     -807627.35     -9657.1246      0.3635791      0.056760533    26.3197        4.3159123    
     99890   199.78         330.25801      135518.81     -807627.29     -9678.4995      0.36358148     0.056885793    26.407324      3.9562739    
     99900   199.8          343.13549      135442.46     -807627.04     -9744.8354      0.36358371     0.057275334    26.330039      3.5966328    
     99910   199.82         332.29371      136471.41     -807623.89     -9795.6515      0.3635858      0.057573675    26.342949      3.2369875    
     99920   199.84         332.31508      135929.56     -807625.73     -9736.8182      0.36358775     0.057227577    26.339997      2.8773382    
     99930   199.86         336.16978      135816.84     -807626.69     -9721.6806      0.36358955     0.057138324    26.282094      2.5176855    
     99940   199.88         335.29207      134418.22     -807627.09     -9707.7208      0.36359121     0.057056016    26.397187      2.1580277    
     99950   199.9          327.97429      135367.53     -807626.1      -9706.4169      0.36359273     0.057048114    26.390118      1.798366     
     99960   199.92         333.09742      133612.87     -807629.56     -9622.0087      0.3635941      0.056551803    26.360588      1.4387007    
     99970   199.94         333.59775      134347.08     -807627.82     -9678.4283      0.36359533     0.056883208    26.410806      1.0790312    
     99980   199.96         334.21086      133848.82     -807627.49     -9694.5704      0.36359641     0.05697791     26.436124      0.71935786   
     99990   199.98         337.44727      135590.88     -807626.08     -9756.44        0.36359736     0.057341388    26.371036      0.35968088   
    100000   200            342.01587      134672.56     -807627.9      -9721.6451      0.36359816     0.057136763    26.376574      0            
Loop time of 3596.83 on 32 procs for 100000 steps with 1080 atoms

Performance: 4.804 ns/day, 4.996 hours/ns, 27.802 timesteps/s, 30.026 katom-step/s
63.1% CPU use with 32 MPI tasks x 1 OpenMP threads

MPI task timing breakdown:
Section |  min time  |  avg time  |  max time  |%varavg| %total
---------------------------------------------------------------
Pair    | 2624.8     | 2800.2     | 2973       | 184.1 | 77.85
Neigh   | 0.0016539  | 0.002938   | 0.0087162  |   4.0 |  0.00
Comm    | 548.11     | 720.68     | 895.85     | 362.7 | 20.04
Output  | 2.465      | 2.4736     | 2.4817     |   0.2 |  0.07
Modify  | 65.751     | 66.498     | 67.42      |   4.8 |  1.85
Other   |            | 6.984      |            |       |  0.19

Nlocal:          33.75 ave          46 max          26 min
Histogram: 2 2 6 6 6 5 3 0 1 1
Nghost:        1033.03 ave        1048 max        1019 min
Histogram: 1 1 6 7 1 4 8 0 3 1
Neighs:              0 ave           0 max           0 min
Histogram: 32 0 0 0 0 0 0 0 0 0
FullNghs:      5358.75 ave        7355 max        4084 min
Histogram: 2 3 5 7 6 6 1 0 1 1

Total # of neighbors = 171480
Ave neighs/atom = 158.77778
Neighbor list builds = 4
Dangerous builds = 0

Total wall time: 1:03:28
