
units		metal
atom_style	atomic

read_data ${STRUCTURE}.data
read_data BaTiO3-sc333.data
Reading data file ...
  orthogonal box = (0 0 0) to (11.898253 11.898253 12.912076)
  2 by 4 by 4 MPI processor grid
  reading atoms ...
  135 atoms
  read_data CPU = 0.005 seconds
replicate $L $L $L
replicate 2 $L $L
replicate 2 2 $L
replicate 2 2 2
Replication is creating a 2x2x2 = 8 times larger system...
  orthogonal box = (0 0 0) to (23.796507 23.796507 25.824152)
  2 by 4 by 4 MPI processor grid
  1080 atoms
  replicate CPU = 0.004 seconds

pair_style allegro
pair_coeff	* * ${MODEL}.pth Ba Ti O
pair_coeff	* * BaTiO3-E0.pth Ba Ti O
mass 1 137.3
mass 2 47.9
mass 3 15.9994

timestep 0.002
compute polarization all allegro polarization 3
compute allegro will evaluate the quantity polarization of length 3 (src/compute_allegro.cpp:53)
compute polarizability all allegro polarizability 9
compute allegro will evaluate the quantity polarizability of length 9 (src/compute_allegro.cpp:53)

thermo_style custom pe fmax fnorm spcpu cpuremain

variable efield equal 1e-2*36.36
fix born all addbornforce 0.0 0.0 ${efield}
fix born all addbornforce 0.0 0.0 0.3636

thermo 10
min_style fire
#minimize 0.0 1e-6 100 100
velocity all create ${TEMP} ${SEED} dist gaussian rot yes mom yes
velocity all create 330 ${SEED} dist gaussian rot yes mom yes
velocity all create 330 19026 dist gaussian rot yes mom yes
fix nvt all nvt temp ${TEMP} ${TEMP} $(100*dt)
fix nvt all nvt temp 330 ${TEMP} $(100*dt)
fix nvt all nvt temp 330 330 $(100*dt)
fix nvt all nvt temp 330 330 0.2000000000000000111
run 5000
Neighbor list info ...
  update: every = 1 steps, delay = 0 steps, check = yes
  max neighbors/atom: 2000, page size: 100000
  master list distance cutoff = 8
  ghost atom cutoff = 8
  binsize = 8, bins = 3 3 4
  1 neighbor lists, perpetual/occasional/extra = 1 0 0
  (1) pair allegro/kk, perpetual
      attributes: full, newton on, kokkos_device
      pair build: full/bin/kk/device
      stencil: full/bin/3d
      bin: kk/device
Per MPI rank memory allocation (min/avg/max) = 3.516 | 3.516 | 3.516 Mbytes
    PotEng          Fmax          Fnorm          S/CPU         CPULeft    
-807708.29      1.595429       37.040301      0              0            
-807644.42      3.3874513      45.827408      2.2623064      2205.7146    
-807635.99      2.4038231      35.399597      25.83614       1197.0239    
-807610.21      3.1477109      36.850599      25.845892      860.51128    
-807602.71      4.3227573      49.832214      25.813703      692.12146    
-807563.33      3.3941363      41.165813      25.79524       590.95988    
-807599.67      3.133235       39.592667      25.87038       523.29709    
-807645.97      3.5101207      33.525811      25.863366      474.8634     
-807682.9       2.4730725      33.874705      25.823931      438.47778    
-807665.05      3.9468248      35.868441      25.810315      410.10295    
-807652.54      4.7725854      35.669941      25.851692      387.29521    
-807662.56      3.072117       28.643559      25.858728      368.55932    
-807626.99      4.1844157      32.531488      25.833338      352.89709    
-807584.19      3.4407236      41.135059      25.831586      339.58586    
-807565.72      3.2109383      39.84855       25.859321      328.10653    
-807630.41      3.4145788      36.019258      25.848593      318.11138    
-807649.4       3.684139       33.364684      25.825496      309.32774    
-807659.74      3.2940826      35.763171      25.841787      301.525      
-807645.06      4.8262722      45.916145      25.872147      294.53405    
-807679.58      2.8664417      37.871686      25.812493      288.26092    
-807641.41      4.8158273      40.873199      25.787551      282.58536    
-807614.75      3.0387464      39.004216      25.8471        277.39302    
-807564.18      3.6501674      45.374551      25.873667      272.62891    
-807603.63      4.0307074      49.870112      25.802752      268.26748    
-807609.5       4.0594623      39.318381      25.756416      264.25105    
-807637.07      3.0491054      35.582078      25.862558      260.49459    
-807643.6       4.6011068      44.17195       25.883887      256.99154    
-807679.3       3.4316394      38.162934      25.79768       253.74197    
-807663.31      3.193337       34.55649       25.761119      250.7061     
-807635.18      4.1476698      33.656803      25.827518      247.83663    
-807612.18      3.2742601      33.634067      25.863824      245.12412    
-807601.4       3.8573011      41.85227       25.822562      242.57102    
-807594.67      3.7008057      38.56922       25.767939      240.16528    
-807601.31      3.0776101      35.08246       25.83442       237.8677     
-807641.23      3.2695103      30.833128      25.863189      235.6766     
-807668.58      2.6507446      33.129636      25.84947       233.59133    
-807674.4       2.8288427      34.343219      25.773718      231.61508    
-807640.22      4.799875       41.16747       25.841465      229.71195    
-807648.4       2.8695633      32.375635      25.879854      227.88164    
-807620.96      3.5636148      35.391274      25.833413      226.13358    
-807597.76      3.9816122      44.427344      25.768055      224.46487    
-807564.66      4.8184096      44.066971      25.843279      222.84598    
-807619.94      3.5797591      37.625554      25.870946      221.28125    
-807645.03      4.1126027      37.170643      25.792596      219.78377    
-807667.57      3.2631865      36.39287       25.779491      218.33881    
-807640.05      4.9027896      46.578299      25.81159       216.93594    
-807665.39      3.4000843      36.042917      25.820462      215.5759     
-807646.6       3.9138909      36.371372      25.801511      214.26       
-807621.25      3.1735487      37.177833      25.837482      212.9777     
-807568.61      3.9325997      41.737931      25.878348      211.72632    
-807597.57      3.6572318      42.597594      25.846027      210.51388    
-807622.65      3.2521464      34.537388      25.816458      209.33772    
-807647.98      3.0275329      32.665101      25.855086      208.18691    
-807642.58      4.0520967      39.499228      25.85439       207.06502    
-807669.02      2.6148002      34.71564       25.827462      205.97369    
-807665.24      2.5448205      34.295641      25.759432      204.91623    
-807638.95      3.8529028      32.526336      25.817813      203.87572    
-807604.2       2.9251475      35.215497      25.868857      202.85219    
-807594.95      3.6716051      38.285235      25.868623      201.85065    
-807603.14      3.9966498      41.603136      25.759673      200.88217    
-807612.46      3.6216975      35.247508      25.823461      199.92601    
-807634.63      3.5112061      34.12416       25.861016      198.98445    
-807660.05      3.6693214      35.676146      25.835585      198.06348    
-807670.52      3.0798625      37.08841       25.729747      197.1705     
-807644.45      5.2638984      39.609903      25.750472      196.29115    
-807632.45      3.2808868      35.419006      25.820583      195.41986    
-807615.79      4.2309431      35.703387      25.844119      194.56091    
-807601.32      3.926643       45.048816      25.781603      193.72211    
-807578.7       3.4846213      40.566811      25.806366      192.89422    
-807611.01      3.4653981      37.241662      25.848845      192.0751     
-807643.01      3.6507227      36.473448      25.848402      191.26839    
-807669.49      3.0740194      35.920428      25.803101      190.4776     
-807648.89      4.4914578      40.850262      25.810152      189.69738    
-807650.36      3.5261178      36.337835      25.810041      188.92793    
-807642.36      3.8680775      35.118463      25.79979       188.1697     
-807622.9       3.5833417      37.168968      25.805966      187.42082    
-807578.53      3.3069841      40.161005      25.821035      186.68019    
-807584.99      3.1648011      40.292053      25.866384      185.94501    
-807624.22      3.178155       34.163756      25.829494      185.22175    
-807652.03      3.511968       33.014388      25.828995      184.50704    
-807647.36      3.8631355      36.690398      25.795398      183.80317    
-807654.86      5.0841739      36.689804      25.750963      183.11057    
-807663.13      2.9650634      34.479655      25.798503      182.42174    
-807641.57      3.7904353      33.903037      25.801771      181.73992    
-807604.14      3.07662        37.172404      25.847067      181.06174    
-807582.66      4.0113544      40.673768      25.856687      180.38971    
-807603.13      4.0364762      42.292709      25.795333      179.72875    
-807618.78      3.6439113      36.023168      25.75819       179.07672    
-807635.55      3.0738424      35.356427      25.820439      178.42631    
-807647.46      4.0194596      38.649346      25.836848      177.78067    
-807669.25      3.1904418      37.184594      25.775635      177.14497    
-807650.98      4.1502595      37.204806      25.771422      176.515      
-807631.64      3.1820759      34.121392      25.854199      175.88478    
-807606.96      3.5167906      36.215012      25.880528      175.25806    
-807604.55      3.8437289      42.870929      25.829484      174.63977    
-807592.1       3.7724162      39.311115      25.798094      174.02834    
-807611.31      3.6847406      36.93891       25.841371      173.41885    
-807635.94      4.056799       37.067605      25.832406      172.8145     
-807665.18      3.1977581      36.492032      25.799326      172.21662    
-807656.61      3.734498       37.38771       25.745361      171.62628    
-807645.1       4.590448       35.439701      25.83022       171.03488    
-807637.34      3.3301907      33.803146      25.862385      170.44562    
-807622.11      4.6115652      35.980474      25.861969      169.86035    
-807591.87      4.6346483      38.344537      25.789627      169.28312    
-807586.17      5.0725747      38.818419      25.812469      168.70823    
-807622.11      3.8136606      33.747997      25.834499      168.13567    
-807650.09      4.6443041      34.186896      25.816942      167.56758    
-807657.2       3.5788022      34.548276      25.807031      167.00342    
-807648.9       5.2870887      38.373084      25.882787      166.43842    
-807656.96      3.1305868      34.689916      25.833776      165.87932    
-807639.8       3.9679219      34.507647      25.772438      165.32662    
-807612.39      3.77097        36.283131      25.839506      164.77335    
-807580.27      4.4480487      39.468637      25.859153      164.22204    
-807603.63      3.222554       39.099611      25.80065       163.67664    
-807625.14      3.1429888      34.862937      25.788364      163.13463    
-807645         3.9231407      34.056296      25.827192      162.59336    
-807644.54      4.1644392      38.841801      25.812176      162.05548    
-807663.17      2.9187804      36.403624      25.82544       161.51953    
-807651.67      3.6605581      36.650462      25.796992      160.98748    
-807632.3       3.8752971      34.587172      25.824965      160.45652    
-807599.26      4.1975804      38.656266      25.853064      159.92661    
-807600.65      3.5403699      40.300333      25.811073      159.40105    
-807602.7       3.8213015      38.288481      25.758237      158.88021    
-807621.06      2.958222       34.191069      25.76889       158.36103    
-807635.2       3.7083342      35.109891      25.795458      157.84276    
-807658.98      3.153443       34.604056      25.805487      157.32613    
-807658.16      3.2540783      35.988048      25.773806      156.81295    
-807643.79      4.302801       35.339472      25.840705      156.2988     
-807626.19      3.6244334      35.212573      25.865875      155.78554    
-807615.65      3.8421822      37.03338       25.844263      155.27518    
-807601.69      3.7927533      40.2357        25.772122      154.7698     
-807594.67      4.4875009      39.91762       25.748477      154.26721    
-807618.65      3.2250401      36.135356      25.848304      153.76218    
-807644.73      3.5178917      36.057619      25.849704      153.25885    
-807657.93      3.4903482      36.038969      25.791602      152.75965    
-807646.08      4.2293864      38.320825      25.817096      152.26107    
-807644.03      3.4771388      35.381062      25.781496      151.76555    
-807634.91      3.4750527      34.352246      25.824397      151.2699     
-807614.82      3.5750073      37.577062      25.799288      150.77681    
-807587.86      3.5403482      39.300222      25.833371      150.2839     
-807599.74      4.3090248      38.700738      25.855893      149.79165    
-807626.6       3.0819585      35.885359      25.822134      149.30217    
-807649.07      3.5469281      34.880492      25.864712      148.81253    
-807644.69      3.4349711      38.440142      25.851071      148.32484    
-807649.81      3.6651961      37.8644        25.808254      147.84013    
-807649.22      3.658094       36.849374      25.684252      147.36135    
-807631.1       2.856213       35.84367       25.836676      146.87822    
-807600.95      3.7769486      38.135976      25.881889      146.39478    
-807591.74      3.7137957      40.072357      25.884743      145.91254    
-807607.67      3.6871869      38.961597      25.854166      145.43267    
-807628.52      3.7158189      35.842255      25.823861      144.9551     
-807636.2       4.182084       36.264899      25.896518      144.47622    
-807649.42      3.816411       36.444161      25.832664      144.00074    
-807658.23      3.0569944      36.286341      25.78031       143.5282     
-807641.86      3.3218973      36.588827      25.826709      143.05519    
-807621.03      3.5521704      36.085057      25.837797      142.58292    
-807604.86      3.6105357      37.169604      25.912824      142.10927    
-807602.55      3.7494857      41.009342      25.910958      141.6368     
-807604.81      4.3517668      38.355877      25.865517      141.1669     
-807619.68      4.7789933      36.593545      25.900356      140.69692    
-807641.46      3.3459814      35.95568       25.915788      140.22751    
-807659.92      3.0355701      36.375614      25.862392      139.76081    
-807650.25      4.1057725      37.153815      25.809977      139.29673    
-807635.68      3.5591055      36.40327       25.844232      138.83254    
-807628.1       3.5999306      34.50559       25.928812      138.3667     
-807614.71      3.384741       37.628852      25.922733      137.90202    
-807596.98      3.625126       38.253042      25.924446      137.43824    
-807601.13      3.5614975      37.361525      25.925554      136.97536    
-807628.75      3.8341364      35.34216       25.890132      136.51444    
-807650.18      3.5835099      35.486843      25.844074      136.05575    
-807649.48      4.2795667      36.863214      25.840753      135.598      
-807644.97      3.9682322      36.816806      25.853253      135.14072    
-807643.1       3.4124549      35.72311       25.850457      134.68434    
-807631.35      3.247105       34.979746      25.864377      134.22837    
-807604.5       3.4577956      38.062571      25.925272      133.7715     
-807593.72      2.9654457      38.400667      25.93154       133.31526    
-807614.46      3.0764708      35.788081      25.920335      132.86014    
-807635.75      2.9142069      33.775127      25.922634      132.40573    
-807642.67      3.2948552      35.01403       25.922329      131.95211    
-807647.14      3.0262439      35.849806      25.937332      131.49884    
-807654.08      2.7774115      34.698915      25.863204      131.04829    
-807644.15      3.1476718      33.889797      25.8707        130.59825    
-807621.42      3.3720523      34.610397      25.905093      130.14801    
-807599.97      3.3166167      37.789195      25.93146       129.69779    
-807603.97      3.3409362      38.330954      25.914292      129.24872    
-807617.49      3.0347413      35.447448      25.899587      128.8007     
-807627.82      3.5762735      34.855199      25.917942      128.35288    
-807640.21      3.2521418      35.485005      25.92653       127.90551    
-807656.28      3.1383013      34.919076      25.907774      127.45926    
-807651.78      3.6782082      34.849914      25.855069      127.01495    
-807635.2       3.0487298      34.516871      25.856824      126.57119    
-807619.7       4.0453445      35.080962      25.899976      126.12699    
-807609.52      3.7584716      37.286266      25.899011      125.68342    
-807602.91      4.1266067      39.268148      25.9116        125.24015    
-807610.54      3.1608339      36.048328      25.899545      124.79775    
-807628.07      4.0665122      36.336584      25.939386      124.355      
-807647.95      3.9566452      34.978515      25.866741      123.91452    
-807651.51      3.478148       36.268288      25.797947      123.47616    
-807643.52      3.5432733      35.992379      25.854546      123.03703    
-807633.95      3.1565183      35.249226      25.90762       122.59722    
-807624.55      3.5309162      35.864079      25.925187      122.15756    
-807609.16      3.1846556      37.149594      25.921081      121.71853    
-807596.8       3.1672408      38.561504      25.92985       121.27983    
-807609.86      3.0594263      36.938249      25.931235      120.84162    
-807635.72      3.3148807      34.683072      25.907123      120.40445    
-807646.21      2.5105655      35.277494      25.86241       119.96874    
-807644         3.4767058      36.596601      25.849766      119.53377    
-807643.18      3.3174581      36.481303      25.797101      119.10039    
-807639.12      3.1895677      35.228189      25.812778      118.66712    
-807622.96      3.1249505      35.119862      25.905595      118.23235    
-807599.37      3.4803815      38.639011      25.904072      117.79808    
-807600.69      3.2406735      38.230777      25.922329      117.3639     
-807617.78      3.8222595      36.913967      25.906701      116.93048    
-807634.01      4.028393       35.526534      25.904367      116.49756    
-807639.37      3.7291481      36.463807      25.927549      116.06462    
-807647.38      3.1669725      36.636601      25.892927      115.6328     
-807647.14      3.5278844      35.296716      25.834762      115.20254    
-807633.96      3.3484804      35.056024      25.836692      114.77265    
-807615.12      3.1748629      35.922077      25.839573      114.34309    
-807604.02      3.5728841      37.672726      25.905103      113.91266    
-807608.66      3.502407       38.774163      25.917487      113.48241    
-807619.71      2.7801166      35.168875      25.916666      113.05257    
-807631.11      3.2884009      35.043314      25.917665      112.62311    
-807646.66      3.4552857      34.531218      25.888611      112.19457    
-807654.39      3.7384427      34.93266       25.812597      111.76782    
-807644.34      3.0077525      34.889363      25.837974      111.34095    
-807629.14      3.989758       34.643494      25.891214      110.91347    
-807617.29      2.9977317      35.438901      25.886809      110.48643    
-807609.94      2.8538661      37.544034      25.914377      110.05926    
-807605.7       3.3902215      37.642732      25.858982      109.63343    
-807618.18      3.6115168      36.151006      25.901747      109.20719    
-807637.97      2.8776171      34.500942      25.957345      108.78033    
-807650.54      3.7126831      35.318327      25.922822      108.35442    
-807646.8       3.2176686      36.050203      25.89459       107.92934    
-807640.81      3.688686       34.999812      25.858697      107.50521    
-807632.04      3.2098302      34.788883      25.881872      107.081      
-807618.92      3.4960608      36.005991      25.863896      106.65741    
-807603.26      3.8821473      38.486646      25.906706      106.23342    
-807606.77      3.0759787      36.548263      25.930723      105.80936    
-807623.89      3.8730655      35.741942      25.921611      105.38577    
-807640.34      3.0826939      35.021649      25.895475      104.96292    
-807645.68      4.4598508      35.972356      25.920203      104.53998    
-807644.71      4.3390947      36.528383      25.899349      104.11767    
-807641.6       3.8321059      35.976907      25.839601      103.6966     
-807631.96      4.3524912      35.53694       25.863868      103.27544    
-807612.96      3.0105653      36.315196      25.8846        102.85423    
-807603.91      4.1165997      38.062804      25.960776      102.43214    
-807610.57      3.2120899      36.672873      25.933903      102.01075    
-807626.33      3.6905526      35.17866       25.874117      101.59056    
-807636.83      2.9520653      34.937638      25.906987      101.17014    
-807643.7       3.6947883      35.874746      25.871144      100.75054    
-807648.37      3.1891781      35.386288      25.787651      100.33244    
-807641.25      3.6988714      34.644529      25.790391      99.914538    
-807625.9       3.785915       35.314588      25.855013      99.495929    
-807610.03      3.775448       36.625252      25.918979      99.076647    
-807606.23      3.1392584      38.025641      25.926643      98.657518    
-807612.22      3.5037879      36.791266      25.923836      98.23869     
-807623.75      3.043998       35.137995      25.921963      97.820145    
-807636.67      3.5946945      35.65772       25.923685      97.401832    
-807647.06      3.1892116      35.915969      25.912144      96.983929    
-807645.94      3.6246911      36.723491      25.81922       96.567554    
-807637.57      3.472156       35.873411      25.800708      96.151656    
-807623.18      3.5094908      35.800092      25.857011      95.735208    
-807613.35      3.7379144      36.760836      25.867064      95.31885     
-807605.55      3.2083641      37.402802      25.891176      94.902396    
-807610.63      3.8657296      36.856421      25.866069      94.486503    
-807625.83      3.274376       35.426276      25.869134      94.070789    
-807642.04      3.0696765      35.085182      25.879898      93.655153    
-807646.62      2.8070409      35.64613       25.858996      93.240006    
-807644.02      3.0185634      35.243293      25.823351      92.82553     
-807634.9       2.9626184      35.740609      25.824939      92.411233    
-807624.65      3.2105173      35.635397      25.88227       91.996413    
-807610.01      3.5463794      36.868241      25.872238      91.581926    
-807604.66      4.4226367      36.829854      25.909725      91.16718     
-807614.99      3.273776       36.355395      25.870695      90.753125    
-807630.26      4.4892151      35.359405      25.881591      90.339136    
-807642.59      3.5896016      35.39569       25.844526      89.925798    
-807644.08      3.9729976      36.238932      25.830376      89.51282     
-807644.48      3.7070453      35.387076      25.843701      89.099869    
-807637.02      3.3407489      35.268433      25.872098      88.686768    
-807624.68      3.1687038      34.903346      25.8649        88.273942    
-807609.35      3.1483027      36.800548      25.886533      87.86105     
-807607.03      3.7434618      37.550757      25.88701       87.448341    
-807621.01      3.7916196      35.227384      25.886678      87.035823    
-807631.76      3.5645874      34.778593      25.916117      86.623155    
-807641.8       2.9007096      34.067965      25.918669      86.210647    
-807646.45      3.5494069      35.278177      25.881175      85.798744    
-807646.64      3.7383017      34.583006      25.878368      85.387049    
-807635.08      4.1671898      34.94537       25.883322      84.975477    
-807621.12      4.0210118      34.101959      25.925906      84.563615    
-807609.11      3.1187296      36.725828      25.89984       84.152214    
-807613.01      4.2677168      36.798331      25.874057      83.741264    
-807619.71      3.5582863      35.255363      25.858907      83.330643    
-807629.51      4.8028949      35.982724      25.881657      82.919944    
-807643.77      4.0913453      35.290873      25.844354      82.509802    
-807646.22      3.8218952      36.613675      25.790242      82.100382    
-807641.71      4.4159526      35.731518      25.808856      81.690915    
-807631.2       4.5573389      35.481307      25.898149      81.280683    
-807620.68      3.5347904      35.657432      25.872537      80.870872    
-807612.16      3.2791227      37.121602      25.876914      80.461173    
-807609.08      2.8618485      37.171016      25.90717       80.051328    
-807620.19      3.3333017      35.011619      25.919518      79.64152     
-807634.41      2.9372517      34.035194      25.930249      79.231766    
-807644.42      3.5558783      35.345853      25.9144        78.822325    
-807643.55      3.5909711      35.262543      25.881905      78.413351    
-807638.73      3.1491622      34.979338      25.839839      78.004927    
-807632.98      4.2957821      35.072669      25.852646      77.596522    
-807619.2       3.2749275      36.994077      25.884347      77.18796     
-807606.72      3.4741631      36.918935      25.898421      76.779411    
-807607.79      3.0935709      37.673306      25.847153      76.371481    
-807623.11      3.3237287      35.20839       25.897138      75.963229    
-807636.61      2.9816602      34.947879      25.888054      75.555201    
-807639.82      3.1757002      35.787644      25.870948      75.147467    
-807643.83      3.6695419      35.186643      25.872626      74.739853    
-807640.01      3.1977628      35.639739      25.846462      74.332606    
-807630.33      3.8552763      35.320829      25.87351       73.92525     
-807615.83      3.0681567      35.656895      25.938911      73.517458    
-807607.51      4.00443        37.290155      25.922418      73.109949    
-807613.18      3.1570231      36.792317      25.888639      72.702864    
-807625.66      3.67656        35.814179      25.884581      72.295945    
-807634.69      3.2856385      35.347565      25.90157       71.889012    
-807640.24      3.5009589      35.88454       25.902601      71.4822      
-807644.27      4.0216451      35.833757      25.880189      71.075701    
-807638.78      3.4922216      34.815559      25.854659      70.669537    
-807625.83      3.4599627      35.204147      25.883337      70.263259    
-807615.51      3.1927279      36.006881      25.864256      69.857257    
-807610.44      3.237378       37.493065      25.851046      69.451479    
-807615.07      3.3603022      35.819389      25.839224      69.045912    
-807622.47      3.2543892      35.658484      25.851694      68.640359    
-807634.93      4.1742056      35.762369      25.890606      68.234617    
-807644.63      3.2261215      34.912142      25.880287      67.829074    
-807643.05      3.1400791      35.456595      25.821433      67.424096    
-807635.86      4.104876       35.543287      25.834953      67.019122    
-807626.29      4.0494054      35.206491      25.859678      66.61407     
-807616.53      3.4902965      36.60247       25.894117      66.208872    
-807609.87      3.556399       37.228134      25.897911      65.803759    
-807613.9       3.9256605      36.86078       25.842797      65.399162    
-807625.9       3.7864606      35.767822      25.876087      64.994429    
-807637.61      2.7689748      35.49681       25.913758      64.589534    
-807642.52      3.2608858      36.5078        25.86421       64.185103    
-807643         2.6517641      35.37747       25.86578       63.780765    
-807634.44      4.1017752      35.49315       25.849184      63.376647    
-807626.68      3.0825292      35.022005      25.855578      62.972586    
-807614.98      3.4093161      36.437536      25.872585      62.568509    
-807608.33      3.0229797      36.686396      25.875759      62.164513    
-807615.13      2.9203951      35.876529      25.903341      61.760433    
-807628.46      3.4754463      34.737164      25.867892      61.356693    
-807639.19      3.3968133      33.856479      25.863738      60.95308     
-807642.89      3.0807983      35.236501      25.901078      60.549321    
-807642.27      3.7806275      34.556906      25.915104      60.145572    
-807636.51      3.0612197      34.440036      25.907728      59.741973    
-807624.44      2.7254002      34.789649      25.894431      59.338558    
-807612.23      3.1683448      35.607198      25.881948      58.93532     
-807609.38      3.8625663      36.932903      25.90786       58.532016    
-807617.98      3.1678232      35.270051      25.923095      58.128716    
-807627.91      3.4593812      35.446047      25.962414      57.725277    
-807636.94      4.1338137      35.598198      25.95114       57.322008    
-807644.25      3.8025751      35.427853      25.957265      56.918803    
-807640.78      3.5514362      35.240873      25.912145      56.515964    
-807635.4       2.9027377      34.763794      25.842447      56.113629    
-807620.38      3.4964943      35.387471      25.871561      55.711209    
-807612.17      3.1249194      36.135928      25.882397      55.308815    
-807611.95      3.3533281      36.492203      25.918646      54.906304    
-807618.59      2.7760929      34.663607      25.918482      54.503886    
-807629.84      4.2173108      34.390322      25.935496      54.101464    
-807639.59      2.9717628      34.057446      25.909655      53.699277    
-807643.85      4.4702955      34.753526      25.935252      53.297039    
-807640.08      3.0439131      34.251307      25.937422      52.89488     
-807632.34      3.0739207      34.637913      25.966793      52.492655    
-807621.28      3.3249675      35.353446      25.974354      52.090483    
-807613.74      3.170866       36.024888      25.943748      51.688564    
-807612.22      3.3450323      36.566119      25.989011      51.2865      
-807619.65      2.9648014      35.394114      25.994357      50.884501    
-807631.23      4.4336279      35.818236      25.926024      50.482941    
-807640.63      3.2497301      34.906597      25.915226      50.081519    
-807640.37      4.1896121      35.675621      25.925315      49.68013     
-807637.41      3.4390157      35.761508      25.926399      49.27882     
-807632.05      3.1547655      34.890544      25.923099      48.877608    
-807619.93      2.8719577      36.316005      25.917745      48.476503    
-807613.18      3.6093414      36.49425       26.006151      48.075061    
-807612.92      3.1155653      36.58421       26.038443      47.673557    
-807622.54      3.1396084      35.387756      25.990733      47.272364    
-807632.89      3.2526033      34.894951      25.933279      46.871521    
-807639.01      3.0653089      35.502275      25.939781      46.470728    
-807640.37      3.5145082      35.266049      25.968715      46.069885    
-807638.43      2.8849797      34.349025      25.959002      45.669167    
-807630.21      3.4792041      34.484044      25.920983      45.268696    
-807617.18      3.1315626      35.697057      25.913392      44.868334    
-807614.6       3.2846662      35.918098      25.930372      44.467974    
-807614.76      2.60288        35.696603      26.003809      44.067378    
-807623.12      3.1284136      35.8566        26.035688      43.666732    
-807633.75      3.2750913      34.768044      26.019696      43.266236    
-807639.35      3.0302654      35.728947      26.005107      42.865883    
-807640.34      3.1646274      35.859801      25.998166      42.465637    
-807636.27      3.9171957      35.504857      26.024193      42.065368    
-807625.96      3.6900914      35.857983      25.998808      41.665279    
-807618.54      2.9500245      36.064395      25.948732      41.265463    
-807613.12      3.0956944      36.429011      25.907967      40.865877    
-807616.57      3.4870278      36.563697      25.926291      40.46629     
-807624.15      3.1742812      36.368885      25.910968      40.06683     
-807634.3       3.0488792      35.511039      25.93155       39.667361    
-807638.74      2.8626154      35.779754      25.958338      39.267863    
-807641.44      2.6170252      34.982782      25.963709      38.868416    
-807634.93      4.3266319      35.16789       25.951248      38.469085    
-807626.81      2.8064657      35.022885      25.964298      38.069777    
-807616.6       3.3293624      35.532978      25.922119      37.670686    
-807614.92      2.5962699      35.253782      25.929794      37.271634    
-807617.11      3.4825655      34.855192      25.922644      36.872673    
-807626.47      2.7855954      34.332873      25.928695      36.473755    
-807634.81      3.7101766      34.551028      25.950759      36.07483     
-807639.66      4.0130575      34.893401      25.919233      35.676074    
-807638.68      3.4756445      35.004115      25.935214      35.277329    
-807634.49      3.0375331      34.418124      25.950467      34.878599    
-807626.22      2.8920029      33.924252      25.887301      34.480133    
-807617.43      2.9871318      34.975114      25.901162      34.081683    
-807615.39      3.5250354      35.561706      25.995056      33.683006    
-807617.94      2.9834455      35.177048      26.016315      33.284333    
-807629.04      2.5943053      34.03101       25.928723      32.885987    
-807635.95      2.8818681      33.880455      25.967005      32.487591    
-807640.29      2.7647213      34.162064      25.93294       32.089355    
-807637.01      2.6615838      34.855731      25.946193      31.691142    
-807634.94      3.5398173      34.434653      25.907541      31.293098    
-807622         2.8401082      34.924833      25.906908      30.895113    
-807617.4       3.0137628      35.577914      25.913716      30.497166    
-807614.02      2.7552764      35.34586       25.974255      30.099114    
-807621.28      3.2971222      35.285605      25.96232       29.701156    
-807627.78      3.6004263      35.208805      25.923644      29.303357    
-807638.28      3.3970567      35.002087      25.9772        28.905478    
-807639.41      3.4640975      34.912546      25.96798       28.507683    
-807639.33      2.6587777      34.664016      25.921269      28.110062    
-807629.85      3.008043       34.866148      25.910809      27.712522    
-807624.48      2.7653557      34.338324      25.875778      27.315119    
-807615.74      3.4934851      34.576427      25.921551      26.917659    
-807615.62      2.9524413      35.305089      25.913983      26.52027     
-807621.01      3.2054614      34.963565      25.924986      26.12291     
-807631.08      3.8214542      34.303198      25.937859      25.725575    
-807634.75      3.0940167      35.293979      25.983305      25.328194    
-807641.06      3.4094926      34.605869      25.951422      24.930939    
-807635.77      3.7917588      35.615556      25.950209      24.533741    
-807630.04      3.1495944      35.49298       25.868588      24.136766    
-807621.35      2.8738006      35.428043      25.809941      23.739958    
-807616.31      3.2090283      36.105954      25.863523      23.343086    
-807616.24      2.9793018      35.64164       25.906392      22.946175    
-807622.66      3.1065854      35.449201      25.91404       22.549299    
-807629.84      3.4497141      34.858016      25.92562       22.152451    
-807635.1       3.3381091      35.136526      25.915508      21.755671    
-807638.2       2.826666       34.474289      25.878935      21.359007    
-807636.18      2.9991214      34.068998      25.909515      20.962334    
-807628.85      3.2901476      35.094363      25.868971      20.565779    
-807620.65      3.190688       35.643347      25.877798      20.169254    
-807619.07      3.3077808      35.350395      25.916516      19.772709    
-807618.17      3.1446483      35.814761      25.971612      19.376123    
-807621.97      3.3116491      35.971716      25.939602      18.979638    
-807630.11      2.9976401      34.584468      25.916526      18.583238    
-807635.55      3.5193582      35.964302      25.92371       18.186873    
-807635.52      3.5499721      35.950232      25.907325      17.790579    
-807634.26      3.4064272      36.1456        25.887507      17.394359    
-807625.03      3.4865784      35.979293      25.850607      16.998234    
-807621.66      2.8288507      36.333946      25.861449      16.602134    
-807614.2       3.6781341      37.116077      25.93862       16.205973    
-807618.01      3.3602242      36.71527       25.974029      15.809813    
-807620.41      3.2645083      36.668498      25.974415      15.4137      
-807632.78      3.3300046      35.989315      25.946418      15.01767     
-807635.66      3.5625442      35.470939      25.944021      14.621688    
-807636.83      3.1496075      35.466547      25.892207      14.225812    
-807632.15      3.2126933      35.547085      25.917581      13.829949    
-807628.47      2.6520452      35.289149      25.867565      13.434183    
-807620.73      2.9193265      34.793793      25.861864      13.038463    
-807615.2       3.2802539      36.336562      25.869107      12.642774    
-807617.53      2.9809676      36.166792      25.919861      12.247074    
-807627.42      3.2813843      34.924023      25.918064      11.851417    
-807631.11      3.0611451      35.205799      25.926075      11.455795    
-807635.55      4.5232415      35.582506      25.877335      11.060258    
-807636.37      2.9597559      35.366148      25.845773      10.664787    
-807635.32      3.2284422      34.300813      25.86199       10.269338    
-807627.65      2.611218       34.440471      25.912797      9.8738863    
-807620.26      2.7804675      35.245579      25.923775      9.4784666    
-807620.42      3.1867664      35.069168      25.886107      9.0831144    
-807621.93      3.3783384      34.997066      25.898651      8.6877915    
-807628.1       3.4236861      34.632859      25.940096      8.2924799    
-807629.37      3.4005392      35.210466      25.902793      7.8972324    
-807639.04      4.1410912      35.043998      25.9324        7.5020056    
-807634.74      3.6453629      35.806824      25.919406      7.106826     
-807634.57      3.5842706      34.750725      25.935895      6.7116765    
-807624.88      4.5365802      35.066956      25.928573      6.3165701    
-807623.58      3.9581123      35.015935      25.904433      5.9215139    
-807620.34      4.4526622      34.939729      25.881302      5.5265047    
-807623.63      3.6016433      35.299525      25.859618      5.1315395    
-807626.16      4.0050601      35.046944      25.89928       4.7365937    
-807634.29      3.4409136      34.264722      25.880124      4.3416904    
-807636.12      3.5118077      35.252923      25.909188      3.946813     
-807635.41      3.5593436      36.016769      25.862828      3.5519846    
-807630.53      3.7437924      35.602198      25.911471      3.1571776    
-807627.01      4.4688454      36.137136      25.951814      2.7623981    
-807620.57      4.0404308      36.415819      25.919145      2.3676627    
-807619.55      4.0847835      36.256991      25.906703      1.9729653    
-807621.08      3.2462253      35.320482      25.890391      1.5783049    
-807626.68      3.2026974      35.402705      25.923382      1.1836754    
-807636.01      2.6286703      33.978167      25.871529      0.78908469   
-807633.95      3.198946       35.641286      25.925527      0.39452466   
-807634.57      3.0135136      35.902971      25.932157      0            
Loop time of 197.253 on 32 procs for 5000 steps with 1080 atoms

Performance: 4.380 ns/day, 5.479 hours/ns, 25.348 timesteps/s, 27.376 katom-step/s
67.6% CPU use with 32 MPI tasks x 1 OpenMP threads

MPI task timing breakdown:
Section |  min time  |  avg time  |  max time  |%varavg| %total
---------------------------------------------------------------
Pair    | 101.53     | 144.79     | 193.01     | 308.1 | 73.40
Neigh   | 0          | 0          | 0          |   0.0 |  0.00
Comm    | 1.938      | 50.152     | 93.409     | 523.5 | 25.43
Output  | 0.026038   | 0.027022   | 0.027728   |   0.2 |  0.01
Modify  | 1.9532     | 1.9699     | 1.9804     |   0.4 |  1.00
Other   |            | 0.3142     |            |       |  0.16

Nlocal:          33.75 ave          48 max          21 min
Histogram: 8 8 0 0 0 0 0 8 0 8
Nghost:        1106.25 ave        1119 max        1092 min
Histogram: 8 0 8 0 0 0 0 0 8 8
Neighs:              0 ave           0 max           0 min
Histogram: 32 0 0 0 0 0 0 0 0 0
FullNghs:       5494.5 ave        7896 max        3378 min
Histogram: 8 8 0 0 0 0 0 8 0 8

Total # of neighbors = 175824
Ave neighs/atom = 162.8
Neighbor list builds = 0
Dangerous builds = 0

reset_timestep 0


variable interval equal 1000
thermo 10

variable nintervals equal $(v_PERIOD/v_interval)
variable nintervals equal 100
variable efield equal 1e-2*36.36*cos((step/${PERIOD})*2*3.14)
variable efield equal 1e-2*36.36*cos((step/100000)*2*3.14)
fix born all addbornforce 0.0 0.0 v_efield

variable Px equal f_born[1]+c_polarization[1]
variable Py equal f_born[2]+c_polarization[2]
variable Pz equal (f_born[3]+c_polarization[3])/vol
variable pe equal pe

fix aveP all ave/time 1 $(v_interval/2) ${interval} v_efield v_Pz v_pe f_born file Pz.${MODEL}.${STRUCTURE}.${TEMP}.$L.${ITER}
fix aveP all ave/time 1 500 ${interval} v_efield v_Pz v_pe f_born file Pz.${MODEL}.${STRUCTURE}.${TEMP}.$L.${ITER}
fix aveP all ave/time 1 500 1000 v_efield v_Pz v_pe f_born file Pz.${MODEL}.${STRUCTURE}.${TEMP}.$L.${ITER}
fix aveP all ave/time 1 500 1000 v_efield v_Pz v_pe f_born file Pz.BaTiO3-E0.${STRUCTURE}.${TEMP}.$L.${ITER}
fix aveP all ave/time 1 500 1000 v_efield v_Pz v_pe f_born file Pz.BaTiO3-E0.BaTiO3-sc333.${TEMP}.$L.${ITER}
fix aveP all ave/time 1 500 1000 v_efield v_Pz v_pe f_born file Pz.BaTiO3-E0.BaTiO3-sc333.330.$L.${ITER}
fix aveP all ave/time 1 500 1000 v_efield v_Pz v_pe f_born file Pz.BaTiO3-E0.BaTiO3-sc333.330.2.${ITER}
fix aveP all ave/time 1 500 1000 v_efield v_Pz v_pe f_born file Pz.BaTiO3-E0.BaTiO3-sc333.330.2.4

thermo_style custom step time temp press pe f_born v_efield v_Pz spcpu cpuremain

# dump 4a all custom 1000 dump.hyst.${MODEL}.${STRUCTURE}.${TEMP}.$L.${ITER}.bin id type xu yu zu fx fy fz
# dump_modify 4a sort id

fix nvt all nvt temp ${TEMP} ${TEMP} $(100*dt)
fix nvt all nvt temp 330 ${TEMP} $(100*dt)
fix nvt all nvt temp 330 330 $(100*dt)
fix nvt all nvt temp 330 330 0.2000000000000000111

run $(v_PERIOD)
run 100000
WARNING: non-constant efield is experimental, strongly distrust scalar/vector output (src/fix_addbornforce.cpp:193)
Per MPI rank memory allocation (min/avg/max) = 3.516 | 3.516 | 3.516 Mbytes
   Step          Time           Temp          Press          PotEng         f_born        v_efield         v_Pz          S/CPU         CPULeft    
         0   0              324.03788      127466.42     -807634.57     -295.25741      0.3636         0.055529588    0              0            
        10   0.02           330.42093      133833.69     -807629.87     -300.74987      0.36359993     0.056562575    28.167141      3549.8999    
        20   0.04           331.39617      135953.01     -807625.41     -305.49445      0.36359971     0.057454931    28.149022      3550.6754    
        30   0.06           339.8773       142236.67     -807619.32     -312.77051      0.36359935     0.058823413    28.139883      3551.085     
        40   0.08           331.53362      140238.45     -807618.95     -312.07991      0.36359885     0.058693611    28.129346      3551.4432    
        50   0.1            316.02564      141300.57     -807619.46     -309.30078      0.36359821     0.058171035    28.137345      3551.3139    
        60   0.12           327.75431      131834.92     -807630.34     -300.13014      0.36359742     0.056446411    28.132336      3551.2149    
        70   0.14           329.91779      131992.77     -807632.38     -298.30174      0.36359649     0.056102682    28.155448      3550.626     
        80   0.16           318.84814      125743.82     -807635.63     -293.61768      0.36359541     0.055221898    28.094794      3551.0532    
        90   0.18           324.96746      131875.78     -807633.47     -296.50183      0.36359419     0.055764519    28.087481      3551.4092    
       100   0.2            328.90065      130502.38     -807632        -298.7147       0.36359283     0.056180914    28.08909       3551.6021    
       110   0.22           344.19898      139399.41     -807623.19     -309.56236      0.36359132     0.058221334    28.100247      3551.5676    
       120   0.24           335.15453      139850.81     -807620.05     -311.65078      0.36358968     0.058614382    28.087133      3551.6174    
       130   0.26           324.36382      143068.45     -807617.4      -312.72089      0.36358788     0.058815936    28.076977      3551.7037    
       140   0.28           328.84667      135663.17     -807624.57     -306.25939      0.36358595     0.057600976    28.118734      3551.3496    
       150   0.3            330.10191      135426.91     -807627.37     -303.62091      0.36358387     0.057105059    28.167795      3550.5823    
       160   0.32           333.06817      127761.74     -807634.98     -296.58985      0.36358165     0.055782998    28.111772      3550.3092    
       170   0.34           314.53424      129041.02     -807634.1      -294.79532      0.36357928     0.055445841    28.108765      3550.0479    
       180   0.36           324.33386      128464.83     -807636.17     -294.2019       0.36357677     0.055334612    28.063484      3550.0949    
       190   0.38           334.42388      133764.96     -807628.9      -303.00931      0.36357412     0.056991559    28.095682      3549.8848    
       200   0.4            329.93684      137927.34     -807622.77     -308.69074      0.36357132     0.058060597    28.120407      3549.5041    
       210   0.42           325.08         141762.48     -807620.33     -310.51039      0.36356838     0.058403322    28.114361      3549.1617    
       220   0.44           318.1254       141745.9      -807619.57     -310.31686      0.3635653      0.058367416    28.151031      3548.6083    
       230   0.46           330.90284      137211.69     -807624.78     -307.09769      0.36356207     0.057762435    28.110194      3548.2959    
       240   0.48           331.77794      134637.97     -807629.6      -302.48319      0.3635587      0.056895015    28.129887      3547.8761    
       250   0.5            318.12935      128852.34     -807634.84     -295.47224      0.36355519     0.055576841    28.157647      3547.3218    
       260   0.52           316.78275      129929.41     -807635.79     -294.31668      0.36355153     0.055360043    28.142759      3546.855     
       270   0.54           317.55653      129043.55     -807633.63     -296.88425      0.36354773     0.055843577    28.104831      3546.5734    
       280   0.56           328.56315      135756.21     -807626.85     -305.20679      0.36354379     0.05740966     28.08412       3546.3801    
       290   0.58           336.36071      136307.79     -807626.3      -307.05115      0.3635397      0.057757236    28.086638      3546.1645    
       300   0.6            318.79176      142708.28     -807619.61     -311.17917      0.36353547     0.05853441     28.088665      3545.9311    
       310   0.62           331.40073      137572.57     -807623.21     -309.64937      0.3635311      0.058247347    28.063759      3545.7915    
       320   0.64           330.9778       138815.7      -807624.76     -307.96232      0.36352658     0.05793072     28.101113      3545.4905    
       330   0.66           329.76705      129938.21     -807633.47     -299.19812      0.36352192     0.05628281     28.111413      3545.1469    
       340   0.68           313.36332      130585.5      -807634.22     -296.05461      0.36351712     0.055692214    28.097677      3544.8536    
       350   0.7            308.50216      126361.44     -807636.02     -293.75195      0.36351217     0.0552598      28.11626       3544.4899    
       360   0.72           327.22872      132570.01     -807631.64     -300.6846       0.36350708     0.056564744    28.116901      3544.1243    
       370   0.74           323.77515      132960.53     -807629.42     -302.53949      0.36350185     0.056914505    28.116233      3543.7614    
       380   0.76           312.60196      141382.88     -807621.03     -309.16418      0.36349647     0.058161619    28.116972      3543.3963    
       390   0.78           333.66181      138840.74     -807622.67     -310.56012      0.36349095     0.058425118    28.109278      3543.0568    
       400   0.8            332.10978      141108.97     -807621.43     -311.39715      0.36348529     0.058583501    28.12897       3542.6545    
       410   0.82           320.64637      134158.78     -807626.99     -304.22998      0.36347948     0.057236047    28.117099      3542.2909    
       420   0.84           327.01799      133252.61     -807631.93     -299.92062      0.36347353     0.056426233    28.114433      3541.9353    
       430   0.86           324.42543      127221.4      -807636.01     -295.37385      0.36346744     0.055571748    28.111093      3541.5901    
       440   0.88           323.30202      129982.27     -807634.89     -296.06742      0.3634612      0.055703191    28.133497      3541.1801    
       450   0.9            323.8807       130263.54     -807633.13     -297.8126       0.36345482     0.05603252     28.097904      3540.872     
       460   0.92           338.0191       136347.85     -807627.7      -304.93472      0.3634483      0.057373554    28.105873      3540.5401    
       470   0.94           326.89536      139714.98     -807621.74     -309.1657       0.36344163     0.058170681    28.07434       3540.2917    
       480   0.96           329.13319      142018.7      -807618.93     -312.02053      0.36343482     0.058708929    28.119076      3539.9214    
       490   0.98           335.31696      138808.28     -807623.01     -308.53528      0.36342786     0.058054265    28.119314      3539.551     
       500   1              324.05585      136864.93     -807624.53     -305.07293      0.36342077     0.057403907    28.229572      3538.9049    
       510   1.02           338.82206      131376.15     -807631.81     -9587.2781      0.36341353     0.056375678    28.094711      3538.6019    
       520   1.04           319.06564      129149.2      -807632.61     -9464.8375      0.36340614     0.055656826    28.081906      3538.3279    
       530   1.06           337.13303      129263.15     -807635.28     -9451.5639      0.36339862     0.055579923    28.032611      3538.1684    
       540   1.08           319.58257      131546.08     -807629.47     -9555.0047      0.36339095     0.056189393    28.063341      3537.9297    
       550   1.1            344.9309       137325.47     -807625.49     -9788.6568      0.36338313     0.057564651    28.085106      3537.6367    
       560   1.12           332.87491      139469.58     -807620.8      -9883.537       0.36337518     0.05812389     27.959205      3537.626     
       570   1.14           322.42782      143163.73     -807615.97     -9983.9242      0.36336707     0.058715565    27.939516      3537.6473    
       580   1.16           340.28127      137753.94     -807623.25     -9828.9342      0.36335883     0.057805378    28.066641      3537.3776    
       590   1.18           348.36401      137324.38     -807625.51     -9784.4671      0.36335044     0.057545189    28.169818      3536.8851    
       600   1.2            338.3913       130421.45     -807631.61     -9545.2001      0.36334191     0.056139311    28.13938       3536.4607    
       610   1.22           338.25348      131059.48     -807633.61     -9472.1408      0.36333324     0.055710948    28.095103      3536.1299    
       620   1.24           331.51394      127353.67     -807634.98     -9404.2891      0.36332442     0.055313217    28.073856      3535.8414    
       630   1.26           338.65728      134649.85     -807628.59     -9637.3895      0.36331546     0.056685642    28.060239      3535.578     
       640   1.28           335.44518      135074.55     -807625.09     -9740.3817      0.36330636     0.057292862    27.906603      3535.6165    
       650   1.3            328.39231      141860.56     -807618.43     -9918.5136      0.36329711     0.058342117    27.98263       3535.4938    
       660   1.32           337.36626      138959.28     -807620.86     -9886.2472      0.36328772     0.058153825    28.069403      3535.1977    
       670   1.34           342.85167      141403.23     -807620.8      -9912.0655      0.36327819     0.058307225    28.08461       3534.8712    
       680   1.36           337.52812      134609.53     -807626.85     -9700.6957      0.36326851     0.057065373    28.075584      3534.5606    
       690   1.38           334.28366      132578.15     -807631.26     -9544.4255      0.36325869     0.056147615    28.006522      3534.3751    
       700   1.4            334.75517      128537.37     -807636.11     -9394.7645      0.36324873     0.05526871     28.013327      3534.1724    
       710   1.42           339.34792      130780.22     -807633.59     -9499.2201      0.36323863     0.05588477     28.017406      3533.958     
       720   1.44           332.37097      132717.79     -807629.62     -9603.1799      0.36322838     0.056497969    27.964415      3533.833     
       730   1.46           329.04165      137910.39     -807623.91     -9773.8138      0.36321798     0.057503497    27.946807      3533.7323    
       740   1.48           336.52621      139984.54     -807622.09     -9871.7903      0.36320745     0.058081619    27.992707      3533.5458    
       750   1.5            322.33741      142110.91     -807618.11     -9941.0741      0.36319677     0.058490977    28.010669      3533.3245    
       760   1.52           333.74853      138951.34     -807622.78     -9847.4101      0.36318595     0.057941606    28.078574      3532.9869    
       770   1.54           337.76925      133749.32     -807629.81     -9643.9982      0.36317498     0.056746456    28.092859      3532.6255    
       780   1.56           326.17471      131519.69     -807632.91     -9497.8186      0.36316387     0.055888027    28.042922      3532.3449    
       790   1.58           327.26922      128497.98     -807634.86     -9448.9507      0.36315262     0.055602196    28.001434      3532.1287    
       800   1.6            327.50156      131514.39     -807632.65     -9522.7265      0.36314122     0.056038086    27.977021      3531.9476    
       810   1.62           326.22184      132519.09     -807630.49     -9595.1016      0.36312968     0.056465784    27.899485      3531.8838    
       820   1.64           318.84433      140495.42     -807621.45     -9855.6858      0.363118       0.058001151    28.046437      3531.5856    
       830   1.66           320.24376      139955.76     -807619.6      -9927.2599      0.36310618     0.05842427     28.111055      3531.1882    
       840   1.68           332.87584      140786.47     -807621.55     -9920.1258      0.36309421     0.058384209    28.115658      3530.7849    
       850   1.7            330.01348      135517.4      -807626.77     -9747.2097      0.3630821      0.057368436    28.109173      3530.3921    
       860   1.72           329.72547      134345.92     -807628.59     -9685.6346      0.36306984     0.057007952    28.114483      3529.9926    
       870   1.74           327.75383      128072.88     -807634.31     -9497.7447      0.36305745     0.055903974    28.034702      3529.7094    
       880   1.76           315.83491      130921.87     -807633.24     -9475.8793      0.3630449      0.055777201    28.102883      3529.327     
       890   1.78           325.97235      129932.59     -807634.54     -9483.5329      0.36303222     0.055824202    28.103137      3528.9449    
       900   1.8            331.34555      135023.84     -807627.69     -9725.2722      0.36301939     0.057249208    27.975348      3528.7424    
       910   1.82           334.29065      137225.39     -807624.8      -9833.3713      0.36300642     0.057887617    28.029697      3528.4609    
       920   1.84           327.8906       141466.36     -807621.9      -9895.0113      0.36299331     0.058252586    28.062169      3528.1334    
       930   1.86           320.70349      139241.26     -807622.37     -9848.2064      0.36298005     0.057979161    28.058138      3527.8107    
       940   1.88           328.83416      137420.71     -807625.39     -9787.5139      0.36296665     0.057623974    28.037359      3527.5151    
       950   1.9            324.95784      132573.06     -807630.41     -9605.9164      0.36295311     0.056556929    28.000388      3527.2674    
       960   1.92           322.73454      129896.89     -807634.38     -9465.5401      0.36293942     0.055732535    28.034433      3526.9726    
       970   1.94           321.83403      129296.2      -807634.7      -9450.6137      0.36292559     0.055646769    27.945934      3526.7919    
       980   1.96           325.13728      131484.09     -807631.32     -9570.8877      0.36291162     0.056357132    27.956443      3526.5939    
       990   1.98           326.08582      135558.68     -807627.27     -9703.8648      0.3628975      0.057142376    28.034274      3526.2934    
      1000   2              336.44511      138538.09     -807624.85     -9826.4427      0.36288325     0.057866464    28.027393      3526.0005    
      1010   2.02           318.63452      140827.5      -807619.84     -309.49667      0.36286884     0.058324876    28.155858      3525.5467    
      1020   2.04           330.58953      139770.21     -807622.53     -308.44363      0.3628543      0.05812876     28.13369       3525.122     
      1030   2.06           325.72496      136917.65     -807625.02     -305.11064      0.36283961     0.057502957    28.153483      3524.6747    
      1040   2.08           329.76599      131299.98     -807631.81     -298.77306      0.36282478     0.056310841    28.186493      3524.1896    
      1050   2.1            331.80682      130748.39     -807634.16     -296.53146      0.3628098      0.055890665    28.140475      3523.7616    
      1060   2.12           319.64164      128974.9      -807633.54     -295.44416      0.36279469     0.055688051    28.069112      3523.4193    
      1070   2.14           331.2584       133437.53     -807630.27     -300.18417      0.36277943     0.056583872    28.026268      3523.1271    
      1080   2.16           317.27214      134921.3      -807626.47     -302.02487      0.36276402     0.056933255    28.040813      3522.8167    
      1090   2.18           338.8756       140168.37     -807622.56     -308.74782      0.36274848     0.058203061    28.081889      3522.4582    
      1100   2.2            327.48999      138787.02     -807621.08     -308.64237      0.36273279     0.058185699    28.060739      3522.1239    
      1110   2.22           342.0927       139996.92     -807622.95     -308.52122      0.36271695     0.058165397    28.084891      3521.7618    
      1120   2.24           328.59706      134231.32     -807627.48     -302.08054      0.36270098     0.056953647    28.07368       3521.4124    
      1130   2.26           335.39083      133371.42     -807630.97     -299.33722      0.36268486     0.056438935    28.082495      3521.0531    
      1140   2.28           321.19202      128898.59     -807632.67     -295.6083       0.3626686      0.055738361    28.074665      3520.7025    
      1150   2.3            332.95713      130590.51     -807633.24     -296.41505      0.36265219     0.055893006    28.083591      3520.3421    
      1160   2.32           324.62129      131278.16     -807629.97     -298.46789      0.36263564     0.056282664    28.081432      3519.984     
      1170   2.34           342.69598      137355.27     -807625.98     -304.85332      0.36261895     0.057489423    28.146908      3519.556     
      1180   2.36           347.20308      139377.88     -807623.65     -307.72273      0.36260212     0.058033232    28.134453      3519.1424    
      1190   2.38           331.52831      140611.46     -807620.31     -308.70845      0.36258514     0.058221855    28.142875      3518.721     
      1200   2.4            335.96635      138889.9      -807622.27     -307.25448      0.36256802     0.057950374    28.119275      3518.3252    
      1210   2.42           333.37452      135277.97     -807626.18     -302.87638      0.36255076     0.057127353    28.133513      3517.9154    
      1220   2.44           338.46682      131661.42     -807631.44     -298.10485      0.36253335     0.056230066    28.090114      3517.551     
      1230   2.46           331.11464      128977.49     -807633.57     -294.92501      0.3625158      0.05563296     28.118364      3517.1579    
      1240   2.48           327.60984      131339.52     -807631.16     -296.70381      0.36249811     0.055971235    28.11212       3516.7718    
      1250   2.5            343.04512      131742.86     -807630.89     -299.15176      0.36248028     0.056435801    28.126251      3516.372     
      1260   2.52           337.92154      137633.69     -807624.15     -305.01571      0.3624623      0.057544906    28.109973      3515.989     
      1270   2.54           330.65156      138078.31     -807621.65     -306.53574      0.36244418     0.05783457     28.109769      3515.6067    
      1280   2.56           336.09082      142066.56     -807618.92     -309.84502      0.36242592     0.058461882    28.085045      3515.249     
      1290   2.58           338.51142      136762.02     -807624.1      -305.09271      0.36240751     0.057568135    28.144546      3514.8336    
      1300   2.6            338.23744      136787.27     -807625.8      -303.09951      0.36238896     0.057194965    28.099784      3514.4622    
      1310   2.62           343.37558      129804.1      -807633.38     -296.34116      0.36237027     0.055922546    28.113434      3514.078     
      1320   2.64           332.60077      132666.94     -807631.4      -296.69941      0.36235143     0.055993062    28.139164      3513.6699    
      1330   2.66           341.12076      128616.72     -807634.15     -295.25842      0.36233245     0.055724038    28.091217      3513.3077    
      1340   2.68           334.97268      134699.09     -807627.77     -300.72396      0.36231333     0.056758543    28.118469      3512.92      
      1350   2.7            332.01346      135110.94     -807624.91     -303.35469      0.36229407     0.057258111    28.145331      3512.5081    
      1360   2.72           334.27198      140561.31     -807619.48     -309.10619      0.36227466     0.05834683     28.122329      3512.1181    
      1370   2.74           339.87262      138553.16     -807622.85     -306.748        0.36225511     0.057904822    28.103474      3511.7457    
      1380   2.76           320.0346       140067.88     -807620.14     -306.78995      0.36223542     0.05791589     28.111844      3511.3661    
      1390   2.78           344.19896      132924.46     -807630.26     -300.30664      0.36221558     0.056695073    28.100054      3510.9973    
      1400   2.8            327.4931       133333.59     -807630.41     -297.9678       0.3621956      0.056256626    28.102233      3510.6268    
      1410   2.82           328.5454       129475.44     -807634.34     -294.47509      0.36217548     0.055600288    28.077759      3510.2782    
      1420   2.84           331.68637      131173.18     -807632.08     -297.3459       0.36215522     0.05614547     28.118044      3509.8941    
      1430   2.86           324.81277      133516.78     -807629.05     -299.81504      0.36213481     0.056614889    28.161296      3509.4727    
      1440   2.88           334.56354      137157.09     -807626.06     -304.44807      0.36211426     0.05749302     28.106491      3509.0996    
      1450   2.9            335.17479      138416.52     -807622.43     -308.36833      0.36209357     0.058236661    28.078101      3508.7512    
      1460   2.92           325.68919      139277.69     -807622.94     -306.84197      0.36207273     0.057951737    28.161645      3508.3314    
      1470   2.94           324.90979      138177.73     -807624.65     -305.15515      0.36205176     0.057636495    28.149072      3507.9231    
      1480   2.96           331.74264      133764.45     -807630.17     -300.83074      0.36203064     0.056823032    28.125517      3507.5354    
      1490   2.98           318.79598      131462.9      -807632.62     -296.68849      0.36200937     0.056043907    28.113401      3507.1582    
      1500   3              318.09816      129100.39     -807634.6      -294.73592      0.36198796     0.055678362    28.099232      3506.793     
      1510   3.02           319.54103      130739.6      -807633        -9493.4513      0.36196642     0.056047131    28.028896      3506.4863    
      1520   3.04           312.99465      134032.87     -807628.92     -9599.7833      0.36194472     0.056678288    28.029472      3506.1783    
      1530   3.06           338.21466      137348.1      -807627.13     -9769.4852      0.36192289     0.057683708    28.044767      3505.8573    
      1540   3.08           316.09799      139061.31     -807622.05     -9836.9883      0.36190091     0.058085806    28.038973      3505.5405    
      1550   3.1            318.7106       140266.42     -807621.49     -9865.3529      0.36187879     0.058256855    28.097865      3505.1757    
      1560   3.12           327.72422      136046        -807627.16     -9725.419       0.36185653     0.057434051    28.117585      3504.7952    
      1570   3.14           329.05328      133582.22     -807630.55     -9619.2973      0.36183412     0.05681086     28.109388      3504.4216    
      1580   3.16           326.32572      129435.49     -807634.37     -9484.7098      0.36181157     0.056019488    28.057715      3504.089     
      1590   3.18           309.85328      130385.36     -807633.11     -9450.443       0.36178888     0.055820598    28.102652      3503.7208    
      1600   3.2            321.77783      130645.09     -807633.61     -9485.9919      0.36176605     0.056034111    28.086616      3503.3653    
      1610   3.22           328.34926      133808.7      -807630.02     -9626.2968      0.36174307     0.056866509    28.137533      3502.9704    
      1620   3.24           315.83407      138003.19     -807623.78     -9768.2881      0.36171995     0.057708998    28.140867      3502.5735    
      1630   3.26           319.75771      139966.74     -807622.19     -9832.6244      0.36169669     0.058092819    28.148419      3502.1713    
      1640   3.28           328.24347      139083.27     -807624.27     -9795.9396      0.36167329     0.057879825    28.133585      3501.7809    
      1650   3.3            329.29705      136590.81     -807627.09     -9705.5807      0.36164974     0.057349668    28.113014      3501.4064    
      1660   3.32           322.83622      133300.76     -807629.67     -9586.3275      0.36162605     0.056648719    28.071148      3501.0636    
      1670   3.34           328.54656      129812.8      -807634.48     -9447.3835      0.36160222     0.055831333    28.084313      3500.7108    
      1680   3.36           319.96907      130006.23     -807634.51     -9402.0002      0.36157824     0.055566815    28.071764      3500.3672    
      1690   3.38           326.3266       131406.13     -807632.58     -9483.9805      0.36155413     0.056055066    28.078076      3500.0189    
      1700   3.4            326.37425      135312.19     -807626.29     -9676.9497      0.36152987     0.057199448    28.09198       3499.6603    
      1710   3.42           334.37592      137159.87     -807624.63     -9755.6333      0.36150546     0.057668432    28.144438      3499.2635    
      1720   3.44           327.58774      140735.01     -807621.56     -9813.0524      0.36148092     0.058011792    28.055986      3498.9313    
      1730   3.46           336.39435      138651.52     -807623.2      -9791.8547      0.36145623     0.057890431    28.021581      3498.6236    
      1740   3.48           340.52081      136562.68     -807625.41     -9729.1948      0.3614314      0.057523931    28.064757      3498.2844    
      1750   3.5            332.69561      132460.74     -807630.27     -9529.4624      0.36140643     0.056346905    28.088266      3497.9282    
      1760   3.52           337.5007       130803.43     -807634.1      -9419.9796      0.36138131     0.055703414    27.984246      3497.6459    
      1770   3.54           336.31617      129804.59     -807634.48     -9396.9398      0.36135605     0.055571056    27.962533      3497.3781    
      1780   3.56           335.93894      132576.47     -807629.82     -9538.3366      0.36133065     0.056411205    28.065269      3497.0371    
      1790   3.58           345.30691      135552.11     -807628.03     -9637.8154      0.36130511     0.057003568    28.020238      3496.7274    
      1800   3.6            336.829        139107.98     -807623.39     -9743.317       0.36127942     0.057631662    28.022201      3496.4158    
      1810   3.62           339.39997      139524.47     -807621.66     -9811.0043      0.3612536      0.058036181    28.048226      3496.0856    
      1820   3.64           340.87546      138857.62     -807622.06     -9802.4606      0.36122763     0.05798981     28.050248      3495.7539    
      1830   3.66           333.68941      136187.99     -807625.85     -9647.9177      0.36120151     0.057079685    28.022239      3495.4409    
      1840   3.68           330.50175      132255.86     -807630.68     -9478.7666      0.36117526     0.056083018    27.930324      3495.1902    
      1850   3.7            329.76592      131379.98     -807631.3      -9455.2626      0.36114886     0.055948041    27.904893      3494.9556    
      1860   3.72           340.84295      130093.71     -807632.34     -9471.3659      0.36112232     0.056047446    27.949963      3494.6892    
      1870   3.74           336.1936       133866.27     -807629.66     -9534.3742      0.36109564     0.056424471    28.017852      3494.3762    
      1880   3.76           333.29605      135302.4      -807626.84     -9614.8843      0.36106881     0.056905157    28.109606      3494.0021    
      1890   3.78           344.36968      138919.29     -807623.46     -9773.9734      0.36104184     0.057851037    28.062392      3493.6591    
      1900   3.8            346.18885      138072.88     -807623.55     -9781.9743      0.36101474     0.057902742    28.097416      3493.2932    
      1910   3.82           330.346        138364.57     -807622.88     -9733.0097      0.36098748     0.057617253    28.109292      3492.9196    
      1920   3.84           342.22267      133955.29     -807629.38     -9581.6821      0.36096009     0.056725733    28.07758       3492.5667    
      1930   3.86           340.86591      132200.9      -807630.57     -9538.8292      0.36093255     0.056476342    28.069197      3492.2192    
      1940   3.88           325.87084      130909.79     -807631.04     -9459.5378      0.36090487     0.056011179    28.044836      3491.8872    
      1950   3.9            332.73758      131708.74     -807631.75     -9470.5081      0.36087705     0.056080458    27.952958      3491.6139    
      1960   3.92           322.50864      132920.86     -807628.42     -9537.2766      0.36084909     0.05648021     28.014404      3491.3005    
      1970   3.94           331.35264      135826.48     -807625.43     -9673.2942      0.36082098     0.057290175    28.014076      3490.9869    
      1980   3.96           329.97196      137031        -807622.46     -9767.5702      0.36079273     0.057853055    28.037675      3490.6579    
      1990   3.98           328.55242      138769.76     -807622.79     -9751.7219      0.36076434     0.057763732    28.037477      3490.3288    
      2000   4              342.71441      137153.45     -807627.65     -9661.0438      0.36073581     0.057231132    28.080972      3489.9724    
      2010   4.02           340.81392      133984.29     -807629.26     -300.14641      0.36070713     0.056901792    28.110798      3489.5975    
      2020   4.04           337.92159      131740.49     -807630.98     -298.13624      0.36067831     0.05652522     28.093441      3489.2335    
      2030   4.06           323.12383      130646.99     -807631.81     -295.30801      0.36064935     0.055993497    28.123812      3488.851     
      2040   4.08           329.46416      131450.23     -807633.08     -295.02605      0.36062025     0.055944548    28.158087      3488.448     
      2050   4.1            332.67161      133635.09     -807629.35     -299.30469      0.36059101     0.056760491    28.110986      3488.0739    
      2060   4.12           319.72626      136203.98     -807623.99     -302.98267      0.36056162     0.057462671    28.155955      3487.673     
      2070   4.14           330.46262      138068.4      -807625.16     -303.31917      0.36053209     0.057531202    28.156033      3487.2725    
      2080   4.16           330.74573      136982.63     -807625.84     -302.79631      0.36050242     0.057436757    28.128614      3486.8886    
      2090   4.18           336.33735      136437.54     -807626.08     -303.42018      0.36047261     0.057559858    28.110114      3486.5161    
      2100   4.2            326.41474      133625.75     -807628.02     -300.19682      0.36044265     0.056953107    28.109998      3486.1437    
      2110   4.22           324.47444      133073.35     -807630.87     -297.00442      0.36041256     0.056352153    28.127271      3485.7614    
      2120   4.24           317.1282       130775.05     -807632.65     -294.31125      0.36038232     0.055845851    28.107327      3485.3909    
      2130   4.26           330.59341      132150.27     -807630.89     -298.04526      0.36035193     0.05655915     28.137497      3485.0031    
      2140   4.28           329.04547      132265.96     -807629.72     -299.06407      0.36032141     0.056757296    28.090431      3484.6428    
      2150   4.3            331.62968      135879.43     -807628.06     -301.08359      0.36029075     0.057145428    28.115242      3484.2683    
      2160   4.32           319.73685      135952.6      -807625.38     -302.26487      0.36025994     0.057374541    28.114193      3483.8946    
      2170   4.34           331.95448      137366.29     -807624.79     -304.60287      0.36022899     0.057823297    28.142054      3483.5051    
      2180   4.36           331.96519      135683.77     -807627.34     -302.06091      0.36019789     0.057345701    28.201891      3483.0821    
      2190   4.38           304.21581      135210.45     -807627.25     -298.29734      0.36016666     0.056636106    28.203657      3482.6587    
      2200   4.4            317.67963      131932.7      -807631.68     -295.80714      0.36013528     0.056168198    28.19707       3482.2397    
      2210   4.42           331.09329      130161.77     -807632.11     -297.28204      0.36010377     0.056453195    28.235264      3481.8       
      2220   4.44           321.19463      132478.33     -807630.13     -297.94137      0.36007211     0.056583376    28.194355      3481.3837    
      2230   4.46           319.7011       133581.19     -807629.93     -297.96617      0.3600403      0.056593084    28.217881      3480.955     
      2240   4.48           320.06988      136868.66     -807627.15     -300.86165      0.36000836     0.057148096    28.124227      3480.5784    
      2250   4.5            328.68023      136420.96     -807625.76     -303.56625      0.35997627     0.057666969    28.076479      3480.2284    
      2260   4.52           340.5312       136830.35     -807626.75     -304.21709      0.35994404     0.05779578     28.126989      3479.8506    
      2270   4.54           311.16352      134332.36     -807627.51     -299.47446      0.35991167     0.056899883    28.113994      3479.4801    
      2280   4.56           326.10125      134225.86     -807630.96     -298.00473      0.35987916     0.05662575     28.160208      3479.0846    
      2290   4.58           322.67261      130221.19     -807632.38     -296.17635      0.35984651     0.056283435    28.120929      3478.7107    
      2300   4.6            324.55517      132006.48     -807631.76     -296.99336      0.35981371     0.056443839    28.107995      3478.344     
      2310   4.62           319.90525      130349.96     -807633.15     -294.97936      0.35978077     0.056066209    28.163387      3477.9477    
      2320   4.64           315.81242      135254.79     -807628.32     -299.13389      0.35974769     0.056861082    28.103747      3477.5835    
      2330   4.66           323.89965      135480.24     -807626.66     -301.99224      0.35971447     0.057409714    28.09934       3477.2217    
      2340   4.68           316.90655      139114.21     -807622.26     -305.22138      0.35968111     0.058028968    28.082674      3476.8688    
      2350   4.7            320.84157      135435.87     -807627.06     -300.84626      0.3596476      0.057202493    28.101535      3476.5059    
      2360   4.72           325.41704      136263.27     -807627.99     -300.29006      0.35961396     0.057102082    28.143785      3476.1209    
      2370   4.74           324.87375      132158.47     -807630.07     -298.0465       0.35958017     0.05668078     28.161127      3475.7272    
      2380   4.76           320.8606       132995.16     -807630.1      -297.17904      0.35954624     0.056521145    28.122122      3475.3541    
      2390   4.78           317.79414      130059.05     -807633.19     -293.49612      0.35951216     0.055825973    28.119913      3474.9822    
      2400   4.8            327.56203      133333.69     -807631.2      -296.5543       0.35947795     0.056413039    28.145838      3474.5972    
      2410   4.82           309.62979      134550.59     -807625.63     -299.41525      0.35944359     0.056962716    28.114844      3474.2282    
      2420   4.84           327.73642      137158.22     -807625.01     -302.26298      0.35940909     0.057510006    28.107493      3473.8631    
      2430   4.86           332.77698      137136.49     -807625.76     -301.92616      0.35937446     0.057451459    28.076463      3473.5139    
      2440   4.88           329.43847      136322.45     -807625.09     -301.85522      0.35933967     0.05744352     28.158286      3473.1232    
      2450   4.9            335.00259      136302.85     -807626.74     -300.66017      0.35930475     0.05722166     28.192884      3472.7155    
      2460   4.92           334.90857      132210.06     -807630.76     -296.42887      0.35926969     0.056421866    28.247101      3472.2812    
      2470   4.94           342.99076      132534.62     -807632.79     -295.20268      0.35923448     0.056193981    28.185386      3471.8781    
      2480   4.96           322.24582      130578.62     -807631.52     -293.45337      0.35919913     0.055866484    28.088734      3471.5235    
      2490   4.98           332.91901      133692.7      -807629.12     -297.03203      0.35916364     0.056553362    28.11379       3471.1564    
      2500   5              339.65289      132715.65     -807629.01     -297.99699      0.35912801     0.056742715    28.104122      3470.7942    
[...]
     98740   197.48         334.60553      134887.35     -807626.98     -9697.4199      0.36236891     0.057187723    29.052297      43.267864    
     98750   197.5          337.09764      133521.23     -807629.59     -9618.4344      0.36238762     0.056719002    29.034382      42.924481    
     98760   197.52         329.31986      134944.5      -807627.25     -9649.0984      0.36240618     0.05689691     29.004692      42.581103    
     98770   197.54         333.16551      132285.04     -807628        -9637.4703      0.36242459     0.056825457    29.041461      42.237718    
     98780   197.56         334.86131      134032.74     -807627.81     -9641.3695      0.36244287     0.056845581    29.056707      41.894332    
     98790   197.58         335.64775      133912.55     -807628.32     -9625.8834      0.362461       0.056751436    29.038704      41.550947    
     98800   197.6          335.38122      136023.5      -807625.32     -9714.192       0.36247899     0.057269236    29.088974      41.207556    
     98810   197.62         331.67973      135035.5      -807625.83     -9678.4761      0.36249683     0.057055866    29.069538      40.864167    
     98820   197.64         337.27621      136541.38     -807626.39     -9681.3957      0.36251453     0.057070291    29.026218      40.520784    
     98830   197.66         343.48958      134115.77     -807628.81     -9632.3275      0.36253209     0.056778291    29.028543      40.1774      
     98840   197.68         331.66497      135418.56     -807625.03     -9696.581       0.36254951     0.057154292    29.030008      39.834016    
     98850   197.7          325.91174      133626        -807626.41     -9628.5981      0.36256678     0.056750878    29.068039      39.490627    
     98860   197.72         338.86349      134295.1      -807628.26     -9625.7762      0.36258391     0.056731566    29.038781      39.147241    
     98870   197.74         347.12411      133583.56     -807628.43     -9657.4321      0.3626009      0.05691547     29.060529      38.803853    
     98880   197.76         334.4054       134988.85     -807625.28     -9702.5101      0.36261774     0.057178478    29.09916       38.460459    
     98890   197.78         342.13367      135270.02     -807627.73     -9660.7676      0.36263445     0.05692986     29.121544      38.117061    
     98900   197.8          342.77098      134492.91     -807628.11     -9653.2054      0.362651       0.0568827      29.157992      37.77366     
     98910   197.82         339.6164       135038.04     -807626.6      -9690.0377      0.36266742     0.057097154    29.113893      37.430264    
     98920   197.84         325.45216      134291.97     -807625.56     -9667.5718      0.36268369     0.056962222    29.032998      37.086878    
     98930   197.86         340.11404      134529.73     -807627.8      -9662.1853      0.36269982     0.056927952    29.0032        36.743496    
     98940   197.88         332.93253      133449.5      -807628.06     -9627.4305      0.36271581     0.056720683    29.037091      36.40011     
     98950   197.9          332.37191      135731.3      -807625.46     -9712.4709      0.36273165     0.057219205    29.008253      36.056726    
     98960   197.92         337.46176      134490.5      -807627.12     -9689.5233      0.36274735     0.057081543    29.052197      35.713338    
     98970   197.94         341.89436      135672.73     -807628.39     -9671.152       0.36276291     0.056970873    29.07073       35.369946    
     98980   197.96         330.17774      134048.37     -807627.54     -9654.7576      0.36277832     0.056871881    29.031968      35.02656     
     98990   197.98         332.50532      135844.35     -807626.2      -9712.6797      0.36279359     0.057210666    29.039741      34.683172    
     99000   198            334.08103      132526.94     -807628.6      -9651.7669      0.36280872     0.0568495      29.020547      34.339786    
     99010   198.02         335.23414      135220.54     -807628.15     -302.28455      0.3628237      0.056972834    29.049356      33.996396    
     99020   198.04         326.1084       132541.87     -807628.46     -301.04951      0.36283855     0.056737738    29.103324      33.653001    
     99030   198.06         323.70543      136194.64     -807624.6      -304.62855      0.36285324     0.057409943    29.144519      33.3096      
     99040   198.08         339.83676      132696.63     -807630.4      -301.34341      0.3628678      0.05678855     29.151562      32.966198    
     99050   198.1          337.56579      136016.57     -807628.42     -303.04998      0.36288221     0.057107888    29.146038      32.622798    
     99060   198.12         325.61343      132467.95     -807628.25     -301.81741      0.36289648     0.056873382    29.149242      32.279397    
     99070   198.14         332.62484      135516.11     -807627        -304.06869      0.36291061     0.057295373    29.12059       31.935999    
     99080   198.16         327.08697      133267.94     -807629.51     -300.9667       0.36292459     0.056708684    29.140035      31.592599    
     99090   198.18         336.895        135058.06     -807629.4      -302.46216      0.36293843     0.056988288    29.077838      31.249206    
     99100   198.2          321.47172      133606.6      -807627.05     -302.82307      0.36295213     0.057054135    29.065785      30.905814    
     99110   198.22         312.6086       136206.63     -807624.77     -303.86364      0.36296568     0.057248048    29.1159        30.562416    
     99120   198.24         321.28721      133773.25     -807628.3      -301.54152      0.36297909     0.056808462    29.174966      30.219013    
     99130   198.26         325.09951      134810.46     -807627.5      -302.85676      0.36299236     0.05705416     29.215178      29.875605    
     99140   198.28         330.94192      134680.84     -807628.03     -303.16117      0.36300548     0.057109441    29.199449      29.532199    
     99150   198.3          331.16635      134111.05     -807628.1      -303.13134      0.36301846     0.057101781    29.159369      29.188798    
     99160   198.32         318.49792      135125.43     -807627.43     -301.97701      0.3630313      0.056882323    29.155356      28.845397    
     99170   198.34         336.40133      133456.01     -807630.13     -301.86777      0.36304399     0.056859758    29.129968      28.501998    
     99180   198.36         326.08695      135125.44     -807625.84     -304.65055      0.36305655     0.057381939    29.115545      28.158601    
     99190   198.38         331.26532      133744.84     -807629.13     -302.1607       0.36306895     0.056911023    29.118482      27.815204    
     99200   198.4          322.41854      135823.97     -807627.44     -302.49018      0.36308122     0.056971154    29.09657       27.471808    
     99210   198.42         325.95138      133923.87     -807628.99     -301.51774      0.36309334     0.056786109    29.109395      27.128412    
     99220   198.44         336.44756      135778.28     -807627.34     -304.50627      0.36310532     0.057347058    29.145545      26.785012    
     99230   198.46         331.88308      132793.37     -807629.81     -301.40232      0.36311715     0.056760648    29.139062      26.441613    
     99240   198.48         327.80498      135666.85     -807628.35     -302.16945      0.36312885     0.056903284    29.085039      26.098218    
     99250   198.5          330.57499      132941.97     -807629.32     -301.68155      0.3631404      0.056809598    29.091119      25.754823    
     99260   198.52         314.53442      137698.48     -807623.24     -305.40202      0.3631518      0.057508392    29.10459       25.411427    
     99270   198.54         335.87861      133044.54     -807629.5      -302.15887      0.36316306     0.056895928    29.074898      25.068034    
     99280   198.56         329.02771      136488.19     -807627.29     -303.20254      0.36317418     0.057090702    29.087928      24.724639    
     99290   198.58         317.5627       132783.86     -807627.08     -301.95543      0.36318516     0.056854163    29.091669      24.381243    
     99300   198.6          333.43215      136614.08     -807626.34     -304.65415      0.36319599     0.057360584    29.08394       24.037849    
     99310   198.62         326.57699      133309.61     -807628.61     -301.52009      0.36320668     0.05676883     29.13196       23.69445     
     99320   198.64         332.34888      136921.71     -807628.59     -302.08984      0.36321723     0.056874449    29.083957      23.351055    
     99330   198.66         325.86355      133118.08     -807628.42     -301.46249      0.36322763     0.056754712    29.1141        23.007658    
     99340   198.68         335.00293      136485.17     -807625.64     -305.29451      0.36323789     0.057474523    29.135872      22.664259    
     99350   198.7          330.37857      133175.1      -807627.73     -302.59667      0.36324801     0.056965042    29.11966       22.320861    
     99360   198.72         331.37656      135504.88     -807627.24     -303.01004      0.36325798     0.057041295    29.123587      21.977463    
     99370   198.74         345.80021      133447.25     -807629.85     -302.40137      0.36326781     0.056925172    29.157968      21.634062    
     99380   198.76         330.18515      136846.75     -807625.35     -304.58634      0.3632775      0.057334951    29.184314      21.29066     
     99390   198.78         327.52972      133981.13     -807627.54     -302.0392       0.36328704     0.056853987    29.181084      20.947258    
     99400   198.8          332.3032       135544.46     -807628.03     -302.01098      0.36329644     0.056847203    29.172339      20.603856    
     99410   198.82         332.40471      134311.87     -807627.9      -302.17294      0.3633057      0.05687624     29.189294      20.260454    
     99420   198.84         333.70092      135868.26     -807625.64     -304.42463      0.36331481     0.057298624    29.18808       19.917052    
     99430   198.86         326.55704      135430.84     -807626.24     -302.77487      0.36332378     0.056986701    29.181768      19.57365     
     99440   198.88         340.53881      135440.9      -807628.54     -302.25305      0.36333261     0.056887105    29.120945      19.230253    
     99450   198.9          339.64327      133304.9      -807627.7      -302.95275      0.36334129     0.057017433    29.125743      18.886855    
     99460   198.92         335.64903      134512.15     -807626.18     -303.85144      0.36334983     0.057185227    29.145723      18.543456    
     99470   198.94         341.32514      134652.95     -807628.05     -302.65677      0.36335823     0.056959073    29.120424      18.200059    
     99480   198.96         326.4266       134974.32     -807626.12     -302.38481      0.36336648     0.056906597    29.153794      17.856659    
     99490   198.98         348.73373      134450.68     -807628.52     -303.01206      0.3633746      0.057023369    29.13627       17.513261    
     99500   199            333.40881      134390.79     -807625.71     -303.62967      0.36338256     0.057138343    29.084596      17.169866    
     99510   199.02         330.81212      135989.7      -807625.35     -9713.8559      0.36339039     0.057123625    29.025536      16.826474    
     99520   199.04         336.71967      134150.98     -807627.3      -9675.5192      0.36339807     0.056896979    29.014507      16.483083    
     99530   199.06         339.75216      135675.06     -807625.35     -9748.5111      0.3634056      0.057325019    29.012314      16.139691    
     99540   199.08         337.69203      134834.52     -807625.92     -9722.369       0.363413       0.05717013     29.006619      15.7963      
     99550   199.1          343.0185       135917.03     -807626.64     -9718.4389      0.36342025     0.05714588     29.025947      15.452907    
     99560   199.12         335.93525      133740.73     -807628.3      -9635.5498      0.36342736     0.056657372    29.008553      15.109515    
     99570   199.14         340.26153      135449.96     -807626.45     -9709.8063      0.36343432     0.057092908    29.013141      14.766123    
     99580   199.16         340.60048      133116.32     -807628.01     -9666.7211      0.36344114     0.056838504    29.017709      14.422729    
     99590   199.18         333.90445      135700.62     -807626.65     -9677.1165      0.36344782     0.056898582    29.049094      14.079335    
     99600   199.2          327.03769      133021.39     -807626.79     -9648.2263      0.36345435     0.056727696    29.032301      13.73594     
     99610   199.22         332.35096      136872.32     -807625.05     -9727.2945      0.36346074     0.05719158     29.013634      13.392547    
     99620   199.24         336.36941      134922.84     -807626.34     -9711.6662      0.36346699     0.057098712    28.995051      13.049154    
     99630   199.26         335.92212      137160.94     -807625.28     -9745.2711      0.3634731      0.057295326    29.015445      12.70576     
     99640   199.28         336.74977      133845.07     -807628.41     -9658.0871      0.36347906     0.056781815    29.050102      12.362364    
     99650   199.3          341.55581      136228.21     -807627        -9728.0105      0.36348487     0.057191993    29.045652      12.018968    
     99660   199.32         319.56323      133759.78     -807626.5      -9657.3615      0.36349055     0.056775754    29.064614      11.675571    
     99670   199.34         343.33569      134104.86     -807628.57     -9703.2957      0.36349608     0.057044933    29.073649      11.332174    
     99680   199.36         327.3061       133314.8      -807628.37     -9649.2663      0.36350147     0.056726458    29.115424      10.988775    
     99690   199.38         330.41638      135158.39     -807627.28     -9705.2472      0.36350671     0.057054737    29.069813      10.645377    
     99700   199.4          321.75349      134934.94     -807625.22     -9742.197       0.36351181     0.057271152    29.069305      10.30198     
     99710   199.42         332.0105       135368.61     -807626.64     -9751.6805      0.36351677     0.057326121    29.099843      9.9585814    
     99720   199.44         327.97899      135393.88     -807626.96     -9731.1621      0.36352158     0.057204744    29.073112      9.6151836    
     99730   199.46         319.38363      135466.11     -807626.28     -9721.3214      0.36352625     0.057146161    29.049931      9.2717865    
     99740   199.48         327.9682       134798.63     -807627.94     -9714.0911      0.36353078     0.057102948    29.09211       8.9283879    
     99750   199.5          329.18326      134225.48     -807629        -9689.4143      0.36353516     0.056957201    29.108126      8.5849887    
     99760   199.52         322.73503      134651.69     -807628.67     -9676.2829      0.3635394      0.056879348    29.06675       8.2415907    
     99770   199.54         319.84916      133220.56     -807629.1      -9655.6327      0.3635435      0.056757321    29.092925      7.8981918    
     99780   199.56         322.19843      136255.23     -807626.71     -9745.8531      0.36354745     0.057287028    29.069553      7.5547935    
     99790   199.58         326.13213      133747.62     -807627.71     -9737.818       0.36355126     0.057239197    29.027528      7.2113961    
     99800   199.6          314.62972      137176.62     -807625.19     -9764.2983      0.36355493     0.05739427     29.005735      6.867999     
     99810   199.62         325.16625      133402.51     -807629.79     -9670.109       0.36355845     0.056840077    29.050396      6.5246007    
     99820   199.64         326.80496      136767.59     -807627.24     -9756.4157      0.36356183     0.057346848    29.056315      6.181202     
     99830   199.66         323.14602      132369.52     -807629.66     -9667.9372      0.36356507     0.056826278    29.002974      5.8378043    
     99840   199.68         321.73014      136306.16     -807628.61     -9689.1123      0.36356816     0.056950256    29.015698      5.494406     
     99850   199.7          315.55821      132251.04     -807630.24     -9613.9148      0.36357111     0.056507805    29.01106       5.1510076    
     99860   199.72         317.5239       136839.73     -807625.61     -9765.827       0.36357392     0.057400258    29.028775      4.8076086    
     99870   199.74         314.54433      132577.57     -807627.08     -9709.724       0.36357658     0.057070085    28.995984      4.4642099    
     99880   199.76         323.03709      137463.38     -807626.22     -9765.7583      0.3635791      0.057399036    28.980526      4.1208111    
     99890   199.78         317.71706      133505.74     -807628.34     -9676.1589      0.36358148     0.056872036    28.967316      3.7774122    
     99900   199.8          336.66485      137769.21     -807627.3      -9786.0285      0.36358371     0.057517446    29.0118        3.4340124    
     99910   199.82         328.47635      133005.07     -807628.91     -9697.6349      0.3635858      0.056997585    29.059523      3.0906118    
     99920   199.84         324.03558      135339.99     -807628.35     -9685.4289      0.36358775     0.05692554     29.044533      2.7472112    
     99930   199.86         322.28588      132344.8      -807631.14     -9586.2403      0.36358955     0.056342285    29.064773      2.4038103    
     99940   199.88         327.38773      135285.8      -807627.34     -9722.474       0.36359121     0.057142726    29.096307      2.060409     
     99950   199.9          329.06146      133891.38     -807627.17     -9730.0805      0.36359273     0.057187194    29.070415      1.7170078    
     99960   199.92         324.75742      135250.24     -807626.55     -9720.9533      0.3635941      0.057133334    29.053291      1.3736065    
     99970   199.94         333.22348      135623.82     -807627.93     -9703.9891      0.36359533     0.057033437    29.043349      1.0302052    
     99980   199.96         338.23231      135895.96     -807625.75     -9788.2579      0.36359641     0.05752854     29.033796      0.68680365   
     99990   199.98         327.42409      136923        -807624.46     -9770.6405      0.36359736     0.057424848    29.037382      0.34340192   
    100000   200            335.03101      133604.67     -807629.6      -9630.9944      0.36359816     0.056603984    29.07215       0            
Loop time of 3434.02 on 32 procs for 100000 steps with 1080 atoms

Performance: 5.032 ns/day, 4.769 hours/ns, 29.120 timesteps/s, 31.450 katom-step/s
61.7% CPU use with 32 MPI tasks x 1 OpenMP threads

MPI task timing breakdown:
Section |  min time  |  avg time  |  max time  |%varavg| %total
---------------------------------------------------------------
Pair    | 2543.1     | 2807.3     | 2981.9     | 194.2 | 81.75
Neigh   | 0.0016589  | 0.0017825  | 0.0019783  |   0.2 |  0.00
Comm    | 379.14     | 553.61     | 817.89     | 437.3 | 16.12
Output  | 2.3394     | 2.3485     | 2.3544     |   0.2 |  0.07
Modify  | 64.275     | 64.622     | 64.967     |   2.0 |  1.88
Other   |            | 6.123      |            |       |  0.18

Nlocal:          33.75 ave          42 max          24 min
Histogram: 2 1 1 4 2 10 4 3 3 2
Nghost:        1032.66 ave        1053 max        1010 min
Histogram: 2 1 0 9 4 5 1 4 2 4
Neighs:              0 ave           0 max           0 min
Histogram: 32 0 0 0 0 0 0 0 0 0
FullNghs:      5351.81 ave        6718 max        3788 min
Histogram: 2 1 1 4 7 9 0 3 3 2

Total # of neighbors = 171258
Ave neighs/atom = 158.57222
Neighbor list builds = 4
Dangerous builds = 0

Total wall time: 1:00:45
