
units		metal
atom_style	atomic

read_data ${STRUCTURE}.data
read_data BaTiO3-sc333.data
Reading data file ...
  orthogonal box = (0 0 0) to (11.898253 11.898253 12.912076)
  2 by 4 by 4 MPI processor grid
  reading atoms ...
  135 atoms
  read_data CPU = 0.165 seconds
replicate $L $L $L
replicate 2 $L $L
replicate 2 2 $L
replicate 2 2 2
Replication is creating a 2x2x2 = 8 times larger system...
  orthogonal box = (0 0 0) to (23.796507 23.796507 25.824152)
  2 by 4 by 4 MPI processor grid
  1080 atoms
  replicate CPU = 0.004 seconds

pair_style allegro
pair_coeff	* * ${MODEL}.pth Ba Ti O
pair_coeff	* * BaTiO3-E0.pth Ba Ti O
mass 1 137.3
mass 2 47.9
mass 3 15.9994

timestep 0.002
compute polarization all allegro polarization 3
compute allegro will evaluate the quantity polarization of length 3 (src/compute_allegro.cpp:53)
compute polarizability all allegro polarizability 9
compute allegro will evaluate the quantity polarizability of length 9 (src/compute_allegro.cpp:53)

thermo_style custom pe fmax fnorm spcpu cpuremain

variable efield equal 1e-2*36.36
fix born all addbornforce 0.0 0.0 ${efield}
fix born all addbornforce 0.0 0.0 0.3636

thermo 10
min_style fire
#minimize 0.0 1e-6 100 100
velocity all create ${TEMP} ${SEED} dist gaussian rot yes mom yes
velocity all create 280 ${SEED} dist gaussian rot yes mom yes
velocity all create 280 2206 dist gaussian rot yes mom yes
fix nvt all nvt temp ${TEMP} ${TEMP} $(100*dt)
fix nvt all nvt temp 280 ${TEMP} $(100*dt)
fix nvt all nvt temp 280 280 $(100*dt)
fix nvt all nvt temp 280 280 0.2000000000000000111
run 5000
Neighbor list info ...
  update: every = 1 steps, delay = 0 steps, check = yes
  max neighbors/atom: 2000, page size: 100000
  master list distance cutoff = 8
  ghost atom cutoff = 8
  binsize = 8, bins = 3 3 4
  1 neighbor lists, perpetual/occasional/extra = 1 0 0
  (1) pair allegro/kk, perpetual
      attributes: full, newton on, kokkos_device
      pair build: full/bin/kk/device
      stencil: full/bin/3d
      bin: kk/device
Per MPI rank memory allocation (min/avg/max) = 3.516 | 3.516 | 3.516 Mbytes
    PotEng          Fmax          Fnorm          S/CPU         CPULeft    
-807708.29      1.5954763      37.042744      0              0            
-807649.52      3.1915525      43.662197      2.1608601      2309.2666    
-807637.77      2.6405131      34.131339      25.848651      1248.6494    
-807608.8       2.9969682      35.752605      25.849561      894.85014    
-807604.81      4.162649       49.347803      25.808642      717.83314    
-807573.76      3.5732963      38.702681      25.785807      611.50194    
-807605.31      2.8503273      37.603159      25.863667      540.38907    
-807649.98      3.7005233      32.334619      25.868372      489.47874    
-807685.94      2.7137616      32.904319      25.825703      451.23864    
-807671.26      3.100444       33.180217      25.839447      421.39905    
-807654.57      3.0351038      33.87586       25.871822      397.42625    
-807662.57      2.7030719      26.670345      25.873187      377.74093    
-807628.5       2.6651339      30.291901      25.861574      361.27918    
-807588.56      3.6687217      40.063487      25.809047      347.31998    
-807571.29      2.9945147      37.195874      25.844228      335.28129    
-807636.31      3.7065512      32.486661      25.860103      324.78849    
-807656.46      3.2326281      30.303227      25.827394      315.57377    
-807669.19      2.6491533      33.234373      25.828652      307.39705    
-807648.87      4.3503484      44.308193      25.869845      300.06932    
-807682.66      2.6396883      35.510452      25.840342      293.48341    
-807643.53      3.2514024      38.507068      25.845772      287.51545    
-807618.98      2.5606719      38.469499      25.856101      282.07549    
-807564.88      3.7563707      44.591383      25.858179      277.09423    
-807609.46      3.8357507      48.581277      25.853412      272.51398    
-807617.78      3.7057109      37.682989      25.81659       268.29413    
-807647.95      3.1156797      34.326951      25.853981      264.37024    
-807646.24      4.3895231      44.24901       25.844223      260.72108    
-807686.14      2.7863112      36.022377      25.841564      257.31427    
-807665.23      3.2880816      33.582223      25.782584      254.13809    
-807641.38      3.2198251      30.268366      25.852324      251.13722    
-807609.68      3.268052       31.779997      25.874113      248.30552    
-807607.36      3.9845882      41.093777      25.810019      245.64608    
-807602.57      3.0728807      33.923151      25.759767      243.1397     
-807615.01      2.5009758      30.734752      25.848366      240.74286    
-807647.75      2.6339403      28.874872      25.859169      238.46204    
-807677.72      2.592324       29.97017       25.842786      236.29272    
-807681.03      2.1941415      30.343402      25.808605      234.22902    
-807648.42      3.4905271      36.127318      25.864756      232.2454     
-807652.12      2.4513477      28.338028      25.868975      230.34506    
-807622.83      3.1080447      32.326622      25.823579      228.53039    
-807605.02      3.6709651      41.964132      25.829579      226.78606    
-807576.47      3.6986588      38.911715      25.870036      225.10115    
-807630.85      3.0847972      33.507447      25.862209      223.47934    
-807654.16      3.5448675      33.892705      25.848268      221.9172     
-807677.41      3.0268954      33.705619      25.842581      220.40937    
-807646.56      4.9635181      45.557651      25.860906      218.94857    
-807671.61      3.1430829      33.173726      25.817805      217.54085    
-807645.6       3.9352343      35.092757      25.771233      216.1833     
-807627.68      3.4573844      36.643694      25.813346      214.86018    
-807568.16      3.9583567      42.337484      25.851418      213.57       
-807608.27      3.6075637      41.809449      25.839111      212.31762    
-807629.17      3.3714293      33.875011      25.806958      211.10341    
-807660.2       2.5032775      31.469928      25.836207      209.91723    
-807647.7       3.7463585      40.245403      25.869587      208.75699    
-807676.87      2.5399722      33.432652      25.855195      207.62717    
-807668.82      2.7676068      30.964734      25.802368      206.53079    
-807645.32      2.6436864      28.971537      25.804786      205.45943    
-807603.84      3.1185716      32.862468      25.853299      204.40642    
-807602.75      3.5548429      36.150668      25.855666      203.37611    
-807612.53      3.2645395      36.325747      25.790024      202.37497    
-807627.96      2.9042557      28.394454      25.844489      201.38829    
-807644.39      3.2754674      30.146779      25.876465      200.41783    
-807669.04      3.3263409      31.282702      25.858618      199.46809    
-807679.88      2.2921736      32.878934      25.781906      198.54421    
-807648.4       3.8238713      36.225735      25.813258      197.63387    
-807637.84      3.0251138      31.43195       25.834808      196.73745    
-807614.36      4.1626397      34.739861      25.849822      195.855      
-807609.54      4.3403121      43.835511      25.783234      194.99379    
-807584.79      5.0023446      40.868954      25.84142       194.14096    
-807625.48      3.654045       34.773826      25.879832      193.29805    
-807649.16      5.4849149      37.996602      25.867858      192.46927    
-807677.86      3.9700822      35.553334      25.839391      191.65552    
-807649.99      5.6385951      42.389489      25.844741      190.85316    
-807658         3.2495542      33.791163      25.867246      190.0602     
-807641.31      3.5974827      33.949324      25.84663       189.28       
-807627.32      3.3557652      37.382886      25.835657      188.51123    
-807578.32      3.1329151      38.420374      25.851316      187.75119    
-807600.63      3.2409486      37.748416      25.853664      187.00065    
-807634.2       3.4870469      29.939361      25.839093      186.26062    
-807664.38      2.6148828      30.281124      25.858454      185.52798    
-807655.54      3.8455402      35.087102      25.844904      184.80505    
-807664.16      3.1645636      33.255433      25.782148      184.09529    
-807667.64      2.8008779      30.839676      25.82241       183.3903     
-807644.49      3.0800606      30.700024      25.866512      182.68965    
-807604.09      2.8255469      34.585297      25.864181      181.99665    
-807589.58      3.8095373      37.738369      25.880352      181.30967    
-807614.34      4.2664267      37.755732      25.815785      180.63434    
-807633.63      3.529005       31.647333      25.851885      179.96307    
-807646.63      3.0821471      32.767094      25.870966      179.29692    
-807659.18      3.6440043      35.167434      25.854602      178.63818    
-807676.58      2.5045048      34.783946      25.78323       177.99037    
-807652.93      3.6143922      34.762089      25.82085       177.34573    
-807632.66      2.7206068      32.684264      25.846896      176.70495    
-807605.38      3.5210486      35.237518      25.893812      176.06657    
-807609.96      3.9461761      42.995065      25.853846      175.43613    
-807599.73      3.27429        36.111636      25.820463      174.81295    
-807627.36      2.7080872      33.07589       25.86156       174.19209    
-807645.64      4.0907097      35.935671      25.856021      173.57641    
-807676.27      2.947914       34.318821      25.834463      172.96672    
-807658.23      3.9626453      36.853406      25.785584      172.36451    
-807650.69      3.0534731      32.602215      25.853878      171.76248    
-807634.97      4.0292658      32.23393       25.874407      171.1635     
-807625.21      3.5637425      36.824856      25.878803      170.56844    
-807593.15      3.7118985      36.715064      25.854266      169.97883    
-807600.66      2.8638826      36.280501      25.865246      169.39251    
-807632.66      3.3746837      31.390829      25.883285      168.80897    
-807665.27      2.864747       30.915105      25.821353      168.2326     
-807662.29      2.7982591      33.119614      25.848711      167.65826    
-807657.18      3.4401939      33.8399        25.855498      167.08702    
-807660.61      3.0517994      29.755743      25.855956      166.51914    
-807644.09      3.0831304      29.11653       25.85745       165.95448    
-807611.08      2.8138992      33.158686      25.869419      165.39239    
-807588.09      2.9975887      35.674212      25.88118       164.83283    
-807615.73      3.0576626      34.35224       25.850284      164.27792    
-807641.03      2.6994273      30.315667      25.814598      163.72776    
-807655.78      3.1034892      31.376116      25.85505       163.17841    
-807652.16      3.5188567      36.988148      25.872065      162.63102    
-807671.36      2.5991278      33.469534      25.857875      162.08707    
-807653.08      3.7281859      34.073649      25.849645      161.54619    
-807634.67      2.792488       32.464296      25.855891      161.00759    
-807595.83      3.8666067      36.982278      25.892262      160.46981    
-807608.62      3.7129681      39.553987      25.879725      159.93512    
-807611.41      3.2372661      33.925844      25.827641      159.40527    
-807636.17      2.885856       30.990476      25.872766      158.87567    
-807643.66      3.8724719      35.153414      25.894716      158.34739    
-807672.38      2.76184        33.163136      25.870036      157.82249    
-807661.11      4.0987406      34.139071      25.741544      157.30551    
-807648.34      2.8093589      32.155066      25.823882      156.78691    
-807625.43      3.7224916      32.802639      25.869279      156.26839    
-807619.35      3.34962        36.547272      25.823178      155.75391    
-807601.13      4.2946323      36.407829      25.781312      155.24317    
-807608.3       3.1834739      34.657979      25.845385      154.73159    
-807632.15      3.2573214      31.194482      25.902235      154.21954    
-807662.06      2.5615094      31.388669      25.885054      153.7101     
-807665.82      3.2081044      32.449703      25.8064        153.2057     
-807653.45      3.3694138      34.058994      25.853668      152.70112    
-807648.51      3.1026119      31.332073      25.862961      152.1979     
-807637.62      3.1502454      31.236412      25.891059      151.69527    
-807614.23      3.3899965      35.33081       25.881081      151.19472    
-807590.42      3.0478403      36.436419      25.867213      150.69635    
-807616.47      3.1477153      33.925744      25.842768      150.20051    
-807642.11      3.1618424      31.6314        25.86206       149.70549    
-807660.61      2.5835567      31.517734      25.841606      149.21277    
-807651.93      4.3654929      36.511414      25.878766      148.72013    
-807661.09      2.4370416      32.773302      25.815897      148.2313     
-807650.16      3.2749548      33.147658      25.80307       147.74433    
-807634.17      3.0796612      32.405896      25.821832      147.25805    
-807594.61      3.5161512      36.957671      25.84929       146.77213    
-807604.02      3.4951252      38.757515      25.892553      146.286      
-807619.33      3.3777621      34.297275      25.848081      145.80279    
-807643.34      3.1354669      31.98231       25.831657      145.32143    
-807645.45      3.7981892      35.402394      25.878191      144.83971    
-807665.61      2.8274064      33.089328      25.769397      144.36298    
-807660.93      3.5955907      33.518626      25.765446      143.88755    
-807648.8       3.4132002      31.561226      25.758618      143.41348    
-807617.6       4.0311812      33.362334      25.839457      142.93781    
-807608.93      3.4223835      35.733598      25.856437      142.46272    
-807606.02      3.3597786      36.012828      25.795804      141.99075    
-807620.61      2.9062398      32.642976      25.842623      141.51831    
-807635.12      3.146915       31.519514      25.848529      141.04677    
-807659.47      2.8602116      31.446535      25.876596      140.57539    
-807667.33      2.6803602      32.63248       25.8072        140.10726    
-807655.88      3.6886216      32.755133      25.766563      139.64139    
-807640.35      4.006773       32.271706      25.869835      139.17328    
-807627.34      3.0498362      32.572124      25.836603      138.70718    
-807611.56      3.6645779      37.411064      25.821036      138.24251    
-807596.71      3.3790358      37.079941      25.859809      137.7776     
-807617.94      3.2480588      33.174396      25.86284       137.31355    
-807644.02      2.5872987      31.233184      25.881853      136.84985    
-807664.06      2.8487447      32.171494      25.864087      136.38758    
-807654.29      3.7157679      35.345336      25.774189      135.92883    
-807654.73      2.8582677      32.161926      25.838654      135.46904    
-807645.17      3.5414156      31.592942      25.832301      135.01027    
-807632.43      3.7296789      32.481485      25.836053      134.55223    
-807597.55      4.2217994      35.239227      25.85866       134.09438    
-807603.72      3.127978       36.441006      25.854112      133.63746    
-807624.29      3.9619761      32.501609      25.825517      133.18212    
-807650.72      2.8128398      31.244861      25.887787      132.72586    
-807649.65      5.0985287      34.487594      25.865209      132.27099    
-807659.33      2.8530575      32.943996      25.833475      131.81774    
-807658.53      3.5604535      32.185372      25.782663      131.36658    
-807646.6       2.6338449      30.990615      25.83595       130.9147     
-807615.43      3.3706875      33.429645      25.877816      130.46245    
-807604.42      3.1548204      35.532875      25.86355       130.01128    
-807609.32      3.2407288      35.428193      25.814556      129.56208    
-807628.99      2.8297397      32.6777        25.859864      129.11239    
-807639.79      3.4104273      32.18604       25.864489      128.66326    
-807653.94      3.4359267      33.150325      25.873921      128.21456    
-807664.72      2.5672591      32.678906      25.810498      127.7681     
-807654.99      3.3418831      32.534469      25.814472      127.32216    
-807635.87      3.563927       31.928976      25.847433      126.87604    
-807617.93      2.9006187      32.226512      25.8997        126.42927    
-807612.94      3.2371157      36.013969      25.873351      125.98377    
-807607.79      3.4937055      34.462339      25.811657      125.54035    
-807624.66      2.9143717      31.260001      25.833181      125.09699    
-807643.45      4.1634901      31.917429      25.869228      124.65337    
-807662.88      2.9684496      31.908352      25.830315      124.21124    
-807655.81      3.5683156      33.348486      25.78909       123.77061    
-807649.14      3.1173723      32.195674      25.821674      123.32977    
-807635.95      3.4608177      31.783022      25.834435      122.88918    
-807626.42      3.517526       34.352362      25.877975      122.44815    
-807604.24      3.2649632      35.362777      25.829807      122.00874    
-807605.83      3.2279247      36.048345      25.868312      121.56899    
-807628.28      3.1487229      31.895815      25.873318      121.12965    
-807653.74      2.8079471      30.973258      25.853622      120.69127    
-807653.48      3.5300225      33.61317       25.807493      120.25438    
-807652.78      3.3995842      33.581041      25.834128      119.8174     
-807649.34      2.6414734      31.809914      25.811592      119.38138    
-807641.43      2.745972       31.513069      25.784284      118.9464     
-807616.7       3.0085153      34.053458      25.846948      118.51056    
-807601.68      3.0219379      35.703822      25.873954      118.07464    
-807612.39      2.9987989      34.756259      25.865746      117.63935    
-807635.47      2.9085775      32.174753      25.855676      117.20472    
-807645.74      3.5031825      32.648989      25.834431      116.77097    
-807650.76      3.5795753      33.893192      25.843104      116.33749    
-807656.97      3.2772132      32.907802      25.803456      115.90522    
-807652.53      3.2745947      31.742793      25.8052        115.47334    
-807634.09      4.0465189      31.702428      25.83761       115.04123    
-807610.98      3.0639875      33.634621      25.851717      114.60926    
-807610         3.5486886      35.843336      25.830259      114.17811    
-807615.29      4.268537       34.532245      25.846868      113.74705    
-807631.33      3.2156375      32.016486      25.848814      113.31635    
-807641.32      4.0969742      33.249276      25.834197      112.88632    
-807659.21      2.5334407      32.363014      25.805428      112.45721    
-807657.07      4.1145525      33.121332      25.750692      112.02949    
-807646.96      2.5810383      31.990904      25.822158      111.60081    
-807626.55      3.8449892      32.882284      25.860075      111.1718     
-807619.58      3.4439507      33.436283      25.873828      110.74292    
-807610.16      3.8246795      35.203681      25.819211      110.31538    
-807612.88      4.1167083      34.570755      25.836006      109.8879     
-807630.1       3.2932232      31.742083      25.858818      109.46037    
-807654.09      3.5612675      31.578052      25.850401      109.03334    
-807658.07      2.867713       32.741361      25.832426      108.60696    
-807652.88      3.4774767      33.098633      25.829733      108.18098    
-807642.98      2.9232467      32.050995      25.831466      107.75529    
-807636.42      2.8586019      31.183105      25.86114       107.32943    
-807616.27      3.0827032      33.999323      25.861429      106.90389    
-807605.21      3.6281696      34.291862      25.859766      106.47872    
-807616.82      3.2282124      32.884543      25.875773      106.0536     
-807640.83      3.2729176      30.597703      25.848627      105.62925    
-807653.1       3.0963601      31.019464      25.854681      105.20511    
-807652.49      2.8627116      32.808448      25.865643      104.78111    
-807653.59      3.3435767      32.465878      25.815282      104.35822    
-807647.42      3.0090736      31.891122      25.827613      103.93543    
-807634.44      2.7324857      31.260186      25.849104      103.51259    
-807607.94      3.047059       34.075448      25.882026      103.08953    
-807610.06      2.9289992      34.902862      25.879758      102.6668     
-807623.61      3.9090676      33.018781      25.930197      102.24361    
-807641.2       3.3119131      31.061165      25.924986      101.82079    
-807645.76      4.010697       33.157829      25.933917      101.39813    
-807656.28      3.7558341      32.591355      25.909279      100.97614    
-807654.84      4.0883325      32.437331      25.911436      100.55441    
-807646.22      2.7598144      30.740528      25.91729       100.13287    
-807623.23      2.9947077      31.627929      25.930216      99.711425    
-807614.57      3.9288468      33.807493      25.952489      99.289943    
-807613.65      3.5451809      34.102496      25.904807      98.869426    
-807623.58      2.906626       33.268163      25.87806       98.449559    
-807633.43      3.4729044      32.790504      25.933856      98.029166    
-807651.5       2.9513901      32.273758      25.953769      97.608765    
-807658.5       2.5153918      32.847078      25.917937      97.189131    
-807651.83      3.1246954      33.109015      25.889617      96.770147    
-807637.56      3.7887561      32.761974      25.937595      96.350759    
-807625.96      3.3011404      33.121664      25.94339       95.931551    
-807615.71      3.2978068      35.161631      25.898585      95.513201    
-807609.25      3.1356493      35.495129      25.875268      95.095406    
-807619.19      2.8334732      33.601363      25.909936      94.677389    
-807639.61      3.856679       32.26804       25.957124      94.258996    
-807655.88      3.0521662      31.913997      25.915751      93.841388    
-807653.38      3.245714       33.283796      25.918538      93.423981    
-807648.17      3.1430357      32.459791      25.888204      93.007196    
-807641.1       3.3657004      31.385664      25.923174      92.590194    
-807629.49      2.8769176      32.383751      25.903898      92.173665    
-807609.36      3.539793       34.302235      25.925234      91.757094    
-807608.35      3.3860753      35.374418      25.882335      91.341281    
-807626.08      3.6940618      33.350921      25.930338      90.925092    
-807645.12      2.5610845      31.863544      25.917585      90.509281    
-807649.78      3.6229199      33.829689      25.870611      90.094256    
-807650.95      3.4764897      34.10597       25.909275      89.678972    
-807649.52      3.4411283      33.687946      25.90097       89.263997    
-807640.01      3.5476112      32.691968      25.894608      88.849305    
-807621.47      3.0220088      33.840296      25.961665      88.434033    
-807608.7       3.2622012      35.459161      25.944269      88.019176    
-807614.87      3.06407        34.844989      25.904658      87.604984    
-807630.37      3.1275382      32.577988      25.923526      87.190775    
-807641.69      2.4750776      31.563192      25.936792      86.776616    
-807648.28      3.4229247      32.981001      25.920091      86.362846    
-807655.69      2.8675903      32.129454      25.913931      85.94934     
-807648.92      3.6945728      32.667879      25.936158      85.535781    
-807633.93      2.9607987      31.964186      25.922606      85.122564    
-807619.28      3.978488       32.997347      25.931338      84.709443    
-807614.16      3.0378369      35.000574      25.896159      84.296891    
-807616.59      3.1862553      34.707883      25.89473       83.884535    
-807626.67      3.4565673      33.171259      25.971083      83.47155     
-807639.98      3.1290427      32.744233      25.960385      83.058868    
-807654.57      2.9116246      32.463662      25.906275      82.646936    
-807651.61      3.3783454      34.334232      25.907179      82.235171    
-807646.15      3.9982477      32.639606      25.88497       81.823809    
-807632.54      3.9112889      32.266659      25.899906      81.412462    
-807624.15      3.6874862      33.541628      25.916713      81.001115    
-807612.78      3.4504209      35.355085      25.834878      80.590761    
-807615.26      2.613005       33.399285      25.889978      80.180012    
-807628.59      2.614126       32.814356      25.933743      79.768996    
-807647.93      2.8432642      31.987775      25.937445      79.358111    
-807652.65      2.8488825      32.95002       25.89918       78.947764    
-807649.56      3.9685679      33.195432      25.929413      78.537287    
-807644.54      2.7204685      32.097065      25.930375      78.126963    
-807635.23      2.9418849      32.962461      25.910231      77.71699     
-807620.67      3.1138541      34.057432      25.880024      77.307457    
-807607.43      3.2810437      35.668964      25.918429      76.897717    
-807618.11      3.3624952      34.90753       25.959476      76.487755    
-807635.83      3.1444798      32.752973      25.971738      76.077841    
-807646.72      2.8789033      32.251031      25.95064       75.668278    
-807648.81      3.1968991      33.040228      25.953717      75.258842    
-807650.13      2.7855173      32.855846      25.957707      74.849525    
-807647.38      3.4600014      31.485667      25.915755      74.440731    
-807632.42      2.9719506      32.248265      25.927694      74.031977    
-807613.4       3.399985       33.685251      25.923244      73.623409    
-807614.56      2.7601706      33.85082       25.927835      73.214945    
-807623.88      2.6941422      32.629943      25.935096      72.806563    
-807636         2.5810236      31.851187      25.929732      72.398368    
-807643.28      2.9705683      32.2239        25.950297      71.990143    
-807653.68      2.9324951      32.587424      25.916787      71.582338    
-807651.37      3.4915538      33.512456      25.901321      71.174796    
-807642.05      2.876133       32.530525      25.91744       70.767256    
-807625.74      3.3246862      33.217853      25.933297      70.359722    
-807618.35      3.6918641      34.830584      25.917552      69.952449    
-807614.6       3.5536425      35.626129      25.912407      69.545348    
-807624.35      2.9308258      33.387904      25.934264      69.138205    
-807632.51      4.1104301      33.574701      25.934137      68.731194    
-807649.79      3.2303806      31.577909      25.914184      68.324468    
-807652.4       2.7995246      32.760628      25.89769       67.917995    
-807649.91      2.7852314      31.85184       25.924061      67.511444    
-807638.64      3.6243229      31.528599      25.937168      67.104919    
-807628.35      2.8608896      31.900089      25.943992      66.69847     
-807619.68      2.8603934      33.47985       25.934292      66.292218    
-807615.17      3.5104941      34.289474      25.971597      65.885817    
-807623.16      3.2491507      33.551169      25.939118      65.479778    
-807638.31      3.0528242      32.348709      25.930399      65.073924    
-807650.88      3.2402411      32.07205       25.912899      64.668314    
-807649.21      3.7034489      33.800059      25.924699      64.262737    
-807646.34      3.6650835      33.57679       25.930873      63.857233    
-807638.53      2.9167058      32.568021      25.970103      63.451575    
-807631.21      3.5833406      32.835567      25.913771      63.046423    
-807613.57      3.0935361      35.184759      25.903003      62.641458    
-807614.41      2.8729854      34.53325       25.962583      62.2362      
-807625.77      3.692545       34.393334      25.953336      61.83112     
-807642.27      3.4460015      33.249583      25.920119      61.426375    
-807646.03      4.0028945      33.274594      25.925183      61.021706    
-807647.88      4.8129523      33.773025      25.950217      60.616983    
-807648.53      3.3961204      32.65116       25.937633      60.212451    
-807639.48      3.2600042      32.452021      25.912791      59.808187    
-807623.09      2.5805227      32.593501      25.868769      59.404306    
-807613.72      2.6637316      34.349802      25.88561       59.000418    
-807618.07      3.1297071      34.553961      25.956441      58.59619     
-807629.51      3.3770285      33.40308       25.931855      58.19222     
-807637.93      3.2629269      34.062713      25.923535      57.788404    
-807644.96      3.6434588      34.326778      25.924863      57.384681    
-807651.31      3.331394       33.964411      25.933367      56.981009    
-807647.72      3.5252411      33.540937      25.9198        56.577518    
-807632.62      2.637268       33.32591       25.909354      56.174186    
-807621.17      4.0393652      34.084998      25.882878      55.771104    
-807617.82      3.171988       35.518715      25.861364      55.368239    
-807617.94      3.7047432      34.345784      25.910578      54.965183    
-807628.08      3.2329744      33.329858      25.948952      54.562006    
-807638.04      4.0288041      33.135374      25.973048      54.158793    
-807650.75      3.2698783      32.858571      25.915099      53.755998    
-807648.97      3.2411403      33.577983      25.932559      53.353201    
-807643.44      3.0427998      33.044849      25.930413      52.950509    
-807631.29      3.020986       33.064569      25.921081      52.54796     
-807626         2.9674093      33.643006      25.92698       52.145469    
-807616.5       3.2967551      35.278885      25.948769      51.742957    
-807619.31      4.0946109      33.979676      25.937285      51.340595    
-807629.67      3.3347105      33.059144      25.929075      50.938367    
-807645.46      3.5026093      31.72704       25.973217      50.536003    
-807649.47      2.8252318      32.319068      25.977133      50.133713    
-807647.83      3.5487642      32.687227      25.953538      49.731633    
-807643.37      2.6824478      32.237142      25.910981      49.32985     
-807634.51      2.7569032      32.766298      25.899086      48.928209    
-807624.68      2.8288669      33.006379      25.921827      48.526541    
-807615.07      3.6654938      35.544365      25.937205      48.124883    
-807622.29      3.5324145      34.361026      25.930643      47.723341    
-807635.75      3.5322315      32.829699      25.930775      47.321883    
-807644.12      2.9899143      32.754052      25.9191        46.92056     
-807646.65      3.3949308      33.646167      25.906485      46.519376    
-807648.34      3.2689987      33.230064      25.932907      46.118152    
-807644.81      3.9220824      32.137881      25.924929      45.717045    
-807632.16      3.2708988      33.206809      25.89074       45.316168    
-807618.59      3.1169004      34.106761      25.926464      44.915211    
-807619.07      3.0089279      34.460147      25.917383      44.514372    
-807625.29      3.3873645      33.745531      25.937092      44.113526    
-807636.41      3.0214361      32.826103      25.95758       43.712673    
-807643.18      3.2241372      33.020838      25.932686      43.312002    
-807649.12      3.5251236      33.574047      25.909073      42.911506    
-807650.58      3.3408708      33.093415      25.936942      42.51097     
-807640.19      3.6516125      33.394854      25.915643      42.110596    
-807626.9       4.2809596      33.558314      25.930134      41.710238    
-807620.86      3.8466259      34.61845       25.924243      41.309977    
-807619.39      3.5886755      34.873176      25.93322       40.909755    
-807624.76      3.8567389      34.316244      25.944522      40.509563    
-807634.43      2.8969488      32.719034      25.939483      40.109464    
-807647.1       3.5622748      32.908778      25.924534      39.709493    
-807650.07      3.6939446      33.423256      25.917767      39.309619    
-807645.88      2.9012752      33.337919      25.914         38.909828    
-807637.23      3.0853336      32.914261      25.936758      38.510024    
-807629.32      2.981862       33.568563      25.917523      38.110359    
-807619.3       3.281808       35.430727      25.972962      37.710569    
-807617.05      3.395071       35.418164      25.934568      37.310984    
-807625.19      3.0147301      34.384668      25.940865      36.911446    
-807637.37      3.398935       34.008471      25.909166      36.512083    
-807646.34      3.5075265      33.896259      25.909733      36.112784    
-807647.44      3.5971644      33.592152      25.917166      35.713526    
-807644.07      3.0804817      33.687151      25.924693      35.314309    
-807637.4       2.9864228      33.247533      25.886349      34.915279    
-807628.28      3.3383876      34.050579      25.888244      34.516305    
-807617.05      3.5059812      35.130104      25.895511      34.11737     
-807618.47      3.1623236      34.764784      25.923435      33.718411    
-807627.24      3.4293961      34.530209      25.895797      33.319599    
-807640.16      3.0095904      32.697178      25.894064      32.920852    
-807644.31      3.4113027      33.226839      25.934695      32.522047    
-807648.37      2.9815307      32.402764      25.931107      32.123315    
-807644.56      2.9960549      32.875457      25.916814      31.724687    
-807636.61      2.666707       32.585024      25.931788      31.326077    
-807623.13      3.6191125      33.932223      25.926965      30.927542    
-807619.06      3.657728       34.52475       25.945269      30.529018    
-807620.65      2.9703566      34.408659      25.928402      30.130601    
-807630.9       3.7254092      33.702466      25.920751      29.732263    
-807638.09      3.210699       33.165276      25.931966      29.333956    
-807646.16      3.203178       33.130785      25.922553      28.935732    
-807647.14      2.6570153      34.194674      25.926031      28.537558    
-807641.8       4.226359       34.187048      25.934841      28.13942     
-807633.05      3.0104552      32.893222      25.917682      27.741382    
-807623.45      3.3001474      34.102591      25.930679      27.34337     
-807621.95      3.7107705      33.929601      25.910727      26.945461    
-807622.02      2.9561522      33.287219      25.923736      26.547578    
-807630.97      3.6770033      32.984534      25.930877      26.149735    
-807640.44      3.4501644      32.621948      25.93977       25.751928    
-807646.38      2.8964215      32.761752      25.915131      25.354231    
-807646.32      3.7009781      32.886442      25.876884      24.956671    
-807641.21      2.9064301      33.013194      25.90147       24.559109    
-807632.45      3.3641595      33.193334      25.927904      24.161546    
-807624.7       3.1259556      33.836705      25.920967      23.76405     
-807620.36      3.0746661      33.674519      25.929012      23.366591    
-807622.54      3.7407303      33.409941      25.91091       22.969221    
-807633.29      2.8731933      32.246061      25.899684      22.571924    
-807643.54      3.1604095      32.103194      25.919991      22.174639    
-807646.9       3.0563632      31.726519      25.921108      21.777404    
-807644.72      3.134351       32.768566      25.898148      21.380262    
-807640.56      3.0848085      32.477456      25.883738      20.983194    
-807633.91      2.610133       32.160523      25.904858      20.586138    
-807620.97      3.369043       34.165462      25.918485      20.189108    
-807620.12      2.9870257      33.570116      25.887987      19.792178    
-807626.55      3.2904475      33.394058      25.924632      19.395236    
-807636.29      3.0525026      32.6892        25.908172      18.99837     
-807641.25      3.4776585      32.776507      25.945796      18.601493    
-807645.19      3.5665396      32.943502      25.965713      18.204637    
-807645.71      4.3131707      33.096384      25.94016       17.807871    
-807641.49      3.101735       31.968649      25.912176      17.411193    
-807630.09      5.6237861      32.441072      25.937265      17.014528    
-807622.99      3.2151857      33.030717      25.915215      16.617942    
-807624.24      4.4195743      32.862442      25.928256      16.221384    
-807629.33      2.7509144      32.247165      25.915468      15.824891    
-807636.51      2.9319149      31.070653      25.929975      15.428425    
-807641.45      3.3037801      31.689625      25.931088      15.032005    
-807647.71      2.4794502      31.854151      25.919371      14.635646    
-807646.04      3.5875499      31.682566      25.926745      14.239323    
-807638.66      2.9386416      32.030527      25.91749       13.843056    
-807628.81      2.7256954      32.191989      25.931379      13.446819    
-807627.27      3.5208075      32.518469      25.912449      13.050648    
-807622.4       2.9280092      33.884246      25.873359      12.65456     
-807629.32      2.6778768      31.954476      25.924088      12.258463    
-807634.84      3.2526274      32.675789      25.921202      11.862413    
-807646.22      3.0351584      31.576567      25.884795      11.466439    
-807645.17      3.1870958      32.723364      25.898017      11.070495    
-807643.8       2.4612501      32.080995      25.9178        10.674576    
-807636.68      3.6730018      31.450752      25.898322      10.278715    
-807630.75      2.5172794      32.243077      25.911768      9.8828846    
-807623.11      3.2065405      33.549395      25.862923      9.4871325    
-807623.58      2.8618077      32.938811      25.895155      9.0913953    
-807629.44      3.1269352      32.814277      25.900041      8.6956948    
-807638.75      2.7745881      33.270021      25.909053      8.3000285    
-807644.14      2.6773437      32.705624      25.873392      7.9044248    
-807643.16      3.2624625      32.740712      25.893413      7.5088472    
-807642.87      2.7060872      32.518392      25.876071      7.1133181    
-807634.55      2.9841549      32.871571      25.901564      6.7178132    
-807627.72      3.0279541      33.940491      25.917397      6.3223395    
-807619.76      3.185418       34.496811      25.934358      5.9268977    
-807625.04      3.8645326      34.66493       25.938741      5.5314946    
-807630.32      3.2000912      33.817981      25.905678      5.1361451    
-807639.51      2.8445456      33.480903      25.895362      4.7408378    
-807640.14      3.0973598      33.854283      25.924943      4.3455578    
-807645.3       3.0682461      33.000223      25.915192      3.9503198    
-807640.05      2.9989563      33.300565      25.902449      3.5551235    
-807633.39      2.7873398      33.300428      25.898275      3.1599652    
-807624.19      3.1718617      33.201976      25.903668      2.7648425    
-807623.37      3.1297933      34.212696      25.896874      2.3697577    
-807625.16      3.0932334      33.636544      25.904802      1.9747079    
-807631.22      3.1018149      33.488872      25.903063      1.5796947    
-807637.66      3.1005563      32.744777      25.862068      1.1847212    
-807643.58      3.8002264      33.095289      25.854788      0.78978144   
-807643.71      3.8094144      33.534305      25.880313      0.39487369   
-807638.26      3.7757648      32.915999      25.896471      0            
Loop time of 197.428 on 32 procs for 5000 steps with 1080 atoms

Performance: 4.376 ns/day, 5.484 hours/ns, 25.326 timesteps/s, 27.352 katom-step/s
66.5% CPU use with 32 MPI tasks x 1 OpenMP threads

MPI task timing breakdown:
Section |  min time  |  avg time  |  max time  |%varavg| %total
---------------------------------------------------------------
Pair    | 105.5      | 146.48     | 193.1      | 310.3 | 74.20
Neigh   | 0          | 0          | 0          |   0.0 |  0.00
Comm    | 2.0508     | 48.672     | 89.653     | 538.4 | 24.65
Output  | 0.026692   | 0.027615   | 0.02944    |   0.3 |  0.01
Modify  | 1.9168     | 1.9282     | 1.9391     |   0.4 |  0.98
Other   |            | 0.3173     |            |       |  0.16

Nlocal:          33.75 ave          48 max          21 min
Histogram: 8 8 0 0 0 0 0 8 0 8
Nghost:        1106.25 ave        1119 max        1092 min
Histogram: 8 0 8 0 0 0 0 0 8 8
Neighs:              0 ave           0 max           0 min
Histogram: 32 0 0 0 0 0 0 0 0 0
FullNghs:       5494.5 ave        7896 max        3378 min
Histogram: 8 8 0 0 0 0 0 8 0 8

Total # of neighbors = 175824
Ave neighs/atom = 162.8
Neighbor list builds = 0
Dangerous builds = 0

reset_timestep 0


variable interval equal 1000
thermo 10

variable nintervals equal $(v_PERIOD/v_interval)
variable nintervals equal 100
variable efield equal 1e-2*36.36*cos((step/${PERIOD})*2*3.14)
variable efield equal 1e-2*36.36*cos((step/100000)*2*3.14)
fix born all addbornforce 0.0 0.0 v_efield

variable Px equal f_born[1]+c_polarization[1]
variable Py equal f_born[2]+c_polarization[2]
variable Pz equal (f_born[3]+c_polarization[3])/vol
variable pe equal pe

fix aveP all ave/time 1 $(v_interval/2) ${interval} v_efield v_Pz v_pe f_born file Pz.${MODEL}.${STRUCTURE}.${TEMP}.$L.${ITER}
fix aveP all ave/time 1 500 ${interval} v_efield v_Pz v_pe f_born file Pz.${MODEL}.${STRUCTURE}.${TEMP}.$L.${ITER}
fix aveP all ave/time 1 500 1000 v_efield v_Pz v_pe f_born file Pz.${MODEL}.${STRUCTURE}.${TEMP}.$L.${ITER}
fix aveP all ave/time 1 500 1000 v_efield v_Pz v_pe f_born file Pz.BaTiO3-E0.${STRUCTURE}.${TEMP}.$L.${ITER}
fix aveP all ave/time 1 500 1000 v_efield v_Pz v_pe f_born file Pz.BaTiO3-E0.BaTiO3-sc333.${TEMP}.$L.${ITER}
fix aveP all ave/time 1 500 1000 v_efield v_Pz v_pe f_born file Pz.BaTiO3-E0.BaTiO3-sc333.280.$L.${ITER}
fix aveP all ave/time 1 500 1000 v_efield v_Pz v_pe f_born file Pz.BaTiO3-E0.BaTiO3-sc333.280.2.${ITER}
fix aveP all ave/time 1 500 1000 v_efield v_Pz v_pe f_born file Pz.BaTiO3-E0.BaTiO3-sc333.280.2.2

thermo_style custom step time temp press pe f_born v_efield v_Pz spcpu cpuremain

# dump 4a all custom 1000 dump.hyst.${MODEL}.${STRUCTURE}.${TEMP}.$L.${ITER}.bin id type xu yu zu fx fy fz
# dump_modify 4a sort id

fix nvt all nvt temp ${TEMP} ${TEMP} $(100*dt)
fix nvt all nvt temp 280 ${TEMP} $(100*dt)
fix nvt all nvt temp 280 280 $(100*dt)
fix nvt all nvt temp 280 280 0.2000000000000000111

run $(v_PERIOD)
run 100000
WARNING: non-constant efield is experimental, strongly distrust scalar/vector output (src/fix_addbornforce.cpp:193)
Per MPI rank memory allocation (min/avg/max) = 3.516 | 3.516 | 3.516 Mbytes
   Step          Time           Temp          Press          PotEng         f_born        v_efield         v_Pz          S/CPU         CPULeft    
         0   0              285.5877       128682.01     -807638.26     -299.34805      0.3636         0.056298922    0              0            
        10   0.02           291.02707      133414.59     -807632.3      -306.20161      0.36359993     0.057587895    28.810225      3470.6616    
        20   0.04           284.78909      140802.56     -807625.61     -311.96494      0.36359971     0.058671848    28.878688      3466.1915    
        30   0.06           273.71549      139886.88     -807623.61     -312.58769      0.36359935     0.058789029    28.882155      3464.3322    
        40   0.08           284.16026      140692.15     -807624.05     -313.55314      0.36359885     0.058970685    28.894301      3462.8659    
        50   0.1            280.16001      132025.96     -807632.44     -304.73464      0.36359821     0.05731227     28.886181      3462.0428    
        60   0.12           290.28126      129414.59     -807639.67     -298.76777      0.36359742     0.056190187    28.867475      3461.7508    
        70   0.14           272.20939      123021.48     -807644.05     -292.04999      0.36359649     0.054926892    28.871147      3461.3811    
        80   0.16           285.45194      126733.11     -807641.08     -296.85652      0.36359541     0.055831041    28.926454      3460.1901    
        90   0.18           285.53427      126997.57     -807639.12     -299.08805      0.36359419     0.056250921    28.914619      3459.3434    
       100   0.2            285.15208      136806.61     -807630.15     -307.99156      0.36359283     0.057925664    28.886717      3458.9321    
       110   0.22           272.01624      137341.53     -807625.85     -310.78338      0.36359132     0.058450978    28.835331      3459.0916    
       120   0.24           288.09929      142930        -807623.17     -315.66329      0.36358968     0.059369045    28.848513      3459.0351    
       130   0.26           272.02241      136378.1      -807627.32     -309.59827      0.36358788     0.05822864     28.850937      3458.912     
       140   0.28           284.3659       134291.03     -807634.35     -304.27107      0.36358595     0.057227015    28.855031      3458.7213    
       150   0.3            278.62257      125100.71     -807642.24     -295.88284      0.36358387     0.055649683    28.873814      3458.36      
       160   0.32           274.46451      126440.76     -807641.76     -295.87562      0.36358165     0.055648664    28.901837      3457.791     
       170   0.34           269.90536      124176.65     -807642.98     -294.39228      0.36357928     0.055370036    28.906218      3457.2175    
       180   0.36           281.0107       131209.95     -807637.27     -301.74277      0.36357677     0.056752927    28.896931      3456.7311    
       190   0.38           272.62783      133968.95     -807632.19     -306.09385      0.36357412     0.057571714    28.822062      3456.7313    
       200   0.4            276.00536      141924.08     -807624.24     -314.65436      0.36357132     0.059182274    28.846898      3456.5479    
       210   0.42           269.85238      138500.14     -807626.4      -312.00588      0.36356838     0.058684606    28.89752       3456.0606    
       220   0.44           282.91023      137686.67     -807630.74     -309.53402      0.3635653      0.058220172    28.898885      3455.5784    
       230   0.46           274.64099      130264.76     -807637.01     -302.38364      0.36356207     0.056875764    28.875928      3455.2275    
       240   0.48           265.5127       128841.01     -807639.29     -298.90495      0.3635587      0.056221972    28.90158       3454.7492    
       250   0.5            262.29732      124473.28     -807643.33     -294.5815       0.36355519     0.055409297    28.877943      3454.3945    
       260   0.52           275.18375      126186.55     -807643.46     -296.3162       0.36355153     0.055736146    28.888535      3453.9918    
       270   0.54           258.72017      130804.2      -807635.36     -302.27835      0.36354773     0.056858201    28.880459      3453.629     
       280   0.56           273.76102      135872.28     -807631.2      -308.61132      0.36354379     0.058050056    28.912166      3453.1321    
       290   0.58           275.96815      138301.16     -807627.22     -312.88921      0.3635397      0.058855393    28.938731      3452.5365    
       300   0.6            272.74867      138364.38     -807627.93     -311.76348      0.36353547     0.05864432     28.880011      3452.1909    
       310   0.62           271.29671      137054.34     -807630.77     -308.62111      0.3635311      0.058053924    28.912067      3451.7223    
       320   0.64           276.8792       129460.67     -807637.8      -302.31407      0.36352658     0.056868229    28.921499      3451.2259    
       330   0.66           265.42822      128160.07     -807640.64     -297.7236       0.36352192     0.056005434    28.925548      3450.7239    
       340   0.68           252.78147      124593.96     -807643.29     -293.26998      0.36351712     0.055168384    28.916318      3450.2636    
       350   0.7            271.79053      128994.49     -807641.14     -297.84268      0.36351217     0.056029339    28.859713      3450.0028    
       360   0.72           270.22632      130157.24     -807636.07     -302.63383      0.36350708     0.056931433    28.879102      3449.6731    
       370   0.74           280.78758      137430.97     -807629.59     -310.3311       0.36350185     0.058380282    28.922089      3449.2036    
       380   0.76           278.40627      138078.61     -807628.51     -310.92482      0.36349647     0.05849284     28.92331       3448.7371    
       390   0.78           269.24767      140876.79     -807624.79     -313.03682      0.36349095     0.058891055    28.912587      3448.3093    
       400   0.8            275.70527      134111.7      -807632.04     -306.51935      0.36348529     0.057665833    28.899929      3447.9234    
       410   0.82           278.35477      131740.81     -807636.01     -302.48251      0.36347948     0.056907288    28.916178      3447.4923    
       420   0.84           269.46028      124966.95     -807642.37     -294.75618      0.36347353     0.05545461     28.927336      3447.0335    
       430   0.86           265.0525       126579.69     -807641.23     -294.9698       0.36346744     0.05549573     28.91132       3446.6244    
       440   0.88           277.71779      126734.77     -807640.66     -297.21643      0.3634612      0.05591937     28.866386      3446.34      
       450   0.9            285.1473       133268.85     -807634.68     -304.07379      0.36345482     0.057210544    28.907257      3445.9445    
       460   0.92           282.26295      136144.93     -807629.5      -308.79037      0.3634483      0.058098996    28.948051      3445.4455    
       470   0.94           276.39172      140231.34     -807624.64     -312.65342      0.36344163     0.05882691     28.875779      3445.1364    
       480   0.96           284.52869      138366.68     -807626.83     -311.65213      0.36343482     0.058639612    28.81791       3444.9698    
       490   0.98           284.12427      135455.46     -807631.28     -307.05541      0.36342786     0.057775811    28.887068      3444.6272    
       500   1              280.08201      129467.33     -807637.5      -300.22657      0.36342077     0.056491994    28.881947      3444.2963    
       510   1.02           271.00855      126213.45     -807640.95     -9453.9458      0.36341353     0.05559165     28.806779      3444.1415    
       520   1.04           272.92096      125824.82     -807642.26     -9418.826       0.36340614     0.055386261    28.758743      3444.09      
       530   1.06           285.67322      127723.94     -807640.68     -9526.3374      0.36339862     0.056019629    28.805683      3443.9211    
       540   1.08           282.30224      133511.47     -807633.52     -9738.5281      0.36339095     0.057268625    28.78887       3443.783     
       550   1.1            286.74196      137295        -807628.98     -9903.4937      0.36338313     0.058239978    28.788713      3443.6374    
       560   1.12           277.73269      141675.43     -807623.7      -10030.899      0.36337518     0.058990509    28.807468      3443.4445    
       570   1.14           283.41527      138250.43     -807626.74     -9958.2735      0.36336707     0.058564713    28.800289      3443.2614    
       580   1.16           287.8391       135491.4      -807631.43     -9825.9417      0.36335883     0.057787779    28.791625      3443.0905    
       590   1.18           280.66923      127916.52     -807637.83     -9589.1595      0.36335044     0.05639653     28.799078      3442.8985    
       600   1.2            265.35663      126971.18     -807639.13     -9474.8882      0.36334191     0.055725777    28.826677      3442.6461    
       610   1.22           274.45592      124526.21     -807642.62     -9405.9402      0.36333324     0.055321585    28.853015      3442.3392    
       620   1.24           275.71462      129786.48     -807637.57     -9570.5047      0.36332442     0.056290847    28.861978      3442.0136    
       630   1.26           278.72986      132387.6      -807633.02     -9731.739       0.36331546     0.057240591    28.812413      3441.7815    
       640   1.28           287.76503      140138.79     -807627.17     -9956.17        0.36330636     0.058562127    28.841571      3441.4912    
       650   1.3            277.83114      139596.17     -807625.35     -9972.4835      0.36329711     0.058659576    28.817365      3441.2438    
       660   1.32           284.34761      140084.94     -807626.42     -9963.9184      0.36328772     0.05861071     28.861117      3440.9141    
       670   1.34           291.13159      131646.69     -807635.07     -9719.9278      0.36327819     0.057176985    28.82287       3440.6521    
       680   1.36           273.22941      130703.38     -807636.49     -9589.156       0.36326851     0.056409229    28.807851      3440.4141    
       690   1.38           273.63556      124480.19     -807642.84     -9391.3385      0.36325869     0.05524704     28.826428      3440.1406    
       700   1.4            274.74906      128368.88     -807640.37     -9470.69        0.36324873     0.055715375    28.843692      3439.8356    
       710   1.42           274.77776      127898.9      -807638.33     -9541.8575      0.36323863     0.05613561     28.813271      3439.5807    
       720   1.44           290.20696      136423.14     -807631.94     -9811.6195      0.36322838     0.057724273    28.783291      3439.373     
       730   1.46           289.72692      137037.41     -807628.98     -9907.6808      0.36321798     0.058291094    28.782185      3439.1633    
       740   1.48           283.00538      140930.6      -807623.95     -10036.438      0.36320745     0.059050339    28.796582      3438.9266    
       750   1.5            277.4656       136905        -807628.65     -9865.0914      0.36319677     0.058043912    28.769699      3438.7299    
       760   1.52           291.58943      134196.21     -807634.47     -9739.2623      0.36318595     0.057305271    28.749175      3438.5617    
       770   1.54           274.08818      128041.66     -807639.19     -9513.6518      0.36317498     0.055979481    28.795939      3438.3158    
       780   1.56           273.67535      126767.23     -807641.06     -9447.204       0.36316387     0.055590195    28.786867      3438.0814    
       790   1.58           278.357        125563.31     -807642.33     -9429.8023      0.36315262     0.055489518    28.807677      3437.8126    
       800   1.6            278.90563      129722.12     -807637.35     -9594.2886      0.36314122     0.056459206    28.821756      3437.5208    
       810   1.62           278.44313      135361.29     -807630.24     -9822.0684      0.36312968     0.057801451    28.821211      3437.2285    
       820   1.64           282.072        138783.26     -807626.68     -9954.3106      0.363118       0.058581562    28.784043      3436.989     
       830   1.66           272.44644      140424.25     -807624.4      -9983.6914      0.36310618     0.058756383    28.795429      3436.7305    
       840   1.68           282.10816      136118.92     -807630.35     -9840.372       0.36309421     0.057914823    28.81704       3436.4391    
       850   1.7            282.11939      133660.21     -807633.34     -9743.1481      0.3630821      0.057344531    28.878527      3436.0602    
       860   1.72           277.78393      126083.88     -807640.15     -9509.8785      0.36306984     0.055973483    28.882046      3435.6773    
       870   1.74           277.0136       126679.78     -807642.87     -9417.4329      0.36305745     0.055431257    28.825928      3435.372     
       880   1.76           273.17874      125138.76     -807642.49     -9418.4443      0.3630449      0.055439125    28.83506       3435.0533    
       890   1.78           276.78726      132352.3      -807634.98     -9675.5861      0.36303222     0.05695471     28.834224      3434.7352    
       900   1.8            280.45919      134050.64     -807631.42     -9811.9492      0.36301939     0.057759444    28.846179      3434.4006    
       910   1.82           278.70558      140596.35     -807626.13     -9972.0947      0.36300642     0.058704261    28.796518      3434.1308    
       920   1.84           275.57101      137777.09     -807627.48     -9921.0087      0.36299331     0.058405635    28.805086      3433.8482    
       930   1.86           286.02464      137646.02     -807628.92     -9920.0977      0.36298005     0.058402405    28.842623      3433.5161    
       940   1.88           278.55301      130204.93     -807636.2      -9659.0839      0.36296665     0.056867843    28.839579      3433.1875    
       950   1.9            278.38742      129239.69     -807640.45     -9519.9208      0.36295311     0.056050611    28.84131       3432.8564    
       960   1.92           266.32145      124230.8      -807643.17     -9385.5849      0.36293942     0.055261764    28.814535      3432.5582    
       970   1.94           275.06084      129022        -807639.45     -9542.4287      0.36292559     0.056187391    28.799646      3432.2773    
       980   1.96           273.55209      128963.99     -807636.67     -9631.0356      0.36291162     0.056711307    28.836041      3431.9509    
       990   1.98           282.20072      136459.25     -807631.4      -9836.8686      0.3628975      0.057925585    28.822064      3431.6407    
      1000   2              282.81598      137067.79     -807629.28     -9911.4214      0.36288325     0.058366892    28.675092      3431.5059    
      1010   2.02           269.98422      140228.38     -807624.96     -312.22747      0.36286884     0.058839497    28.810175      3431.2066    
      1020   2.04           286.36479      134647.9      -807631.72     -307.81964      0.3628543      0.058011163    28.842303      3430.8689    
      1030   2.06           270.8508       132042.62     -807635.46     -301.9118       0.36283961     0.056900085    28.907265      3430.4561    
      1040   2.08           274.40924      127549.04     -807641.45     -296.44225      0.36282478     0.055871545    28.836007      3430.1259    
      1050   2.1            263.83749      126936.88     -807640.1      -296.32452      0.3628098      0.055851661    28.893702      3429.7302    
      1060   2.12           273.26762      128513.25     -807640.31     -297.41747      0.36279469     0.056059998    28.934902      3429.2894    
      1070   2.14           275.58047      130788.71     -807637.35     -300.66742      0.36277943     0.056674961    28.901156      3428.8877    
      1080   2.16           282.45961      136330.02     -807631.36     -307.56384      0.36276402     0.05797738     28.890035      3428.4992    
      1090   2.18           279.07767      138485.58     -807627.32     -311.08306      0.36274848     0.058643284    28.935276      3428.0624    
      1100   2.2            272.75613      138212.09     -807626.84     -310.53609      0.36273279     0.058542705    28.94164       3427.6204    
      1110   2.22           273.40599      133504.32     -807632.82     -304.5182       0.36271695     0.057410709    28.924352      3427.1985    
      1120   2.24           279.57632      130558.25     -807636.97     -301.04829      0.36270098     0.056759028    28.894688      3426.8094    
      1130   2.26           263.0411       126683.45     -807638.07     -297.5222       0.36268486     0.056096719    28.932388      3426.3815    
      1140   2.28           278.0846       127657.21     -807641.53     -295.86216      0.3626686      0.055786228    28.916968      3425.9711    
      1150   2.3            278.73028      127747.49     -807640.79     -296.4977       0.36265219     0.05590859     28.910061      3425.5689    
      1160   2.32           284.54472      133511.66     -807634.08     -303.72095      0.36263564     0.057273243    28.925415      3425.152     
      1170   2.34           294.12724      135502.58     -807630.58     -308.43446      0.36261895     0.058164757    28.919596      3424.7423    
      1180   2.36           290.82946      138628.94     -807627.36     -310.85859      0.36260212     0.058624621    28.912735      3424.3405    
      1190   2.38           283.75005      135873.24     -807630.38     -306.69164      0.36258514     0.057841487    28.855882      3423.9961    
      1200   2.4            278.62158      134867.04     -807630.32     -305.72553      0.36256802     0.057662003    28.895498      3423.6127    
      1210   2.42           287.52239      128532.18     -807637.25     -299.85636      0.36255076     0.056557729    28.875889      3423.249     
      1220   2.44           273.56121      129041.01     -807638.1      -296.74003      0.36253335     0.055972626    28.894484      3422.8677    
      1230   2.46           277.09827      125340.26     -807641.74     -293.48837      0.3625158      0.055361962    28.846086      3422.5335    
      1240   2.48           295.51451      130835.78     -807637.51     -299.99019      0.36249811     0.056591189    28.863339      3422.1825    
      1250   2.5            290.49768      132201.03     -807633.34     -303.55232      0.36248028     0.057265979    28.889633      3421.8068    
      1260   2.52           283.90684      139225.95     -807626.43     -309.26598      0.3624623      0.058346772    28.927542      3421.3959    
      1270   2.54           286.60678      136456.88     -807629.26     -306.80202      0.36244418     0.057884809    28.907417      3421.0049    
      1280   2.56           289.74083      139128.24     -807627.36     -308.99468      0.36242592     0.05830144     28.876663      3420.6429    
      1290   2.58           286.63768      132189.05     -807631.73     -304.23687      0.36240751     0.057406645    28.918066      3420.2432    
      1300   2.6            278.43618      131417.87     -807635.01     -299.63228      0.36238896     0.056540697    28.936557      3419.8276    
      1310   2.62           278.80823      127002.26     -807640.94     -293.79434      0.36237027     0.055441936    28.919655      3419.4282    
      1320   2.64           277.64455      129691.54     -807637.41     -297.11502      0.36235143     0.056071496    28.935358      3419.0157    
      1330   2.66           284.36354      129670.42     -807635.29     -300.28323      0.36233245     0.056672369    28.927805      3418.6108    
      1340   2.68           288.63571      133840.37     -807632.53     -303.62739      0.36231333     0.057306536    28.913885      3418.2191    
      1350   2.7            287.85779      136345.39     -807629.55     -306.52926      0.36229407     0.057857308    28.896332      3417.8435    
      1360   2.72           285.01944      137956.88     -807625.99     -309.80222      0.36227466     0.058478211    28.846894      3417.5112    
      1370   2.74           292.39473      136783.43     -807629.05     -307.84951      0.36225511     0.058112755    28.864637      3417.1634    
      1380   2.76           287.57297      131912.3      -807634.33     -301.96348      0.36223542     0.057004747    28.899003      3416.7862    
      1390   2.78           287.94473      129844.24     -807638.63     -297.73019      0.36221558     0.056208664    28.906483      3416.4031    
      1400   2.8            275.70038      126703.97     -807639.14     -295.70388      0.3621956      0.055829195    28.878958      3416.0437    
      1410   2.82           274.04341      129541.53     -807636.99     -297.71174      0.36217548     0.056211404    28.917108      3415.6527    
      1420   2.84           276.58966      128790.15     -807637.36     -297.96335      0.36215522     0.056262058    28.893026      3415.2822    
      1430   2.86           281.44387      135616.99     -807631.43     -304.65668      0.36213481     0.057529148    28.926642      3414.8843    
      1440   2.88           277.96016      136134.85     -807629.27     -306.64767      0.36211426     0.057908399    28.93413       3414.4811    
      1450   2.9            280.70953      139731.33     -807625.89     -310.46958      0.36209357     0.058633493    28.924223      3414.0867    
      1460   2.92           285.47258      133987.71     -807632.23     -305.08661      0.36207273     0.057620212    28.918989      3413.6971    
      1470   2.94           271.3864       134640.48     -807632.32     -303.0634       0.36205176     0.057241413    28.921974      3413.3058    
      1480   2.96           275.86431      127533.92     -807638.63     -297.67205      0.36203064     0.056226397    28.932854      3412.9065    
      1490   2.98           269.90511      129033.99     -807637.89     -297.60638      0.36200937     0.056217294    28.931791      3412.5087    
      1500   3              277.43885      126136.17     -807641.44     -295.31809      0.36198796     0.055788339    28.912845      3412.1264    
      1510   3.02           271.71191      132366.16     -807635.51     -9616.3974      0.36196642     0.056772977    28.808279      3411.8266    
      1520   3.04           280.92474      133174.76     -807633.36     -9733.6812      0.36194472     0.057468837    28.772931      3411.5538    
      1530   3.06           273.59216      137890.04     -807627.79     -9879.0925      0.36192289     0.058330882    28.776313      3411.2773    
      1540   3.08           278.32677      135815.88     -807630.36     -9822.1634      0.36190091     0.057998267    28.81294       3410.9717    
      1550   3.1            275.41852      135406.97     -807630.94     -9788.7381      0.36187879     0.057804429    28.839073      3410.6455    
      1560   3.12           277.94959      130931.78     -807635.86     -9646.1214      0.36185653     0.056965754    28.845876      3410.314     
      1570   3.14           266.37668      130242.44     -807636.88     -9558.0824      0.36183412     0.05644933     28.843709      3409.9839    
      1580   3.16           275.97016      126885.06     -807642.31     -9427.784       0.36181157     0.055683267    28.847405      3409.6507    
      1590   3.18           268.02104      129348.21     -807639.24     -9487.7073      0.36178888     0.056040706    28.864409      3409.3048    
      1600   3.2            273.11491      131828.53     -807635.2      -9640.6109      0.36176605     0.056947451    28.828383      3408.9855    
      1610   3.22           274.11306      135244.86     -807630.89     -9781.9476      0.36174307     0.057786002    28.806239      3408.6822    
      1620   3.24           269.16016      136950.72     -807628.46     -9836.6312      0.36171995     0.058112755    28.842117      3408.3521    
      1630   3.26           277.14425      136649.9      -807630.02     -9818.7935      0.36169669     0.058011104    28.840972      3408.0226    
      1640   3.28           278.74308      134400.66     -807631.53     -9776.3973      0.36167329     0.057764358    28.832365      3407.6992    
      1650   3.3            278.98982      130844.3      -807635.89     -9635.6708      0.36164974     0.056936575    28.858161      3407.357     
      1660   3.32           284.1415       128188.4      -807641.14     -9486.0211      0.36162605     0.056055976    28.87321       3407.0039    
      1670   3.34           267.23181      127126.69     -807640.7      -9423.4175      0.36160222     0.055689701    28.856474      3406.6629    
      1680   3.36           273.48081      130039.85     -807637.49     -9551.2761      0.36157824     0.056449052    28.799813      3406.3616    
      1690   3.38           275.21536      131087.23     -807634.98     -9639.7136      0.36155413     0.056975526    28.817544      3406.0474    
      1700   3.4            279.83668      135781.37     -807631.67     -9760.3368      0.36152987     0.057692341    28.791983      3405.7506    
      1710   3.42           274.96787      135607.04     -807630.49     -9775.0762      0.36150546     0.057783365    28.84347       3405.4176    
      1720   3.44           275.17718      138019.02     -807627.58     -9863.9866      0.36148092     0.0583129      28.879167      3405.0599    
      1730   3.46           279.36414      132600.84     -807632.68     -9717.3058      0.36145623     0.05744969     28.868733      3404.7095    
      1740   3.48           281.65584      131842.86     -807636.91     -9585.0883      0.3614314      0.056671901    28.867167      3404.3602    
      1750   3.5            283.35314      127086.82     -807641.2      -9453.2574      0.36140643     0.055896312    28.867569      3404.0106    
      1760   3.52           271.4236       128969.8      -807637.14     -9523.303       0.36138131     0.056314399    28.857446      3403.6679    
      1770   3.54           278.24934      129604.35     -807637.68     -9535.2602      0.36135605     0.056389047    28.805972      3403.3595    
      1780   3.56           284.3131       133419.55     -807635.27     -9632.8455      0.36133065     0.056970145    28.845458      3403.0244    
      1790   3.58           282.89122      135433.69     -807630.91     -9764.0187      0.36130511     0.057750007    28.833794      3402.6969    
      1800   3.6            275.00471      138337.45     -807626.72     -9858.5917      0.36127942     0.058313511    28.823711      3402.3758    
      1810   3.62           284.36346      135867.82     -807630.33     -9781.6168      0.3612536      0.057862341    28.802808      3402.0681    
      1820   3.64           285.13822      132824.84     -807634.44     -9646.5379      0.36122763     0.057067396    28.780472      3401.7745    
      1830   3.66           277.75017      129308.41     -807636.7      -9537.8983      0.36120151     0.056428781    28.809148      3401.4617    
      1840   3.68           283.37426      128388.72     -807638.41     -9502.5894      0.36117526     0.056223971    28.831918      3401.1339    
      1850   3.7            284.33475      127488.89     -807639.68     -9463.4837      0.36114886     0.055996687    28.8342        3400.8045    
      1860   3.72           289.26469      129809.13     -807637.9      -9537.1493      0.36112232     0.056436723    28.84067       3400.4708    
      1870   3.74           279.26313      134037.05     -807632.04     -9678.095       0.36109564     0.057275011    28.810627      3400.1559    
      1880   3.76           283.16982      136604.93     -807628.1      -9816.8432      0.36106881     0.058100439    28.788689      3399.8545    
      1890   3.78           293.80425      137159.64     -807629.53     -9812.9027      0.36104184     0.058081455    28.829341      3399.5271    
      1900   3.8            279.94229      134751.47     -807630.97     -9703.3506      0.36101474     0.057437342    28.855445      3399.1834    
      1910   3.82           283.28577      133983.12     -807632.08     -9677.8183      0.36098748     0.057290533    28.902083      3398.8109    
      1920   3.84           283.61537      129063.45     -807636.28     -9542.8944      0.36096009     0.056496101    28.85266       3398.469     
      1930   3.86           287.7649       128968.06     -807638.9      -9473.0286      0.36093255     0.056086758    28.810662      3398.1527    
      1940   3.88           280.32995      127927.43     -807639.24     -9426.7031      0.36090487     0.05581676     28.777846      3397.856     
      1950   3.9            282.80484      132363.59     -807634        -9602.5681      0.36087705     0.056862463    28.818664      3397.5341    
      1960   3.92           292.86559      133106.89     -807633.11     -9677.2538      0.36084909     0.057309162    28.788533      3397.2302    
      1970   3.94           289.12783      137457.29     -807629.96     -9756.3366      0.36082098     0.057781995    28.78075       3396.9304    
      1980   3.96           286.5624       135785.69     -807630.38     -9731.966       0.36079273     0.057642173    28.778182      3396.6317    
      1990   3.98           286.30296      136228.62     -807629.79     -9745.6626      0.36076434     0.05772784     28.807398      3396.3152    
      2000   4              290.80411      131417.22     -807635.04     -9599.5496      0.36073581     0.056866846    28.763289      3396.0244    
      2010   4.02           287.11095      130498.85     -807637.19     -297.19534      0.36070713     0.056342328    28.854119      3395.6797    
      2020   4.04           281.04736      127939.4      -807638.3      -295.33899      0.36067831     0.055994874    28.875399      3395.3226    
      2030   4.06           286.50403      130589.22     -807636.64     -297.78441      0.36064935     0.056463048    28.849916      3394.9804    
      2040   4.08           286.77009      131008.54     -807635.78     -298.82959      0.36062025     0.056665796    28.867424      3394.628     
      2050   4.1            289.055        134778.09     -807632.12     -302.83885      0.36059101     0.057430714    28.869769      3394.2744    
      2060   4.12           283.08817      135822.78     -807630.56     -303.82559      0.36056162     0.057622536    28.872849      3393.919     
      2070   4.14           285.76975      136846.21     -807630.1      -304.74704      0.36053209     0.057802028    28.894955      3393.5512    
      2080   4.16           285.73726      133453.81     -807632.81     -302.25655      0.36050242     0.057334372    28.862221      3393.2022    
      2090   4.18           278.33027      132569.26     -807634.19     -300.01859      0.36047261     0.056914564    28.872738      3392.8472    
      2100   4.2            273.9793       129703.1      -807637.13     -296.75757      0.36044265     0.056300616    28.899849      3392.4771    
      2110   4.22           281.9416       129227.74     -807638.37     -296.79859      0.36041256     0.056313101    28.930143      3392.0905    
      2120   4.24           277.44595      129070.88     -807637.8      -296.95867      0.36038232     0.056348201    28.868017      3391.7386    
      2130   4.26           279.3261       132217.58     -807635.32     -299.87345      0.36035193     0.05690608     28.86317       3391.3894    
      2140   4.28           273.15392      134252.52     -807632.31     -302.2807       0.36032141     0.057367756    28.932265      3391.0024    
      2150   4.3            289.31161      134591.94     -807632.6      -304.39626      0.36029075     0.057774171    28.935516      3390.6141    
      2160   4.32           271.4129       134832.24     -807630.81     -303.87619      0.36025994     0.057680395    28.925099      3390.2317    
      2170   4.34           273.60821      133426.66     -807633.35     -301.74866      0.36022899     0.057281478    28.895369      3389.8658    
      2180   4.36           274.81713      132050.03     -807635.66     -299.65525      0.36019789     0.056888992    28.889254      3389.5033    
      2190   4.38           283.58149      129020.89     -807639.8      -296.85635      0.36016666     0.056362514    28.886089      3389.1426    
      2200   4.4            273.28985      129786.11     -807638.47     -296.76556      0.36013528     0.056350185    28.84361       3388.8048    
      2210   4.42           267.75179      129687.14     -807637.71     -296.86864      0.36010377     0.056374691    28.816042      3388.4815    
      2220   4.44           271.94256      132432.29     -807634.74     -300.38346      0.36007211     0.057047163    28.827553      3388.1519    
      2230   4.46           279.28978      132707.86     -807634.58     -301.56977      0.3600403      0.05727752     28.842611      3387.8143    
      2240   4.48           272.74869      135772.38     -807631.47     -303.74617      0.36000836     0.057696006    28.849811      3387.4728    
      2250   4.5            275.71051      133649.91     -807632.66     -302.98545      0.35997627     0.057556637    28.904428      3387.1027    
      2260   4.52           272.26969      134776        -807632.98     -302.00998      0.35994404     0.05737647     28.870829      3386.7503    
      2270   4.54           277.07762      130484.73     -807637.32     -298.37152      0.35991167     0.056690325    28.911555      3386.377     
      2280   4.56           273.84867      131106.38     -807637.05     -298.08535      0.35987916     0.05664107     28.95078       3385.9838    
      2290   4.58           277.6859       128512.76     -807640.11     -295.49075      0.35984651     0.05615315     28.955856      3385.5884    
      2300   4.6            266.79379      131186.94     -807635.66     -298.24266      0.35981371     0.05668127     28.918404      3385.2125    
      2310   4.62           271.59841      130375.65     -807635.59     -298.92884      0.35978077     0.05681688     28.925222      3384.8333    
      2320   4.64           279.62207      134704.99     -807633.08     -302.30511      0.35974769     0.057463886    28.95489       3384.4396    
      2330   4.66           278.54161      133947.45     -807632.39     -302.7319       0.35971447     0.057550327    28.978506      3384.0345    
      2340   4.68           279.61618      135107.36     -807632.02     -302.96469      0.35968111     0.057599924    28.949902      3383.6441    
      2350   4.7            281.46433      132922.68     -807634.77     -300.2797       0.3596476      0.05709477     28.949012      3383.2545    
      2360   4.72           275.3671       131818.96     -807635.41     -298.54142      0.35961396     0.056769566    28.916599      3382.8814    
      2370   4.74           286.35887      129373.51     -807638.93     -296.29423      0.35958017     0.056347542    28.952484      3382.4908    
      2380   4.76           281.12499      129146.35     -807638.3      -295.93228      0.35954624     0.056284021    28.878072      3382.1371    
      2390   4.78           273.32815      131274.68     -807635.2      -297.68302      0.35951216     0.056622364    28.852979      3381.7957    
      2400   4.8            292.2158       131990.57     -807635.57     -299.73237      0.35947795     0.057017598    28.857126      3381.4523    
      2410   4.82           287.18444      134830.73     -807631.97     -302.3643       0.35944359     0.057523762    28.862565      3381.1062    
      2420   4.84           276.84546      134993        -807631.09     -301.61958      0.35940909     0.057387591    28.846707      3380.7678    
      2430   4.86           277.00057      135067.82     -807630.64     -301.88177      0.35937446     0.057443012    28.840444      3380.4324    
      2440   4.88           290.53976      131668.95     -807635.6      -298.63241      0.35933967     0.056830213    28.845231      3380.0945    
      2450   4.9            278.67056      132237.74     -807634.57     -297.79786      0.35930475     0.056676906    28.913884      3379.7238    
      2460   4.92           287.38965      129585.56     -807638.1      -295.38224      0.35926969     0.056222651    28.909319      3379.3555    
      2470   4.94           286.40413      131126.94     -807635.95     -297.17122      0.35923448     0.056568706    28.911771      3378.9862    
      2480   4.96           283.36845      131042.98     -807635.02     -297.75053      0.35919913     0.05668456     28.846085      3378.6481    
      2490   4.98           277.23914      134384.38     -807630.87     -300.86772      0.35916364     0.057283659    28.84257       3378.3115    
      2500   5              293.67781      133555.07     -807632.86     -301.2151       0.35912801     0.057355487    28.90014       3377.9479    
[...]
     98740   197.48         278.55484      132113.28     -807636.37     -9661.4886      0.36236891     0.056975829    29.227239      43.761895    
     98750   197.5          276.7495       132842.14     -807634.55     -9715.7465      0.36238762     0.057292842    29.249772      43.414509    
     98760   197.52         274.26216      133473.43     -807632.31     -9779.7801      0.36240618     0.057667489    29.213732      43.06713     
     98770   197.54         266.73838      132446.02     -807634.56     -9675.1681      0.36242459     0.057047734    29.167748      42.719759    
     98780   197.56         274.94653      133067.78     -807635.88     -9668.5638      0.36244287     0.057005919    29.18211       42.372387    
     98790   197.58         270.34881      130887.77     -807635.52     -9662.3903      0.362461       0.05696667     29.176294      42.025016    
     98800   197.6          281.89739      133415        -807634.48     -9744.5321      0.36247899     0.057448103    29.178809      41.677646    
     98810   197.62         272.06537      131322.6      -807636.61     -9632.032       0.36249683     0.056782073    29.224841      41.33027     
     98820   197.64         272.95489      133476.48     -807634.78     -9689.9313      0.36251453     0.057120607    29.201066      40.982899    
     98830   197.66         279.49825      130962.5      -807635.48     -9696.7462      0.36253209     0.057158012    29.237266      40.635524    
     98840   197.68         274.64593      133923.4      -807632.15     -9775.7612      0.36254951     0.057621002    29.269241      40.288145    
     98850   197.7          266.89842      132212.26     -807633.48     -9695.8041      0.36256678     0.05714699     29.259695      39.940769    
     98860   197.72         275.47361      133655.58     -807635.01     -9675.6117      0.36258391     0.057025282    29.247819      39.593396    
     98870   197.74         285.28893      131851.88     -807635.96     -9684.0841      0.3626009      0.057072542    29.200875      39.24603     
     98880   197.76         272.05271      133381.2      -807632.35     -9730.9831      0.36261774     0.057346274    29.256508      38.898657    
     98890   197.78         280.77719      130849.16     -807635.87     -9651.3035      0.36263445     0.05687409     29.279805      38.551283    
     98900   197.8          282.9909       132748.65     -807635.82     -9653.5637      0.362651       0.056884811    29.216176      38.203918    
     98910   197.82         272.49554      132443.53     -807632.57     -9706.2247      0.36266742     0.057192534    29.249211      37.85655     
     98920   197.84         282.52212      133866.34     -807631.45     -9778.5027      0.36268369     0.057615837    29.246654      37.509184    
     98930   197.86         287.18958      132495.68     -807634.42     -9699.4691      0.36269982     0.057147622    29.255277      37.161817    
     98940   197.88         286.9853       133271.38     -807633.99     -9705.489       0.36271581     0.05718057     29.233953      36.814454    
     98950   197.9          285.80647      131871.13     -807633.23     -9721.2854      0.36273165     0.057271134    29.207666      36.467096    
     98960   197.92         277.78958      134089.11     -807631.19     -9745.9286      0.36274735     0.05741383     29.247538      36.119733    
     98970   197.94         282.70515      131857.6      -807634.9      -9645.8099      0.36276291     0.056821588    29.288789      35.772367    
     98980   197.96         289.5504       132318.1      -807635.84     -9641.0589      0.36277832     0.056791188    29.256681      35.425006    
     98990   197.98         280.01436      132456.03     -807632.3      -9711.7233      0.36279359     0.057205032    29.276039      35.077643    
     99000   198            288.18342      132654.62     -807632.67     -9734.898       0.36280872     0.057339147    29.277793      34.730282    
     99010   198.02         296.6741       132127.65     -807635.08     -302.89515      0.3628237      0.057087915    29.308496      34.382918    
     99020   198.04         280.81822      134496.08     -807632.57     -303.19294      0.36283855     0.057141704    29.314904      34.035555    
     99030   198.06         282.25684      135085.19     -807630.28     -305.73557      0.36285324     0.05761857     29.321628      33.688192    
     99040   198.08         292.72097      133538.99     -807632.18     -305.24361      0.3628678      0.057523548    29.376951      33.340824    
     99050   198.1          281.95351      131932.81     -807634.12     -301.80204      0.36288221     0.056872721    29.338661      32.993462    
     99060   198.12         286.38907      131626.8      -807635.63     -300.90115      0.36289648     0.056700724    29.265011      32.646109    
     99070   198.14         287.99542      131782.68     -807633.95     -302.82516      0.36291061     0.057061057    29.257345      32.298758    
     99080   198.16         288.53926      131465.22     -807633.48     -303.49247      0.36292459     0.057184594    29.277231      31.951407    
     99090   198.18         272.51819      134174.06     -807632.16     -302.6063       0.36293843     0.057015446    29.272329      31.604057    
     99100   198.2          294.26005      132933.3      -807634.31     -303.61723      0.36295213     0.057203761    29.298414      31.256705    
     99110   198.22         278.77329      136261.34     -807628.79     -307.07171      0.36296568     0.057852451    29.280398      30.909356    
     99120   198.24         278.93879      133823.24     -807631.52     -304.57628      0.36297909     0.05738019     29.275764      30.56201     
     99130   198.26         292.58312      133296.58     -807635.02     -302.98145      0.36299236     0.05707765     29.287663      30.214663    
     99140   198.28         289.75788      130143.27     -807637.08     -300.75763      0.36300548     0.056656662    29.320559      29.867314    
     99150   198.3          281.2309       132998.35     -807632.71     -304.07261      0.36301846     0.05727909     29.332056      29.519965    
     99160   198.32         283.15607      129398.41     -807635.93     -301.45123      0.3630313      0.056783283    29.284273      29.172622    
     99170   198.34         278.27113      134017.08     -807633.56     -303.22514      0.36304399     0.057115433    29.320265      28.825276    
     99180   198.36         280.56106      131572.17     -807634.33     -303.15413      0.36305655     0.057100082    29.362649      28.477928    
     99190   198.38         277.91146      136446.39     -807629.33     -307.94849      0.36306895     0.058001134    29.327808      28.130585    
     99200   198.4          279.46095      132940.28     -807632.45     -305.39766      0.36308122     0.05751875     29.323189      27.783243    
     99210   198.42         282.83479      134480.21     -807634.03     -304.39649      0.36309334     0.057328275    29.323021      27.435903    
     99220   198.44         275.21868      131353.17     -807636.06     -301.65545      0.36310532     0.05681017     29.357833      27.088561    
     99230   198.46         273.1039       133046.53     -807633.64     -303.96327      0.36311715     0.057242931    29.354059      26.74122     
     99240   198.48         271.84462      130302.23     -807636.04     -301.64467      0.36312885     0.056804459    29.322607      26.393883    
     99250   198.5          277.70065      132129.76     -807636.73     -301.83434      0.3631404      0.056838368    29.329881      26.046548    
     99260   198.52         274.63754      131862.07     -807635.7      -302.68584      0.3631518      0.056996925    29.31895       25.699214    
     99270   198.54         275.82862      134560.92     -807631.11     -307.55392      0.36316306     0.057911806    29.336521      25.35188     
     99280   198.56         270.94332      134246.2      -807632.21     -305.86173      0.36317418     0.057591407    29.329406      25.004548    
     99290   198.58         281.07839      134341.75     -807635.41     -304.039        0.36318516     0.057246472    29.319124      24.657218    
     99300   198.6          276.77207      132679.48     -807634.52     -304.39663      0.36319599     0.057312098    29.331635      24.309889    
     99310   198.62         267.63089      132320.94     -807633.19     -304.51116      0.36320668     0.057331974    29.265604      23.962566    
     99320   198.64         274.19754      130966.3      -807636.22     -302.34219      0.36321723     0.056921958    29.247926      23.615245    
     99330   198.66         270.73328      130083.22     -807637.55     -300.54869      0.36322763     0.056582676    29.251529      23.267926    
     99340   198.68         274.52439      132312.09     -807635        -303.55402      0.36323789     0.057146859    29.229029      22.920609    
     99350   198.7          259.77341      133027.06     -807631.4      -305.12464      0.36324801     0.057440942    29.217565      22.573294    
     99360   198.72         277.1833       133864.69     -807633.4      -305.43391      0.36325798     0.057497585    29.331172      22.225972    
     99370   198.74         274.64372      132549.72     -807635.04     -303.42583      0.36326781     0.05711802     29.311004      21.878652    
     99380   198.76         274.75703      134139.78     -807632.98     -305.46799      0.3632775      0.05750091     29.290706      21.531336    
     99390   198.78         268.77397      132542.83     -807632.86     -304.71571      0.36328704     0.057357797    29.322168      21.184018    
     99400   198.8          275.17964      132395.52     -807634.88     -303.41067      0.36329644     0.057110666    29.266423      20.836705    
     99410   198.82         280.64879      130161.41     -807639.01     -299.98447      0.3633057      0.056464317    29.259689      20.489394    
     99420   198.84         272.07286      132560.78     -807634.33     -303.35675      0.36331481     0.057097629    29.304081      20.142081    
     99430   198.86         275.62063      132214.46     -807633.55     -304.66444      0.36332378     0.057342346    29.282835      19.79477     
     99440   198.88         275.10709      134428.57     -807633.23     -304.73243      0.36333261     0.057353749    29.320523      19.447459    
     99450   198.9          267.51724      132998.92     -807633.61     -303.22762      0.36334129     0.057069165    29.34871       19.100146    
     99460   198.92         286.29368      134129.45     -807633.08     -306.28004      0.36334983     0.057642293    29.355064      18.752835    
     99470   198.94         278.28328      132526.47     -807631.91     -306.34509      0.36335823     0.057653204    29.395491      18.405523    
     99480   198.96         282.34722      132922.11     -807634.58     -304.06224      0.36336648     0.057222277    29.330608      18.058216    
     99490   198.98         265.30921      130808.43     -807635.19     -301.01911      0.3633746      0.056648318    29.324138      17.71091     
     99500   199            283.51638      132389.6      -807635.39     -303.26373      0.36338256     0.05706948     29.326943      17.363606    
     99510   199.02         274.75946      131170.84     -807633.37     -9730.7192      0.36339039     0.057222792    29.218573      17.016309    
     99520   199.04         276.1201       133205.86     -807633.45     -9728.2592      0.36339807     0.057207117    29.216045      16.669013    
     99530   199.06         276.39749      132297.47     -807635.19     -9671.8592      0.3634056      0.056874277    29.199797      16.321719    
     99540   199.08         284.2515       134145.92     -807631.9      -9807.3676      0.363413       0.057669945    29.224841      15.974425    
     99550   199.1          286.57534      133630.29     -807631.91     -9817.4733      0.36342025     0.057728217    29.232269      15.627132    
     99560   199.12         279.7149       133191.07     -807633.18     -9743.1737      0.36342736     0.057290204    29.260974      15.279838    
     99570   199.14         275.68414      131947.32     -807634.93     -9667.6805      0.36343432     0.056845212    29.236042      14.932546    
     99580   199.16         276.14396      131904.07     -807633.7      -9707.327       0.36344114     0.057077259    29.233827      14.585256    
     99590   199.18         275.46982      132844.48     -807632.03     -9756.0191      0.36344782     0.057362505    29.179273      14.237969    
     99600   199.2          277.20728      132264.75     -807635.02     -9666.1314      0.36345435     0.056832971    29.183395      13.890683    
     99610   199.22         275.69267      133084.85     -807634.67     -9667.1904      0.36346074     0.056838198    29.224781      13.543396    
     99620   199.24         281.66908      132782.06     -807632.48     -9763.1571      0.36346699     0.057401447    29.263995      13.196108    
     99630   199.26         283.09945      134613.72     -807630.62     -9827.4646      0.3634731      0.057778566    29.225205      12.848823    
     99640   199.28         279.40363      132501.43     -807633.27     -9723.1671      0.36347906     0.057164432    29.232622      12.501539    
     99650   199.3          286.55611      133151.95     -807633.96     -9729.908       0.36348487     0.057203148    29.237928      12.154256    
     99660   199.32         280.94433      131862.11     -807632.63     -9749.6557      0.36349055     0.057318352    29.185685      11.806975    
     99670   199.34         283.40606      134436.84     -807631.61     -9789.3431      0.36349608     0.057550799    29.201703      11.459695    
     99680   199.36         281.00063      130845.22     -807636.14     -9633.9363      0.36350147     0.056636335    29.254386      11.112414    
     99690   199.38         285.02391      133021.18     -807634.91     -9687.6192      0.36350671     0.056951107    29.241057      10.765135    
     99700   199.4          273.33053      131122.74     -807632.09     -9727.9338      0.36351181     0.057187304    29.223618      10.417857    
     99710   199.42         284.71958      133914.22     -807631.67     -9789.904       0.36351677     0.057550821    29.210013      10.070581    
     99720   199.44         282.31911      131520.28     -807634.84     -9677.8227      0.36352158     0.056891188    29.265723      9.7233042    
     99730   199.46         287.9571       134134.54     -807633.29     -9748.2959      0.36352625     0.057304729    29.25545       9.3760286    
     99740   199.48         289.80085      133321.95     -807632.69     -9778.2986      0.36353078     0.057480383    29.258218      9.028754     
     99750   199.5          279.54287      134945.33     -807630.36     -9804.9026      0.36353516     0.057636075    29.265496      8.6814803    
     99760   199.52         289.08705      132197.35     -807635.62     -9678.4601      0.3635394      0.056892146    29.263211      8.3342078    
     99770   199.54         279.94694      132848.56     -807633.85     -9693.7505      0.3635435      0.056981384    29.257614      7.9869365    
     99780   199.56         276.11229      131942.6      -807632.16     -9734.3676      0.36354745     0.057219515    29.250071      7.6396665    
     99790   199.58         283.38663      132986.52     -807632.52     -9753.4369      0.36355126     0.057331005    29.24951       7.2923977    
     99800   199.6          280.65986      131867        -807634.4      -9680.9069      0.36355493     0.056904098    29.275872      6.9451292    
     99810   199.62         283.54682      133461.34     -807633.18     -9734.4916      0.36355845     0.057218513    29.232365      6.5978629    
     99820   199.64         292.59054      132940.24     -807632.8      -9791.2498      0.36356183     0.057551598    29.206188      6.2505982    
     99830   199.66         287.26386      134087.27     -807632.09     -9789.5333      0.36356507     0.057540996    29.220433      5.9033342    
     99840   199.68         278.58718      132764.47     -807633.92     -9695.1477      0.36356816     0.056985731    29.192998      5.5560717    
     99850   199.7          279.01422      132529.37     -807633.81     -9703.6207      0.36357111     0.05703507     29.20996       5.2088099    
     99860   199.72         277.71421      132655.45     -807632.1      -9757.9149      0.36357392     0.057353753    29.213601      4.8615489    
     99870   199.74         288.91741      131468.17     -807634.67     -9729.2218      0.36357658     0.057184686    29.245393      4.5142885    
     99880   199.76         283.99018      133103.53     -807635.4      -9685.6577      0.3635791      0.056928238    29.22987       4.1670294    
     99890   199.78         276.66997      132561.49     -807633.69     -9713.8076      0.36358148     0.057093318    29.201893      3.8197716    
     99900   199.8          290.1483       133988.77     -807632.33     -9820.0673      0.36358371     0.057717509    29.197588      3.4725149    
     99910   199.82         284.7055       132176.47     -807633.89     -9752.7911      0.3635858      0.057321764    29.234615      3.1252587    
     99920   199.84         278.98026      133535.64     -807634.15     -9720.1781      0.36358775     0.057129776    29.221423      2.7780037    
     99930   199.86         276.36749      132027.04     -807635.06     -9687.9674      0.36358955     0.056940177    29.198535      2.4307499    
     99940   199.88         275.21524      134055.87     -807631.99     -9783.7838      0.36359121     0.057503067    29.236669      2.0834968    
     99950   199.9          280.46044      130656.01     -807636.65     -9665.6259      0.36359273     0.056808371    29.26595       1.7362446    
     99960   199.92         278.49813      133310.07     -807635.31     -9700.1056      0.3635941      0.057010805    29.269761      1.3889934    
     99970   199.94         273.50751      130807.08     -807634.26     -9720.8709      0.36359533     0.057132657    29.211938      1.0417436    
     99980   199.96         273.16847      134606.82     -807631.3      -9815.7928      0.36359641     0.057690371    29.254978      0.69449463   
     99990   199.98         282.07399      131952.27     -807635.79     -9715.9735      0.36359736     0.057103555    29.257291      0.34724677   
    100000   200            273.88584      134905        -807633.3      -9759.9517      0.36359816     0.057361901    29.244043      0            
Loop time of 3472.46 on 32 procs for 100000 steps with 1080 atoms

Performance: 4.976 ns/day, 4.823 hours/ns, 28.798 timesteps/s, 31.102 katom-step/s
61.7% CPU use with 32 MPI tasks x 1 OpenMP threads

MPI task timing breakdown:
Section |  min time  |  avg time  |  max time  |%varavg| %total
---------------------------------------------------------------
Pair    | 2620.3     | 2814.4     | 3016       | 190.7 | 81.05
Neigh   | 0.0016631  | 0.0017777  | 0.0019424  |   0.2 |  0.00
Comm    | 376.46     | 577.92     | 772.13     | 420.8 | 16.64
Output  | 2.3771     | 2.3854     | 2.3915     |   0.2 |  0.07
Modify  | 70.205     | 70.639     | 70.866     |   1.9 |  2.03
Other   |            | 7.079      |            |       |  0.20

Nlocal:          33.75 ave          41 max          27 min
Histogram: 3 3 4 3 3 5 3 3 1 4
Nghost:        1049.75 ave        1062 max        1036 min
Histogram: 3 1 2 6 2 5 2 5 5 1
Neighs:              0 ave           0 max           0 min
Histogram: 32 0 0 0 0 0 0 0 0 0
FullNghs:      5318.81 ave        6512 max        4195 min
Histogram: 3 4 3 3 3 5 4 2 1 4

Total # of neighbors = 170202
Ave neighs/atom = 157.59444
Neighbor list builds = 4
Dangerous builds = 0

Total wall time: 1:01:26
