
units		metal
atom_style	atomic

read_data ${STRUCTURE}.data
read_data BaTiO3-sc333.data
Reading data file ...
  orthogonal box = (0 0 0) to (11.898253 11.898253 12.912076)
  2 by 4 by 4 MPI processor grid
  reading atoms ...
  135 atoms
  read_data CPU = 0.004 seconds
replicate $L $L $L
replicate 2 $L $L
replicate 2 2 $L
replicate 2 2 2
Replication is creating a 2x2x2 = 8 times larger system...
  orthogonal box = (0 0 0) to (23.796507 23.796507 25.824152)
  2 by 4 by 4 MPI processor grid
  1080 atoms
  replicate CPU = 0.003 seconds

pair_style allegro
pair_coeff	* * ${MODEL}.pth Ba Ti O
pair_coeff	* * BaTiO3-E0.pth Ba Ti O
mass 1 137.3
mass 2 47.9
mass 3 15.9994

timestep 0.002
compute polarization all allegro polarization 3
compute allegro will evaluate the quantity polarization of length 3 (src/compute_allegro.cpp:53)
compute polarizability all allegro polarizability 9
compute allegro will evaluate the quantity polarizability of length 9 (src/compute_allegro.cpp:53)

thermo_style custom pe fmax fnorm spcpu cpuremain

variable efield equal 1e-2*36.36
fix born all addbornforce 0.0 0.0 ${efield}
fix born all addbornforce 0.0 0.0 0.3636

thermo 10
min_style fire
#minimize 0.0 1e-6 100 100
velocity all create ${TEMP} ${SEED} dist gaussian rot yes mom yes
velocity all create 350 ${SEED} dist gaussian rot yes mom yes
velocity all create 350 31553 dist gaussian rot yes mom yes
fix nvt all nvt temp ${TEMP} ${TEMP} $(100*dt)
fix nvt all nvt temp 350 ${TEMP} $(100*dt)
fix nvt all nvt temp 350 350 $(100*dt)
fix nvt all nvt temp 350 350 0.2000000000000000111
run 5000
Neighbor list info ...
  update: every = 1 steps, delay = 0 steps, check = yes
  max neighbors/atom: 2000, page size: 100000
  master list distance cutoff = 8
  ghost atom cutoff = 8
  binsize = 8, bins = 3 3 4
  1 neighbor lists, perpetual/occasional/extra = 1 0 0
  (1) pair allegro/kk, perpetual
      attributes: full, newton on, kokkos_device
      pair build: full/bin/kk/device
      stencil: full/bin/3d
      bin: kk/device
Per MPI rank memory allocation (min/avg/max) = 3.516 | 3.516 | 3.516 Mbytes
    PotEng          Fmax          Fnorm          S/CPU         CPULeft    
-807708.29      1.5952006      37.042647      0              0            
-807644.66      3.6646032      45.305538      2.6667297      1871.2067    
-807632.56      2.704024       36.229588      25.848012      1030.0608    
-807603.37      3.7321996      38.985156      25.85672       749.39927    
-807600.99      4.3960149      51.005089      25.772169      609.03248    
-807566.28      5.0096168      41.560412      25.735083      524.71256    
-807598.91      3.081582       39.936974      25.856379      468.21967    
-807642.42      3.4407892      35.523119      25.812763      427.80314    
-807682.16      2.8508933      35.366921      25.801567      397.40422    
-807665.63      3.1482676      34.977685      25.778883      373.6931     
-807648.19      3.0625376      36.069017      25.834667      354.60558    
-807657.27      2.5582021      28.336154      25.806538      338.93691    
-807625.78      2.9996321      31.543359      25.801343      325.81824    
-807585.01      3.2293606      40.958287      25.836494      314.63846    
-807563.68      3.0387353      39.304009      25.869913      304.98315    
-807629.24      3.167376       34.443705      25.829098      296.58342    
-807649.9       3.8426693      32.720989      25.796383      289.20011    
-807662.93      3.1715155      34.7942        25.801785      282.63752    
-807640.18      5.2382888      46.828442      25.799535      276.76194    
-807676.4       2.8175141      37.523304      25.757463      271.48007    
-807638.99      3.9351873      40.868969      25.76524       266.68476    
-807616.01      3.241363       39.693158      25.85277       262.2792     
-807556.93      4.5641209      47.481599      25.868595      258.23385    
-807601.23      4.2134717      50.172507      25.837035      254.51644    
-807608.71      4.3513085      39.892506      25.768528      251.09696    
-807638.67      3.3716952      36.389903      25.858728      247.89429    
-807637.22      5.4101555      45.80797       25.821924      244.91828    
-807678.72      3.1895692      38.079573      25.769901      242.14772    
-807660.37      3.1452357      35.53249       25.718923      239.5603     
-807636.37      3.1792698      33.038106      25.836317      237.09581    
-807605.4       3.4026617      34.9364        25.864315      234.76327    
-807602.42      3.6075904      42.340168      25.82035       232.56622    
-807593.73      3.424062       38.193318      25.742329      230.49944    
-807604.66      3.2343493      34.743197      25.828152      228.51613    
-807635.33      3.4533377      32.085055      25.855179      226.62115    
-807668.77      3.2322852      33.708743      25.812609      224.82083    
-807672.49      3.0661348      34.568733      25.69495       223.12187    
-807641.71      4.8560565      39.770201      25.778725      221.47788    
-807644.91      3.3392601      32.449044      25.846302      219.88767    
-807619.89      5.3167824      35.966475      25.843886      218.35959    
-807600.15      3.8750938      44.31924       25.795036      216.897      
-807566.58      4.9968719      43.024574      25.857285      215.4764     
-807615.57      3.3229896      37.49214       25.841805      214.10755    
-807643.06      3.6421176      36.492314      25.817156      212.7883     
-807669.28      2.7479329      36.15181       25.822753      211.51054    
-807639.59      4.5983061      46.171058      25.897942      210.26099    
-807660.41      2.6513689      36.651457      25.948767      209.04151    
-807644.26      3.8938505      36.821764      25.97724       207.85346    
-807623.5       3.0776224      38.717579      25.981732      206.69824    
-807564.33      3.54768        43.197435      26.007613      205.57094    
-807592.13      3.4586939      44.432295      25.930862      204.48359    
-807617.62      3.4492033      37.188558      25.899399      203.42789    
-807648.96      3.4941678      34.84978       25.941367      202.39256    
-807636.78      4.0304118      42.493171      25.98699       201.37604    
-807664.06      2.8637123      36.327589      25.916345      200.39158    
-807661.08      2.6998842      35.927445      25.875888      199.43378    
-807641.15      3.0622342      33.814825      25.950169      198.4876     
-807597.28      3.5798876      37.36935       25.993737      197.55609    
-807593.31      4.1599408      39.551268      26.017311      196.64077    
-807598.74      3.5016855      41.417045      25.857276      195.76123    
-807613.3       3.9046804      35.1247        25.921337      194.89111    
-807629.46      3.3329921      34.428088      26.008237      194.0276     
-807654.44      3.2404754      35.748801      26.009966      193.17935    
-807670.31      2.7458145      36.256726      25.918006      192.35529    
-807646.04      3.6880582      37.544198      25.97242       191.53942    
-807629.57      2.6008941      34.668315      25.999273      190.73414    
-807612.32      4.2784737      36.666056      26.015845      189.94       
-807602.4       3.9877082      44.65092       25.963754      189.16308    
-807579.33      3.984315       40.68495       25.934906      188.4004     
-807603.34      3.0405885      38.734638      26.015491      187.64119    
-807637.62      3.6979509      37.11691       25.992265      186.8948     
-807665.98      2.9385887      38.00184       25.920924      186.16499    
-807648.92      4.2867934      41.330874      25.930435      185.4439     
-807644.6       3.5027421      37.964848      25.986745      184.72712    
-807639.14      4.2443784      36.706532      25.98384       184.01955    
-807625.51      3.6643516      38.517087      25.963467      183.3223     
-807578.58      3.9480855      40.222818      25.962869      182.63331    
-807580.69      3.6677485      41.763879      25.959682      181.95247    
-807617.6       3.5849157      34.788439      25.925167      181.28199    
-807651.79      2.7356534      34.630853      25.931412      180.61822    
-807644.4       3.8302875      37.940258      25.963156      179.95893    
-807651.14      3.8452689      37.56325       25.951114      179.30733    
-807659.45      4.1436718      35.212912      25.930637      178.66378    
-807644.39      3.7431515      33.650267      25.927876      178.02665    
-807603.31      3.1342346      36.36667       25.95707       177.39335    
-807584.28      4.1821169      39.761399      25.962172      176.76553    
-807597.65      3.8407237      40.834587      25.902772      176.1476     
-807621.73      3.1077397      34.340426      25.883775      175.53634    
-807632.38      4.237073       35.246168      25.981832      174.92337    
-807646.77      3.8998348      36.881521      26.000307      174.31426    
-807665.39      3.2246506      36.246868      25.931534      173.71479    
-807654.08      2.9784743      35.335939      25.940799      173.1194     
-807629.45      3.0887933      34.888337      25.997404      172.52485    
-807606.33      3.6584259      36.011475      26.024139      171.93308    
-807604.15      4.2708985      42.172135      25.918381      171.3525     
-807593.23      3.8020618      39.0084        25.927012      170.77548    
-807608.8       5.1692152      37.167364      25.972048      170.19962    
-807631.36      4.028539       36.63483       25.96576       169.62809    
-807660.82      2.8515887      36.781077      25.97453       169.05983    
-807655.63      3.1489438      37.332192      25.926951      168.49813    
-807642.3       4.0649311      36.72744       25.93167       167.93967    
-807630.84      3.9076575      35.582031      25.967422      167.38254    
-807624.2       3.4096685      37.630268      25.938721      166.83044    
-807593.34      3.5410061      38.580144      25.881103      166.28488    
-807584.56      3.327892       40.294269      25.924768      165.73991    
-807611.68      3.5211456      35.961157      25.927683      165.19781    
-807649.99      3.8557063      34.866019      25.896696      164.66037    
-807653.03      3.4847567      36.077188      25.890585      164.1261     
-807645.85      4.1771165      38.151345      25.980285      163.58973    
-807649.71      3.931579       35.168908      25.984727      163.0559     
-807643         4.1412053      33.947806      25.922374      162.52806    
-807612.77      3.0792587      35.702427      13.259507      163.29387    
-807580.95      4.314504       39.478766      18.211841      163.32208    
-807593.78      3.0443822      39.108654      23.334066      162.92726    
-807625.1       3.2890503      35.437111      25.910717      162.38754    
-807640.29      2.9811274      34.091416      25.928195      161.84964    
-807640.46      4.3395287      38.568092      13.110668      162.56254    
-807657.19      3.3556447      36.564898      8.2312093      164.73034    
-807649.25      3.5864471      37.200719      8.3770672      166.77232    
-807634.41      3.0523403      34.477077      25.932699      166.17258    
-807596.51      5.3632972      38.399442      25.963208      165.57497    
-807596.67      3.7494593      40.735602      25.898897      164.98386    
-807598.05      4.4210567      39.326035      22.884394      164.55371    
-807620.2       2.9529741      35.223458      19.406711      164.36346    
-807626.55      4.4766749      37.581477      22.121984      163.97618    
-807653.81      4.0054484      36.262691      20.646666      163.68478    
-807654.99      4.068824       36.853209      23.915438      163.19381    
-807645.9       2.7081303      34.798885      25.79603       162.61445    
-807619.52      4.2368417      36.939915      25.941175      162.0318     
-807615.43      3.2172855      36.3563        25.94928       161.45185    
-807598.61      3.974577       39.470579      25.916256      160.87629    
-807594.77      3.5827732      39.462875      25.89819       160.30438    
-807608.52      5.6174442      36.795703      25.92275       159.73428    
-807643.41      3.2435588      34.071562      25.932647      159.16653    
-807653.45      4.2651652      36.300378      25.915506      158.6022     
-807648.5       3.8026827      36.829674      25.934714      158.03975    
-807639.92      3.9474195      35.749342      25.92827       157.48015    
-807633.89      4.1788256      35.039566      25.895066      156.9244     
-807616.22      3.0103717      36.807277      25.90767       156.37061    
-807587.53      3.5866549      39.440123      25.918747      155.81881    
-807592.71      2.9166176      38.859776      25.969598      155.26744    
-807624.08      3.2297646      35.049513      25.795793      154.72504    
-807646.67      2.8555763      33.924162      25.891844      154.18118    
-807644.24      3.9936665      37.68783       25.965072      153.63682    
-807648.53      2.8616306      36.166567      25.881992      153.09772    
-807647.3       3.1594117      35.017586      25.88304       152.56069    
-807637.54      3.1901631      34.154386      25.871157      152.02615    
-807598.77      3.5444085      37.159487      25.873199      151.49356    
-807592.84      3.1193788      39.023802      25.926665      150.96104    
-807603.76      3.2899592      37.296752      25.902102      150.43135    
-807629.86      2.738753       34.063086      25.925397      149.90277    
-807633.16      3.3503435      35.546743      25.937194      149.37568    
-807648.05      2.7090945      35.695316      25.846545      148.85355    
-807653.5       4.3641534      35.997102      25.923867      148.33056    
-807648.4       2.8783538      34.77408       25.848071      147.8119     
-807619.82      3.7758595      36.027887      25.893666      147.29343    
-807605.49      2.9464987      36.9027        25.918259      146.77584    
-807601.55      3.2956307      38.547551      25.928486      146.2596     
-807606.04      3.2055131      37.766907      25.900603      145.74591    
-807615.8       3.1660921      34.804192      25.956712      145.23203    
-807639.22      3.4658319      33.858759      25.922393      144.72085    
-807654.12      2.4604413      35.440176      25.889382      144.21225    
-807649.73      3.0149593      35.681471      25.884753      143.70532    
-807636.14      3.3928066      35.891924      25.917296      143.19886    
-807624.5       3.1543809      34.928288      25.920547      142.69377    
-807612.81      3.4941814      37.5958        25.925311      142.18999    
-807596.02      3.3362271      39.474516      25.922744      141.6877     
-807600.47      3.428096       37.786559      25.899186      141.18751    
-807620.5       3.5443383      35.533047      26.019233      140.68516    
-807647.6       3.2430327      34.353176      25.960711      140.1859     
-807647.22      3.5153118      36.371001      25.952293      139.68822    
-807644.09      2.9690703      36.336154      25.931288      139.19246    
-807639.1       3.8778164      35.279461      25.934041      138.6979     
-807631.69      3.1358165      35.072599      25.881818      138.20608    
-807603.55      3.9013992      37.086164      25.914674      137.71454    
-807591.73      3.6316566      39.099367      25.909         137.22437    
-807604.15      3.3756487      37.41318       25.864808      136.7366     
-807631.68      2.9860338      35.181926      25.863944      136.25       
-807639.69      4.3136016      35.69484       25.892643      135.76374    
-807642.18      3.3232659      36.695618      25.885425      135.2788     
-807647.37      4.6077034      36.766801      25.910795      134.79427    
-807644         3.1038403      34.926069      25.849469      134.31245    
-807620.72      3.2476516      35.302601      25.876401      133.83098    
-807598.26      3.8927872      37.633856      25.916681      133.34949    
-807599.35      3.0875611      37.79491       25.929368      132.86873    
-807611.69      2.8821846      36.648032      25.920735      132.38921    
-807625.53      2.9424279      34.894007      25.924236      131.91061    
-807634.74      4.5434415      36.113403      25.929447      131.43288    
-807648.61      3.4920079      35.845176      25.870678      130.95757    
-807648.48      3.080653       35.675422      25.848895      130.48375    
-807635.56      2.8926983      34.768202      25.856536      130.01065    
-807612.21      3.5786942      37.231578      25.904748      129.53729    
-807607.38      3.0925448      36.976265      25.864351      129.06581    
-807599.93      3.4185658      38.805275      25.925602      128.59375    
-807606.88      3.0754156      37.250241      25.932472      128.12243    
-807620.67      3.7791107      35.652472      25.926424      127.65212    
-807642.7       2.9559374      35.481155      25.948446      127.18217    
-807647.74      3.1325036      36.664311      25.858208      126.71515    
-807640.6       3.1870584      36.240738      25.833374      126.2495     
-807627.92      3.2949924      35.564372      25.876583      125.78367    
-807624.96      2.5933572      34.719275      25.934867      125.31732    
-807605.4       3.2966747      37.573059      25.925992      124.85198    
-807596.38      3.1184152      38.792235      25.928363      124.38737    
-807606.93      3.4955638      36.084793      25.951018      123.92305    
-807631.85      3.405643       34.648319      25.925536      123.46005    
-807640.87      2.8262024      35.29882       25.847724      122.99948    
-807642.5       4.0512989      35.924627      25.893908      122.53864    
-807638.24      4.4537241      36.567556      25.913112      122.07811    
-807637.55      3.4635215      34.4551        25.909553      121.61838    
-807620.8       2.9298521      35.516939      25.927039      121.15899    
-807600.65      3.6598961      37.750939      25.941201      120.70001    
-807598.86      3.7288447      38.705959      25.917169      120.24222    
-807618.26      3.4145542      35.807081      25.917915      119.78509    
-807629.48      3.0231121      35.675831      25.91594       119.32867    
-807637.96      4.1569417      35.936843      25.930809      118.87261    
-807644.48      3.643106       35.946501      25.928607      118.41725    
-807645.24      3.0012115      35.189551      25.932378      117.96246    
-807635.5       3.0087738      34.586604      25.92456       117.50847    
-807611.27      3.2432548      36.361144      25.926766      117.05505    
-807605.27      3.3604867      37.046835      25.941826      116.60197    
-807604.16      4.3222253      38.053739      25.928767      116.14975    
-807618.31      3.0606096      35.876552      25.925931      115.69818    
-807625.52      3.500328       36.162776      25.925438      115.24722    
-807643.21      3.0944662      34.972558      25.96816       114.79605    
-807646.66      3.2576002      35.407987      25.927715      114.34622    
-807643.81      2.9584569      35.036924      25.922082      113.89705    
-807625.62      2.9999969      35.471455      25.929677      113.44831    
-807617.39      2.7342203      35.938387      25.919238      113.00032    
-807605.99      2.665529       37.47913       25.906328      112.5531     
-807605.7       2.8430274      38.282607      25.893191      112.10664    
-807612.25      3.0470694      35.761372      25.915574      111.66032    
-807632.94      3.6000213      35.244754      25.913586      111.21455    
-807643.13      2.8809494      35.106493      25.932354      110.76898    
-807645.61      3.1748812      35.952602      25.92572       110.32403    
-807635.71      3.2012331      35.941003      25.928536      109.87955    
-807629.89      3.1572813      35.458478      25.914303      109.4358     
-807618.28      3.4237439      35.728684      25.934726      108.99221    
-807604.62      3.6533872      37.696668      25.932768      108.54913    
-807600.63      3.1168991      38.699579      25.942607      108.10638    
-807618.45      3.7161291      36.539008      25.917479      107.66452    
-807636.48      3.2707649      36.04744       25.925405      107.22299    
-807639.67      3.3818488      35.89829       25.925377      106.78193    
-807642.19      3.3020273      35.823115      25.931965      106.34122    
-807638.69      3.096892       35.490161      25.914533      105.90124    
-807632.56      3.2092373      34.440317      25.940012      105.4613     
-807610.85      2.9922957      35.590154      25.955106      105.02158    
-807601.5       3.227774       37.353765      25.946227      104.58243    
-807604.76      3.4503926      38.091662      25.90107       104.14441    
-807622.82      3.8286803      35.61906       25.926104      103.70643    
-807631.28      4.3883664      35.983088      25.935393      103.26872    
-807640.66      3.6211443      35.606764      25.943105      102.83133    
-807641.12      3.7055044      37.220736      25.904978      102.3949     
-807641.75      3.0279045      35.42132       25.822127      101.9601     
-807623.75      3.8081593      36.479969      25.88171       101.5248     
-807608.86      3.2830141      37.68741       25.891988      101.08974    
-807604.82      3.4855793      37.925151      25.919417      100.65467    
-807609.8       4.2406611      37.744935      25.935022      100.21976    
-807616.1       3.5694857      36.859801      25.91633       99.785498    
-807631.23      3.7229839      35.852149      25.925673      99.351482    
-807641.87      3.6686519      35.991836      25.910983      98.918042    
-807643.77      3.0680013      36.665863      25.858918      98.485685    
-807634.45      3.0397072      36.974043      25.863398      98.053616    
-807621.25      3.3044554      37.423068      25.90621       97.621314    
-807613.91      3.7400271      37.333789      25.926386      97.189093    
-807603.51      3.0338979      39.225502      25.865411      96.758037    
-807605.88      3.0311994      37.608782      25.915396      96.326655    
-807620.06      4.0147403      35.915591      25.932237      95.895395    
-807634.01      3.1264258      36.587764      25.918628      95.464654    
-807642.8       3.4174789      36.502287      25.921824      95.034207    
-807641.24      4.0655916      36.153405      25.927006      94.604025    
-807633.67      3.5942752      36.507781      25.925245      94.174195    
-807627.05      3.9814632      34.811596      25.887784      93.745163    
-807611.94      3.8677943      36.699089      25.920585      93.316035    
-807604.91      3.6250713      37.100219      25.935281      92.887043    
-807607.78      3.6804926      37.172056      25.925302      92.45849     
-807626.27      3.3393318      35.11409       25.907645      92.030464    
-807638.5       3.8780944      35.329499      25.886408      91.602999    
-807640.23      3.6104743      36.047462      25.869463      91.176035    
-807639.96      3.3378204      36.011867      25.886754      90.749156    
-807636.84      3.2214446      35.631254      25.898947      90.322424    
-807625.58      3.7973924      35.389279      25.887934      89.896111    
-807608.15      2.9720734      36.82767       25.91277       89.469794    
-807604.75      3.5045496      37.488339      25.923485      89.04364     
-807615.11      3.4628636      36.989926      25.932124      88.617674    
-807626.21      4.4480178      36.123241      25.985517      88.191388    
-807633.24      3.1771802      35.929681      25.922237      87.766103    
-807644.11      3.0953098      35.41406       25.922302      87.341093    
-807643.7       2.774721       35.580006      25.925926      86.916317    
-807634.68      2.9962089      35.105025      25.925818      86.491813    
-807620.14      3.1521688      35.570593      25.930025      86.067532    
-807610.36      3.314737       36.525214      25.918624      85.64364     
-807608.18      3.4816051      37.350318      25.876429      85.220461    
-807615.16      3.1757062      36.33012       25.876569      84.797533    
-807622.59      3.1567993      36.567535      25.891276      84.374698    
-807639.27      3.1101995      35.288025      25.884644      83.952182    
-807644.11      3.8119099      36.173288      25.919698      83.529548    
-807642.48      3.1484722      35.357895      25.929809      83.107059    
-807629.19      4.5586427      36.382935      25.918445      82.684934    
-807619.39      4.1391027      37.639088      25.919637      82.263041    
-807610.91      3.567023       37.54523       25.904528      81.84154     
-807605.67      3.3655501      38.363414      25.931514      81.420007    
-807612.7       3.8253684      37.226617      25.929753      80.998731    
-807629.06      4.4429057      36.139779      25.933632      80.577653    
-807640.26      3.5544391      36.744232      25.947769      80.156672    
-807642.75      3.4006361      36.777129      25.956339      79.735843    
-807635.55      3.2834765      37.191629      25.925137      79.315544    
-807630.86      3.5283145      36.80125       25.92941       78.895431    
-807619.9       4.0785139      36.352022      25.883067      78.475976    
-807604.76      3.3731534      38.787304      25.906084      78.056522    
-807604.81      3.4517737      39.118252      25.90389       77.637305    
-807616.41      3.0696783      37.83853       25.9231        77.218127    
-807632.04      3.8166554      36.181838      25.884723      76.799511    
-807636.64      4.092402       37.596471      25.914768      76.380832    
-807639.14      3.5915609      37.949856      25.931288      75.962216    
-807637.36      3.9864686      38.001585      25.915509      75.543949    
-807629.67      3.5908394      37.174864      25.920083      75.125847    
-807614.87      3.8614806      37.80011       25.918685      74.707963    
-807603.48      3.7601163      38.875499      25.932552      74.290161    
-807607.93      3.5815042      39.002082      25.927396      73.872606    
-807619.31      3.6055845      37.169049      25.937028      73.455169    
-807630.31      3.0873397      36.070233      25.927513      73.038011    
-807638.34      3.4121858      36.499304      25.965584      72.620734    
-807639.74      3.3877716      37.072088      25.942663      72.203845    
-807636.5       3.865208       37.567422      25.913628      71.787387    
-807624.46      3.47147        36.961538      25.854272      71.371599    
-807613.77      3.1471589      38.564556      25.859693      70.955945    
-807605.1       3.425417       38.626511      25.87714       70.54033     
-807609.58      3.7110986      38.950427      25.867299      70.124972    
-807616.65      3.5076664      37.836785      25.902077      69.709516    
-807632.86      3.988011       36.548199      25.915143      69.294139    
-807637.04      4.2115095      38.116151      25.874082      68.879255    
-807642.43      3.8444607      36.884536      25.879819      68.464499    
-807633.89      3.7904835      37.497476      25.917187      68.049632    
-807626.32      3.6625073      35.920057      25.90516       67.635029    
-807615.45      3.6203324      37.695359      25.920232      67.220486    
-807609.45      3.8437178      38.725671      25.921579      66.806104    
-807609.5       3.9710607      37.463318      25.928151      66.391845    
-807619.81      3.9753092      36.882562      25.928132      65.977756    
-807635.13      3.8138265      35.874481      25.92524       65.563855    
-807642.38      2.9944802      35.900015      25.929926      65.150088    
-807639.87      3.9254334      36.11653       25.864901      64.736942    
-807635.93      3.206144       35.503989      25.875582      64.323878    
-807628.44      3.5587391      35.872362      25.908033      63.910745    
-807615.05      3.1578248      36.25654       25.876901      63.497983    
-807607.26      3.7656005      37.177162      25.93349       63.084991    
-807610.89      4.240682       36.418084      25.923222      62.672228    
-807627.06      3.6188374      35.562543      25.924602      62.259611    
-807634.13      4.4587628      36.177707      25.932833      61.847095    
-807641.28      3.199999       35.596866      25.964096      61.434531    
-807639.79      3.4978663      36.214624      25.917009      61.022426    
-807637.58      3.1654868      34.941317      25.91358       60.610494    
-807622.43      3.1082371      36.114656      25.930668      60.198602    
-807613.9       3.7579294      36.165009      25.932969      59.786845    
-807605.82      4.2512289      37.622431      25.91299       59.37536     
-807615.62      3.5376727      37.23413       25.861094      58.964339    
-807626.84      4.9200911      36.304081      25.919801      58.553097    
-807636.85      3.7979784      35.778902      25.929574      58.141939    
-807639.69      3.6797482      35.98113       25.869327      57.731284    
-807642.67      3.194858       35.510361      25.861669      57.320808    
-807634.13      4.2677131      35.981401      25.908366      56.910192    
-807619.26      2.9818012      36.507653      25.924921      56.499617    
-807610.11      3.4978816      36.923744      25.931311      56.089143    
-807610.14      3.4218366      36.952645      25.882449      55.679083    
-807615.21      3.1614202      37.273834      25.895555      55.26908     
-807624.85      3.7445499      36.302573      25.931241      54.85901     
-807637.08      3.3067714      35.447965      25.958442      54.448924    
-807641.72      3.087974       36.391207      25.954838      54.038994    
-807639.47      3.3969655      35.492203      25.931908      53.629321    
-807628.99      2.9762778      36.441657      25.946832      53.2197      
-807620.16      3.134863       36.247046      25.934871      52.810273    
-807612.87      3.2997457      37.542094      25.899242      52.401161    
-807606.75      4.8167797      39.208841      25.868242      51.992334    
-807613.97      3.1777247      37.60427       25.910523      51.583409    
-807625.31      3.4925041      37.472658      25.910035      51.17461     
-807636.53      3.5581183      37.354634      25.893949      50.766015    
-807637.39      3.6193326      38.232193      25.899471      50.357511    
-807634.98      3.5217382      37.304638      25.923799      49.949007    
-807629.82      3.1761867      37.179467      25.921753      49.540633    
-807620.58      3.2615685      36.535458      25.932363      49.132328    
-807610.87      3.0367253      37.503905      25.924503      48.724181    
-807605.89      4.312933       37.934831      25.920842      48.316168    
-807618.38      3.2081504      36.996799      25.922917      47.908262    
-807626.4       4.6143921      37.014863      25.925855      47.500459    
-807635.32      3.2001408      36.389787      25.933195      47.092738    
-807635.68      4.8985462      37.576128      25.916873      46.685205    
-807638.41      3.2565348      36.314334      25.923367      46.277757    
-807629.08      4.6806096      37.177593      25.915973      45.870453    
-807617.21      4.3241229      37.26163       25.887119      45.463385    
-807608.49      4.7558842      38.015435      25.907902      45.056335    
-807611.13      3.6419865      37.781269      25.872721      44.649543    
-807615.79      5.1149101      37.14771       25.860655      44.242906    
-807629.08      3.2596005      35.717136      25.85838       43.836381    
-807635.67      3.9264212      36.186382      25.903871      43.429769    
-807642.86      3.6789898      35.223829      25.918952      43.023202    
-807635.21      4.6231481      36.706452      25.886496      42.616869    
-807628.78      3.6553902      35.405048      25.932222      42.210457    
-807617.63      2.7749978      36.712546      25.877387      41.804364    
-807609.53      4.2529453      38.686757      25.875881      41.398377    
-807609.49      3.8287772      38.981727      25.919205      40.992321    
-807616.89      4.1117234      38.292705      25.932391      40.586318    
-807627.99      3.4761852      36.686052      25.921762      40.180456    
-807636.1       3.899637       37.422299      25.883267      39.774836    
-807639.32      3.8400083      36.829386      25.934716      39.369125    
-807633.54      3.3411813      36.951814      25.919149      38.96357     
-807628.77      3.6833201      35.574273      25.920251      38.558108    
-807616.51      3.1547589      37.018066      25.895977      38.152829    
-807611.08      3.7938465      37.59702       25.881826      37.747692    
-807610.99      3.3677965      37.668505      25.902034      37.342579    
-807620.51      4.1300472      36.537838      25.867607      36.937675    
-807629.56      3.5543365      36.22731       25.897288      36.532762    
-807637.98      3.7042969      36.482719      25.901139      36.127928    
-807637.15      3.652545       36.427645      25.874076      35.723273    
-807633.31      3.3975773      36.321881      25.869182      35.318721    
-807627.7       3.7989949      36.485893      25.905802      34.914142    
-807615.91      3.4102696      37.225791      25.903374      34.509659    
-807611.13      3.2797724      37.205381      25.916812      34.105225    
-807613.51      3.6070069      37.839817      25.931363      33.700836    
-807622.03      3.2093058      36.076543      25.919299      33.296573    
-807629.07      4.2105924      36.532992      25.931156      32.892363    
-807636.87      3.3889047      36.165906      25.887933      32.488367    
-807637.76      4.8454742      37.036377      25.887095      32.084457    
-807631.94      4.3537877      37.198777      25.848059      31.680741    
-807627.47      3.7535855      36.348019      25.869747      31.277044    
-807616.12      3.3445444      37.132318      25.926343      30.873275    
-807614.13      4.4854143      37.266275      25.905493      30.469647    
-807612.89      3.1431064      36.744851      25.904823      30.066103    
-807624.88      3.6832712      35.512492      25.91147       29.662624    
-807629.13      3.12137        35.681186      25.905896      29.259242    
-807638.54      2.8090446      34.576534      25.867598      28.856037    
-807634.64      2.9287018      35.958131      25.901453      28.452826    
-807635.19      2.7321483      34.709419      25.883422      28.049738    
-807623.55      4.1141655      35.8714        25.917347      27.646647    
-807617.57      4.3540026      35.908149      25.887123      27.243707    
-807612.62      5.1540176      36.94871       25.913233      26.840784    
-807616.49      3.1914458      35.779966      25.910181      26.437946    
-807622.52      4.8859453      35.768345      25.938588      26.035122    
-807630.8       3.2141922      36.011923      25.923569      25.632411    
-807637.12      3.6755191      35.440997      25.915958      25.229793    
-807634.85      4.5631946      36.057577      25.909796      24.827265    
-807631.59      4.2241968      35.634748      25.929672      24.424771    
-807625.05      3.9786423      35.481378      25.930705      24.022352    
-807616.83      3.1438481      36.774701      25.899546      23.620071    
-807611.8       2.9204386      36.838939      25.880474      23.217901    
-807615.93      3.0981554      36.042399      25.882739      22.815797    
-807624.6       3.1144036      35.209784      25.875718      22.413777    
-807630.71      3.6307488      36.909806      25.879571      22.011821    
-807633.64      3.6488019      37.158427      25.839514      21.610006    
-807633.12      3.082886       37.322353      25.84714       21.208245    
-807630.68      3.5955222      36.724569      25.920345      20.806423    
-807622.86      3.2678672      36.826816      25.903248      20.404701    
-807614.07      4.2289875      36.988715      25.910771      20.003036    
-807612.68      3.1391442      37.314336      25.920603      19.601425    
-807616.81      3.7734157      36.616672      25.948756      19.19984     
-807624.86      2.8491374      35.402754      25.944298      18.798333    
-807631.03      3.3372134      35.77059       25.924137      18.396927    
-807633.23      3.064501       36.286992      25.92694       17.995586    
-807634.42      3.6902458      35.934188      25.926841      17.594314    
-807629.62      2.6577584      35.620908      25.915701      17.193126    
-807620.38      3.4906148      36.715331      25.908488      16.792014    
-807611.21      2.976067       37.659928      25.920214      16.390953    
-807614.27      3.0041834      37.331022      25.924024      15.989953    
-807617.5       3.5152914      37.242027      25.897129      15.589053    
-807624.68      3.61077        37.246777      25.910092      15.188201    
-807632.8       2.7714302      35.962612      25.904841      14.78742     
-807635.5       2.7026713      36.718369      25.922152      14.386682    
-807633.73      3.4082286      36.841027      25.934557      13.985995    
-807627.31      3.9924521      36.356122      25.922574      13.585386    
-807619.41      2.8254867      36.055316      25.920927      13.184842    
-807614.71      3.4202874      37.132676      25.926714      12.784355    
-807616.39      2.9310462      35.863741      25.920167      12.383938    
-807619.59      3.0552221      36.453918      25.925987      11.983577    
-807627.05      2.9485996      35.517747      25.871248      11.583329    
-807633.64      3.2253736      35.469699      25.879988      11.183131    
-807636.52      3.6033345      35.537579      25.88571       10.782986    
-807630.87      2.8915932      35.808305      25.856018      10.382925    
-807627.77      2.8303533      34.585139      25.840558      9.9829311    
-807621.71      3.2022614      34.277828      25.876181      9.5829654    
-807617.03      2.9262548      35.390073      25.86577       9.1830638    
-807617.43      2.53714        35.248843      25.919613      8.7831809    
-807622.13      3.347096       35.666528      25.878814      8.3833834    
-807628.8       2.966989       35.738179      25.908713      7.9836231    
-807632.92      3.2027635      36.154899      25.918229      7.5839145    
-807634.17      2.9754273      35.535951      25.936671      7.1842533    
-807632.03      2.9481018      35.313605      25.930424      6.7846537    
-807625.91      3.5066385      36.21218       25.933819      6.3851101    
-807621.2       2.9288143      35.423618      25.915541      5.9856325    
-807614.8       3.2340996      37.004018      25.928559      5.5862053    
-807619.77      4.1523905      35.382193      25.942009      5.1868292    
-807621.28      2.865215       36.004419      25.95241       4.7875062    
-807630.34      3.7260431      34.967661      25.88658       4.3882626    
-807633.29      3.8318345      35.255179      25.840717      3.9890859    
-807632.97      3.0255341      35.979081      25.870192      3.5899507    
-807632.26      2.4927518      34.492464      25.839238      3.1908742    
-807625.41      2.8692233      35.198229      25.88018       2.7918379    
-807619.66      2.9817899      36.351398      25.91692       2.3928462    
-807618.05      2.4392092      35.149367      25.915147      1.9939079    
-807617.11      3.3023264      36.748386      25.936356      1.5950197    
-807622.83      3.1022092      35.376982      25.911644      1.1961873    
-807631.3       3.1142689      34.974645      25.93707       0.79740528   
-807631.32      3.7182433      36.369051      25.877012      0.39867807   
-807632.55      3.6574234      36.503664      25.926446      0            
Loop time of 199.327 on 32 procs for 5000 steps with 1080 atoms

Performance: 4.335 ns/day, 5.537 hours/ns, 25.084 timesteps/s, 27.091 katom-step/s
68.2% CPU use with 32 MPI tasks x 1 OpenMP threads

MPI task timing breakdown:
Section |  min time  |  avg time  |  max time  |%varavg| %total
---------------------------------------------------------------
Pair    | 101.49     | 143.99     | 192.53     | 316.8 | 72.24
Neigh   | 0          | 0          | 0          |   0.0 |  0.00
Comm    | 4.1526     | 52.696     | 95.205     | 523.8 | 26.44
Output  | 0.039372   | 0.040114   | 0.042557   |   0.3 |  0.02
Modify  | 2.2437     | 2.2622     | 2.2735     |   0.6 |  1.13
Other   |            | 0.3394     |            |       |  0.17

Nlocal:          33.75 ave          48 max          21 min
Histogram: 8 8 0 0 0 0 0 8 0 8
Nghost:        1106.25 ave        1119 max        1092 min
Histogram: 8 0 8 0 0 0 0 0 8 8
Neighs:              0 ave           0 max           0 min
Histogram: 32 0 0 0 0 0 0 0 0 0
FullNghs:       5494.5 ave        7896 max        3378 min
Histogram: 8 8 0 0 0 0 0 8 0 8

Total # of neighbors = 175824
Ave neighs/atom = 162.8
Neighbor list builds = 0
Dangerous builds = 0

reset_timestep 0


variable interval equal 1000
thermo 10

variable nintervals equal $(v_PERIOD/v_interval)
variable nintervals equal 100
variable efield equal 1e-2*36.36*cos((step/${PERIOD})*2*3.14)
variable efield equal 1e-2*36.36*cos((step/100000)*2*3.14)
fix born all addbornforce 0.0 0.0 v_efield

variable Px equal f_born[1]+c_polarization[1]
variable Py equal f_born[2]+c_polarization[2]
variable Pz equal (f_born[3]+c_polarization[3])/vol
variable pe equal pe

fix aveP all ave/time 1 $(v_interval/2) ${interval} v_efield v_Pz v_pe f_born file Pz.${MODEL}.${STRUCTURE}.${TEMP}.$L.${ITER}
fix aveP all ave/time 1 500 ${interval} v_efield v_Pz v_pe f_born file Pz.${MODEL}.${STRUCTURE}.${TEMP}.$L.${ITER}
fix aveP all ave/time 1 500 1000 v_efield v_Pz v_pe f_born file Pz.${MODEL}.${STRUCTURE}.${TEMP}.$L.${ITER}
fix aveP all ave/time 1 500 1000 v_efield v_Pz v_pe f_born file Pz.BaTiO3-E0.${STRUCTURE}.${TEMP}.$L.${ITER}
fix aveP all ave/time 1 500 1000 v_efield v_Pz v_pe f_born file Pz.BaTiO3-E0.BaTiO3-sc333.${TEMP}.$L.${ITER}
fix aveP all ave/time 1 500 1000 v_efield v_Pz v_pe f_born file Pz.BaTiO3-E0.BaTiO3-sc333.350.$L.${ITER}
fix aveP all ave/time 1 500 1000 v_efield v_Pz v_pe f_born file Pz.BaTiO3-E0.BaTiO3-sc333.350.2.${ITER}
fix aveP all ave/time 1 500 1000 v_efield v_Pz v_pe f_born file Pz.BaTiO3-E0.BaTiO3-sc333.350.2.0

thermo_style custom step time temp press pe f_born v_efield v_Pz spcpu cpuremain

# dump 4a all custom 1000 dump.hyst.${MODEL}.${STRUCTURE}.${TEMP}.$L.${ITER}.bin id type xu yu zu fx fy fz
# dump_modify 4a sort id

fix nvt all nvt temp ${TEMP} ${TEMP} $(100*dt)
fix nvt all nvt temp 350 ${TEMP} $(100*dt)
fix nvt all nvt temp 350 350 $(100*dt)
fix nvt all nvt temp 350 350 0.2000000000000000111

run $(v_PERIOD)
run 100000
WARNING: non-constant efield is experimental, strongly distrust scalar/vector output (src/fix_addbornforce.cpp:193)
Per MPI rank memory allocation (min/avg/max) = 3.516 | 3.516 | 3.516 Mbytes
   Step          Time           Temp          Press          PotEng         f_born        v_efield         v_Pz          S/CPU         CPULeft    
         0   0              340.03503      128369.85     -807632.55     -293.30918      0.3636         0.055163181    0              0            
        10   0.02           362.11623      132536.28     -807631.05     -297.8837       0.36359993     0.05602353     29.803373      3355.0082    
        20   0.04           368.21428      136656.4      -807625.53     -304.37927      0.36359971     0.057245197    29.875602      3350.6081    
        30   0.06           350.62916      141974.02     -807616.22     -311.29573      0.36359935     0.058546047    29.85034       3349.8638    
        40   0.08           352.60415      143151.69     -807616.11     -311.7376       0.36359885     0.058629232    29.84428       3349.4917    
        50   0.1            355.22591      141173.26     -807618.24     -309.99879      0.36359821     0.058302312    29.803472      3350.0525    
        60   0.12           355.96575      135914.83     -807623.86     -304.59625      0.36359742     0.057286367    29.805817      3350.2707    
        70   0.14           340.73435      132195.69     -807627.88     -298.53473      0.36359649     0.056146502    29.799335      3350.434     
        80   0.16           347.86113      129071.55     -807634.08     -293.35027      0.36359541     0.055171605    29.733499      3351.402     
        90   0.18           346.01397      127976.4      -807634.64     -292.64153      0.36359419     0.055038493    29.73377       3352.0766    
       100   0.2            353.39423      132214.32     -807629.7      -298.75982      0.36359283     0.056189401    29.75034       3352.361     
       110   0.22           359.09165      136516.43     -807623.89     -305.55227      0.36359132     0.057467131    29.884987      3351.1577    
       120   0.24           353.37871      142010.36     -807617.68     -311.03945      0.36358968     0.058499405    29.879574      3350.1497    
       130   0.26           346.44972      142213.4      -807617.59     -310.37325      0.36358788     0.058374396    29.886927      3349.182     
       140   0.28           351.25955      141367.32     -807618.12     -310.65148      0.36358595     0.058427035    29.884887      3348.3214    
       150   0.3            356.12811      135264.78     -807625.28     -304.42509      0.36358387     0.05725631     29.889641      3347.4952    
       160   0.32           358.22081      132070.89     -807632.04     -298.04693      0.36358165     0.056057047    29.806097      3347.3153    
       170   0.34           340.52199      127747.51     -807635.37     -292.53526      0.36357928     0.055020763    29.831172      3346.9517    
       180   0.36           333.43641      130477.17     -807631.56     -295.61404      0.36357677     0.055600212    29.796476      3346.8078    
       190   0.38           349.58199      131804.32     -807630.09     -299.70505      0.36357412     0.056370075    29.813532      3346.5428    
       200   0.4            352.5435       137625.79     -807624.24     -306.23404      0.36357132     0.057598526    29.827493      3346.1927    
       210   0.42           336.58515      140693.43     -807618.88     -309.70652      0.36356838     0.058252123    29.827282      3345.8447    
       220   0.44           336.35414      142833        -807616.3      -312.50137      0.3635653      0.0587783      29.831943      3345.4743    
       230   0.46           341.98596      139321.71     -807620.98     -308.92431      0.36356207     0.058106007    29.807151      3345.2277    
       240   0.48           331.08372      136018.41     -807624.98     -303.56246      0.3635587      0.057098018    29.78807       3345.0634    
       250   0.5            333.60983      130247.17     -807632.24     -296.8639       0.36355519     0.055838605    29.78009       3344.9211    
       260   0.52           329.55402      129396.26     -807633.61     -295.09539      0.36355153     0.055506515    29.749301      3344.8973    
       270   0.54           328.43703      129116.2      -807632.63     -296.08536      0.36354773     0.055693308    29.809075      3344.6013    
       280   0.56           338.95499      133430.8      -807630.63     -299.66196      0.36354379     0.056366673    29.851267      3344.1336    
       290   0.58           344.85909      137445.08     -807625.67     -305.55382      0.3635397      0.057475584    29.887888      3343.534     
       300   0.6            337.11017      142002.66     -807618.37     -311.78259      0.36353547     0.058647917    29.901395      3342.9018    
       310   0.62           343.00377      141578.97     -807619.79     -311.23145      0.3635311      0.058544948    29.871819      3342.3953    
       320   0.64           334.9321       139980.47     -807622.08     -307.76328      0.36352658     0.057893278    29.848647      3341.9805    
       330   0.66           342.70376      134184.84     -807628.01     -302.81611      0.36352192     0.056963399    29.802362      3341.7277    
       340   0.68           333.16615      130580.19     -807632.13     -297.25486      0.36351712     0.055917997    29.803534      3341.4661    
       350   0.7            329.27861      129077.62     -807634.49     -294.1596       0.36351217     0.055336488    29.829034      3341.1186    
       360   0.72           328.61978      129193.1      -807633.18     -295.1815       0.36350708     0.055529501    29.819312      3340.8021    
       370   0.74           344.05939      133195.81     -807629.28     -301.00554      0.36350185     0.056625935    29.808262      3340.5182    
       380   0.76           347.83647      138313.7      -807622.28     -308.23078      0.36349647     0.057986024    29.85578       3340.0913    
       390   0.78           331.47622      141829.34     -807616.68     -311.13345      0.36349095     0.058532978    29.833739      3339.7324    
       400   0.8            342.19393      142172        -807618.31     -310.5385       0.36348529     0.058421961    29.825288      3339.3984    
       410   0.82           350.46591      139468.68     -807621.68     -307.87934      0.36347948     0.057922615    29.786329      3339.1709    
       420   0.84           358.68514      134735.23     -807627.31     -302.96803      0.36347353     0.056999564    29.798442      3338.9058    
       430   0.86           350.23454      130577.34     -807632.36     -296.29201      0.36346744     0.055744491    29.805029      3338.6203    
       440   0.88           327.64226      129975.2      -807631.31     -293.82958      0.3634612      0.055282157    29.821467      3338.2906    
       450   0.9            341.26348      130406.52     -807630.68     -296.22336      0.36345482     0.055733509    29.839347      3337.9162    
       460   0.92           364.28528      134435.91     -807628.02     -301.85909      0.3634483      0.056794874    29.828531      3337.57      
       470   0.94           334.51889      140446.2      -807617.4      -308.21944      0.36344163     0.057992639    29.803081      3337.2848    
       480   0.96           342.2567       142230.57     -807616.07     -310.53515      0.36343482     0.058429443    29.784061      3337.0418    
       490   0.98           361.05131      142132.64     -807618.31     -310.71449      0.36342786     0.058464307    29.804291      3336.7489    
       500   1              353.92862      138520.94     -807620.7      -307.2885       0.36342077     0.057820799    29.824244      3336.4094    
       510   1.02           354.75915      134051.07     -807626.28     -9655.5935      0.36341353     0.05677739     29.721543      3336.2965    
       520   1.04           346.12508      129898.3      -807631.63     -9443.7795      0.36340614     0.055532997    29.692907      3336.2367    
       530   1.06           331.86021      130022.79     -807631.03     -9398.0501      0.36339862     0.055265236    29.690173      3336.1723    
       540   1.08           347.96669      130063.71     -807630.35     -9492.2881      0.36339095     0.05582058     29.693061      3336.0919    
       550   1.1            352.21754      134795.89     -807625.35     -9671.1125      0.36338313     0.056873402    29.769422      3335.8459    
       560   1.12           354.94619      139277.06     -807620.51     -9838.6923      0.36337518     0.057860165    29.773793      3335.5881    
       570   1.14           352.49117      142584.87     -807616.94     -9939.0874      0.36336707     0.058451879    29.744079      3335.3858    
       580   1.16           359.33002      141604.71     -807617.93     -9941.1669      0.36335883     0.058465435    29.785412      3335.0991    
       590   1.18           353.30913      138206.79     -807620.69     -9823.375       0.36335044     0.057774017    29.75797       3334.8629    
       600   1.2            358.87826      132974.73     -807628.81     -9588.3545      0.36334191     0.05639312     29.747997      3334.6419    
       610   1.22           336.00274      130671.74     -807630.84     -9421.4521      0.36333324     0.05541282     29.76746       3334.3815    
       620   1.24           339.95256      130444.2      -807630.89     -9438.5887      0.36332442     0.055514957    29.781831      3334.0926    
       630   1.26           350.58795      130922        -807629.48     -9532.4024      0.36331546     0.056068124    29.80681       3333.7579    
       640   1.28           358.08824      136105.46     -807626.16     -9672.4366      0.36330636     0.056893209    29.811192      3333.4154    
       650   1.3            353.5937       139289.85     -807620.17     -9847.9805      0.36329711     0.057927231    29.79784       3333.0961    
       660   1.32           357.87906      142856.07     -807616.74     -9975.167       0.36328772     0.058676877    29.76798       3332.8271    
       670   1.34           353.98722      139944.29     -807618.25     -9912.9661      0.36327819     0.058312523    29.736876      3332.608     
       680   1.36           354.39949      138704.67     -807622.38     -9781.3556      0.36326851     0.057539864    29.736302      3332.3865    
       690   1.38           345.81803      131608.17     -807628.62     -9547.9515      0.36325869     0.056168358    29.708673      3332.2067    
       700   1.4            351.29312      130191.05     -807631.3      -9485.3124      0.36324873     0.055801397    29.717756      3332.0078    
       710   1.42           337.55924      127809.36     -807632.03     -9406.3262      0.36323863     0.055338267    29.720747      3331.8004    
       720   1.44           351.30789      132388.29     -807629.89     -9534.7706      0.36322838     0.056095499    29.767869      3331.5158    
       730   1.46           352.19401      134642.9      -807626.35     -9659.2043      0.36321798     0.056829201    29.764063      3331.2357    
       740   1.48           348.96873      141950.77     -807617.61     -9922.9911      0.36320745     0.058382864    29.73093       3331.0043    
       750   1.5            348.33998      140306.82     -807617.69     -9925.0372      0.36319677     0.058396619    29.744228      3330.7502    
       760   1.52           346.95074      142583.72     -807618.22     -9900.2854      0.36318595     0.058252721    29.775074      3330.4486    
       770   1.54           349.98742      135307.94     -807624.84     -9708.5965      0.36317498     0.057126559    29.70418       3330.2492    
       780   1.56           353.54019      133621.64     -807627.95     -9624.5536      0.36316387     0.056633773    29.738346      3329.9972    
       790   1.58           347.53231      128164.31     -807633.49     -9425.9328      0.36315262     0.055466748    29.777322      3329.6877    
       800   1.6            335.14763      130046.27     -807631.65     -9430.5413      0.36314122     0.055495608    29.774015      3329.3823    
       810   1.62           343.27262      130401.16     -807631.26     -9488.1269      0.36312968     0.055836254    29.741954      3329.1205    
       820   1.64           350.61783      136979.56     -807623.26     -9778.0792      0.363118       0.057544432    29.771291      3328.8166    
       830   1.66           347.3374       139529.13     -807620.4      -9862.3284      0.36310618     0.058042133    29.759343      3328.5282    
       840   1.68           346.18987      142933.68     -807618.1      -9931.195       0.36309421     0.058449356    29.764781      3328.2314    
       850   1.7            342.23222      139532.59     -807619.75     -9867.113       0.3630821      0.058074143    29.817325      3327.8646    
       860   1.72           358.72173      135719.07     -807625.65     -9754.0789      0.36306984     0.057410804    29.774684      3327.5539    
       870   1.74           344.29182      131254.8      -807629.7      -9562.1064      0.36305745     0.056282809    29.793277      3327.2188    
       880   1.76           330.45909      129199.87     -807632.54     -9413.8466      0.3630449      0.055412062    29.784061      3326.8953    
       890   1.78           334.36766      129915.44     -807632.26     -9440.859       0.36303222     0.055573005    29.782599      3326.5734    
       900   1.8            344.52206      131029.87     -807630.09     -9560.7108      0.36301939     0.056280493    29.802988      3326.2259    
       910   1.82           345.33367      137293.24     -807623.99     -9759.058       0.36300642     0.057450145    29.811018      3325.8688    
       920   1.84           345.81612      138582.42     -807621.54     -9842.4226      0.36299331     0.057942994    29.763679      3325.5696    
       930   1.86           340.18925      142403.93     -807617.66     -9940.7144      0.36298005     0.058523781    29.76384       3325.2695    
       940   1.88           338.27455      138693.05     -807619.87     -9865.2614      0.36296665     0.058081712    29.800166      3324.9255    
       950   1.9            351.009        136990.05     -807625.05     -9753.3113      0.36295311     0.057424749    29.823051      3324.5547    
       960   1.92           336.52522      130376.8      -807631.58     -9482.5158      0.36293942     0.055832487    29.787798      3324.2257    
       970   1.94           324.87269      131254.22     -807630.45     -9460.4952      0.36292559     0.055704953    29.777458      3323.9083    
       980   1.96           333.96785      128531.11     -807632.23     -9447.2865      0.36291162     0.05562932     29.700631      3323.6784    
       990   1.98           347.45349      133590.21     -807628.71     -9612.7356      0.3628975      0.056605751    29.714351      3323.4309    
      1000   2              350.37883      134758.33     -807626.12     -9707.4674      0.36288325     0.057165836    29.622611      3323.2846    
      1010   2.02           339.82541      141491.07     -807618.58     -309.18038      0.36286884     0.058265269    29.830315      3322.9042    
      1020   2.04           345.96508      140391.95     -807618.91     -309.57775      0.3628543      0.058342494    29.856545      3322.4962    
      1030   2.06           349.90384      140333.28     -807620.06     -308.57387      0.36283961     0.058155658    29.839341      3322.1081    
      1040   2.08           363.18691      133919.38     -807628.82     -301.44622      0.36282478     0.056814661    29.80969       3321.7528    
      1050   2.1            339.00888      132536.28     -807628.55     -298.01269      0.3628098      0.056169849    29.82484       3321.3817    
      1060   2.12           328.5372       130439.33     -807629.82     -294.98748      0.36279469     0.05560197     29.795571      3321.0421    
      1070   2.14           355.52027      130669.88     -807632.62     -295.57486      0.36277943     0.055715029    29.792279      3320.7061    
      1080   2.16           346.74568      134215.92     -807626.77     -299.85932      0.36276402     0.056525037    29.806295      3320.3555    
      1090   2.18           352.61947      137516.1      -807622.43     -304.78404      0.36274848     0.057455835    29.846712      3319.964     
      1100   2.2            356.57513      141965.8      -807618.23     -309.18104      0.36273279     0.058287248    29.871725      3319.5483    
      1110   2.22           352.05563      140190.35     -807617.95     -308.60847      0.36271695     0.058181847    29.82102       3319.1847    
      1120   2.24           358.31466      140401.57     -807620.25     -306.84991      0.36270098     0.057852855    29.868379      3318.7748    
      1130   2.26           357.5166       133391.86     -807626.7      -300.1837       0.36268486     0.056598537    29.859796      3318.3745    
      1140   2.28           347.25732      133315.09     -807627        -298.09776      0.3626686      0.056207759    29.826493      3318.0079    
      1150   2.3            351.37749      128353.57     -807633.2      -292.45043      0.36265219     0.055145424    29.838135      3317.6305    
      1160   2.32           351.85267      132074.55     -807629.39     -296.09759      0.36263564     0.055835691    29.803125      3317.2875    
      1170   2.34           378.15765      131401.29     -807630.09     -299.07524      0.36261895     0.056399788    29.808188      3316.9397    
      1180   2.36           351.55699      140660.02     -807618.15     -307.1428       0.36260212     0.057923863    29.843695      3316.5587    
      1190   2.38           361.87556      140191.29     -807619.16     -307.67771      0.36258514     0.058027458    29.813755      3316.2065    
      1200   2.4            356.75405      143986.9      -807616.21     -309.75082      0.36256802     0.058421201    29.857946      3315.8136    
      1210   2.42           363.71005      137419.01     -807621.55     -305.44537      0.36255076     0.057611906    29.882124      3315.3996    
      1220   2.44           361.70341      135299.37     -807625.1      -301.486        0.36253335     0.056867835    29.835803      3315.0289    
      1230   2.46           349.40519      129724.9      -807630.19     -294.7972       0.3625158      0.055608852    29.83249       3314.6618    
      1240   2.48           355.36704      130572        -807632.01     -293.76409      0.36249811     0.055416676    29.867744      3314.2638    
      1250   2.5            360.06949      131037.08     -807630.99     -295.55061      0.36248028     0.055756436    29.848772      3313.8835    
      1260   2.52           355.96823      135729.18     -807625.57     -300.5181       0.3624623      0.056696377    29.886896      3313.4705    
      1270   2.54           368.46073      138306.61     -807622.69     -305.29201      0.36244418     0.057599913    29.826089      3313.1117    
      1280   2.56           353.62109      141602.74     -807617.07     -308.93842      0.36242592     0.058290824    29.857853      3312.7258    
      1290   2.58           361.4854       141406.38     -807617.83     -309.39661      0.36240751     0.058380241    29.810409      3312.3815    
      1300   2.6            349.4371       139336.56     -807620.7      -305.04538      0.36238896     0.05756215     29.783268      3312.0605    
      1310   2.62           357.24225      134237.7      -807627.13     -299.82462      0.36237027     0.056579911    29.789675      3311.7338    
      1320   2.64           343.14708      130230.17     -807629.6      -295.55022      0.36235143     0.055776187    29.777731      3311.4171    
      1330   2.66           350.56097      129316.1      -807632.45     -293.91619      0.36233245     0.055470719    29.764001      3311.1116    
      1340   2.68           341.10651      132100.13     -807628.83     -296.45333      0.36231333     0.055952504    29.798566      3310.7769    
      1350   2.7            352.52701      134990        -807626.61     -300.50575      0.36229407     0.056720373    29.808461      3310.4341    
      1360   2.72           359.43064      138245.37     -807622.1      -306.18738      0.36227466     0.057795875    29.804992      3310.0942    
      1370   2.74           358.33746      140050.06     -807619.48     -308.9071       0.36225511     0.058312396    29.800129      3309.7583    
      1380   2.76           345.51411      141247.37     -807618.19     -308.61341      0.36223542     0.058260123    29.800135      3309.4225    
      1390   2.78           349.24865      137393.14     -807623.5      -304.03734      0.36221558     0.057399394    29.771502      3309.1095    
      1400   2.8            354.04645      132791.85     -807628.78     -299.6105       0.3621956      0.05656677     29.795819      3308.7769    
      1410   2.82           335.84817      129862.65     -807630.35     -295.70928      0.36217548     0.055833317    29.817642      3308.4271    
      1420   2.84           334.12081      130416.59     -807632.3      -293.62465      0.36215522     0.055442816    29.798429      3308.0924    
      1430   2.86           343.87867      131158.5      -807631.89     -295.52306      0.36213481     0.055804422    29.852132      3307.7162    
      1440   2.88           355.27431      134738.73     -807627.93     -301.15656      0.36211426     0.056871439    29.89376       3307.3086    
      1450   2.9            338.80955      138314.36     -807620.14     -306.79358      0.36209357     0.057939265    29.87549       3306.9159    
      1460   2.92           345.85239      141403.07     -807618.46     -309.4758       0.36207273     0.058449175    29.872         3306.5267    
      1470   2.94           335.68147      139873.29     -807618.92     -307.61523      0.36205176     0.058101145    29.858482      3306.1483    
      1480   2.96           349.42952      137481.14     -807624.1      -304.34616      0.36203064     0.05748705     29.858532      3305.7705    
      1490   2.98           336.18633      133322.73     -807627.2      -299.44415      0.36200937     0.056564446    29.847197      3305.4017    
      1500   3              337.27873      130073.62     -807631.77     -294.83482      0.36198796     0.055697046    29.806636      3305.0633    
      1510   3.02           354.17944      127702.17     -807636.12     -9371.1163      0.36196642     0.055324894    29.731776      3304.78      
      1520   3.04           340.09535      131808.73     -807630.63     -9483.0154      0.36194472     0.055988875    29.757154      3304.4774    
      1530   3.06           351.25636      135203.6      -807626.54     -9661.7804      0.36192289     0.057047767    29.80065       3304.1429    
      1540   3.08           344.29543      138331.13     -807620.96     -9808.9438      0.36190091     0.057920208    29.802951      3303.8066    
      1550   3.1            348.70283      140487.12     -807619.53     -9869.1954      0.36187879     0.058279546    29.784024      3303.4839    
      1560   3.12           341.93452      139607.57     -807620.49     -9805.95        0.36185653     0.057909632    29.758663      3303.1791    
      1570   3.14           347.51788      135961.31     -807624.03     -9716.035       0.36183412     0.057382186    29.704784      3302.9121    
      1580   3.16           342.87575      132649.65     -807628.11     -9561.2659      0.36181157     0.056471651    29.735073      3302.6229    
      1590   3.18           334.70781      129225.43     -807631.79     -9401.3275      0.36178888     0.05553049     29.730924      3302.3359    
      1600   3.2            347.854        130966.96     -807633        -9416.6501      0.36176605     0.055624506    29.75583       3302.0311    
      1610   3.22           343.39432      131681.87     -807629.07     -9523.112       0.36174307     0.056256953    29.769862      3301.7162    
      1620   3.24           361.5943       136045.61     -807625.78     -9704.8711      0.36171995     0.057334344    29.749678      3301.4148    
      1630   3.26           350.13093      139162.52     -807621.92     -9774.1036      0.36169669     0.057747068    29.680972      3301.16      
      1640   3.28           340.76045      142066.77     -807618.07     -9850.9845      0.36167329     0.05820506     29.719131      3300.8783    
      1650   3.3            348.17166      139150.2      -807620.67     -9799.3104      0.36164974     0.057903511    29.728955      3300.5892    
      1660   3.32           348.4944       136014        -807624.39     -9677.2157      0.36162605     0.057185807    29.75217       3300.284     
      1670   3.34           348.74182      132006.44     -807629.6      -9506.274       0.36160222     0.056179359    29.714912      3300.0033    
      1680   3.36           330.29954      130596.87     -807630.05     -9402.9856      0.36157824     0.055572639    29.709382      3299.7256    
      1690   3.38           351.45963      130195.99     -807631.51     -9447.2036      0.36155413     0.055837697    29.770672      3299.4069    
      1700   3.4            351.58031      133252.49     -807628.49     -9539.664       0.36152987     0.056387967    29.817878      3299.0572    
      1710   3.42           351.02705      135631.66     -807624.68     -9656.3515      0.36150546     0.057081548    29.754754      3298.7486    
      1720   3.44           352.45177      139192.48     -807620.96     -9777.4101      0.36148092     0.057801085    29.741324      3298.4483    
      1730   3.46           354.11499      140716.7      -807619.23     -9834.1422      0.36145623     0.058140439    29.788492      3298.1174    
      1740   3.48           352.40797      138389.91     -807620.78     -9773.6745      0.3614314      0.057786918    29.812073      3297.7714    
      1750   3.5            355.50897      135367.12     -807625.12     -9641.3844      0.36140643     0.05700869     29.758929      3297.4592    
      1760   3.52           354.49304      132260.42     -807629.01     -9506.3953      0.36138131     0.056214418    29.815462      3297.1111    
      1770   3.54           343.02432      131224.24     -807629.55     -9432.4408      0.36135605     0.055781       29.817207      3296.7621    
      1780   3.56           350.08991      131390.2      -807630.53     -9428.159       0.36133065     0.055759598    29.779911      3296.4365    
      1790   3.58           355.40971      133935.59     -807627.4      -9546.7246      0.36130511     0.056464805    29.768636      3296.1177    
      1800   3.6            345.25021      137898.03     -807621.24     -9694.6019      0.36127942     0.057343512    29.73763       3295.8178    
      1810   3.62           360.22359      140561.34     -807620.21     -9789.7281      0.3612536      0.057910323    29.746397      3295.5121    
      1820   3.64           354.25693      140579.16     -807618.59     -9810.171       0.36122763     0.058035424    29.780927      3295.1851    
      1830   3.66           362.07283      137876.92     -807621.42     -9748.7875      0.36120151     0.057676458    29.723012      3294.8931    
      1840   3.68           354.66811      135459.95     -807623.97     -9632.0721      0.36117526     0.056990081    29.730436      3294.5961    
      1850   3.7            346.06258      131850.84     -807627.74     -9470.1067      0.36114886     0.056035876    29.712316      3294.3095    
      1860   3.72           356.48602      130911.47     -807632.04     -9371.9762      0.36112232     0.0554593      29.716923      3294.0197    
      1870   3.74           345.8594       130415.25     -807629.62     -9401.8042      0.36109564     0.05563992     29.681532      3293.7504    
      1880   3.76           362.85184      134160.76     -807626.63     -9568.3131      0.36106881     0.056629528    29.691232      3293.4747    
      1890   3.78           365.27048      136633.15     -807623.56     -9675.9655      0.36104184     0.05727094     29.699775      3293.1933    
      1900   3.8            360.39822      140486.94     -807618.85     -9800.2889      0.36101474     0.058011152    29.753673      3292.8798    
      1910   3.82           361.84351      140567.99     -807618.58     -9813.4267      0.36098748     0.058093304    29.754659      3292.5655    
      1920   3.84           352.71976      139711.57     -807618.97     -9758.813       0.36096009     0.057774388    29.770732      3292.2417    
      1930   3.86           370.52294      134093.33     -807626.89     -9583.5405      0.36093255     0.056741063    29.776694      3291.9144    
      1940   3.88           345.10425      133639.75     -807627.3      -9454.292       0.36090487     0.055980117    29.74637       3291.6043    
      1950   3.9            350.37784      130455.53     -807631.1      -9357.2487      0.36087705     0.055409783    29.748348      3291.2928    
      1960   3.92           343.49352      132216.58     -807628.08     -9424.8382      0.36084909     0.055814345    29.746734      3290.9819    
      1970   3.94           373.05886      132992.83     -807628.94     -9531.427       0.36082098     0.056449966    29.740809      3290.6742    
      1980   3.96           362.06523      137664.66     -807622.21     -9699.8654      0.36079273     0.057452041    29.811009      3290.3269    
      1990   3.98           352.81675      141048.06     -807618.2      -9791.847       0.36076434     0.058001411    29.784871      3289.9943    
      2000   4              352.22387      141118.25     -807618.1      -9798.5214      0.36073581     0.058045537    29.759613      3289.6756    
      2010   4.02           360.01351      137563.75     -807621.69     -303.90998      0.36070713     0.05761529     29.877059      3289.2923    
      2020   4.04           341.25632      135065.54     -807624.32     -298.87858      0.36067831     0.056665964    29.820111      3288.9405    
      2030   4.06           347.22804      131290.77     -807630.25     -294.01444      0.36064935     0.055748221    29.81918       3288.5894    
      2040   4.08           350.84024      128741.1      -807632.88     -292.14643      0.36062025     0.055398498    29.807757      3288.2446    
      2050   4.1            349.40252      131441.92     -807629.82     -295.31804      0.36059101     0.056004458    29.835472      3287.885     
      2060   4.12           351.05029      134434.37     -807626.94     -298.77721      0.36056162     0.056665077    29.828293      3287.5295    
      2070   4.14           339.71339      138486.05     -807620.77     -303.53994      0.36053209     0.057573075    29.867916      3287.1531    
      2080   4.16           349.40772      140012.26     -807620.12     -305.77806      0.36050242     0.058002358    29.853356      3286.7848    
      2090   4.18           352.05821      140207        -807620.45     -306.07007      0.36047261     0.058062551    29.878131      3286.4039    
      2100   4.2            345.95422      137021.2      -807622.84     -302.97529      0.36044265     0.057480238    29.863157      3286.0311    
      2110   4.22           357.29252      133076.01     -807630.14     -297.44589      0.36041256     0.056435916    29.87186       3285.6543    
      2120   4.24           334.5587       130661.95     -807630.23     -294.31744      0.36038232     0.055847024    29.878642      3285.2743    
      2130   4.26           342.93189      130670.62     -807631.83     -293.97133      0.36035193     0.055786053    29.874946      3284.8966    
      2140   4.28           340.72363      131062.38     -807631.08     -294.56334      0.36032141     0.055903132    29.799947      3284.5579    
      2150   4.3            338.25597      135620.38     -807625.91     -299.40819      0.36029075     0.05682744     29.788936      3284.2248    
      2160   4.32           330.39242      137915.01     -807621.35     -303.00458      0.36025994     0.05751495     29.811376      3283.8803    
      2170   4.34           336.37224      140212.47     -807619.31     -305.86391      0.36022899     0.058062682    29.791279      3283.546     
      2180   4.36           359.88153      138825.51     -807623.43     -305.03552      0.36019789     0.057910426    29.766344      3283.2244    
      2190   4.38           338.46594      136840.84     -807624.13     -301.32442      0.36016666     0.057210842    29.789456      3282.891     
      2200   4.4            343.00789      133807.07     -807628.3      -297.68809      0.36013528     0.056525355    29.788068      3282.5583    
      2210   4.42           338.26676      130403.69     -807631.25     -294.02729      0.36010377     0.055835126    29.750319      3282.2444    
      2220   4.44           345.67628      131125.03     -807632.22     -293.96255      0.36007211     0.05582774     29.768981      3281.9209    
      2230   4.46           333.66502      131460.49     -807630.04     -294.45828      0.3600403      0.055926826    29.796908      3281.5836    
      2240   4.48           342.88715      136078.96     -807626.08     -299.44725      0.36000836     0.056879433    29.817708      3281.2361    
      2250   4.5            338.75031      137497.26     -807622.54     -302.37272      0.35997627     0.057440241    29.817261      3280.8889    
      2260   4.52           350.67922      140796.16     -807620.63     -305.72158      0.35994404     0.058081607    29.834987      3280.5332    
      2270   4.54           342.669        137387.28     -807622.15     -302.90865      0.35991167     0.057552376    29.83901       3280.1758    
      2280   4.56           358.14122      136360.43     -807625.5      -301.35325      0.35987916     0.057262024    29.875064      3279.8012    
      2290   4.58           344.8306       132405.76     -807628.11     -296.6558       0.35984651     0.056374547    29.887929      3279.4208    
      2300   4.6            346.04659      131989.69     -807629.15     -295.45185      0.35981371     0.056150875    29.864122      3279.0521    
      2310   4.62           342.78013      130411.92     -807631.75     -292.16543      0.35978077     0.05553137     29.884604      3278.674     
      2320   4.64           347.81517      133117.93     -807628.54     -295.63694      0.35974769     0.056196361    29.838064      3278.3182    
      2330   4.66           354.76073      135110.76     -807625.12     -299.81138      0.35971447     0.056995126    29.828883      3277.967     
      2340   4.68           353.55975      138457.33     -807621.24     -303.20616      0.35968111     0.057645832    29.861531      3277.6006    
      2350   4.7            350.12325      139041.39     -807621.18     -302.44451      0.3596476      0.057506383    29.843456      3277.2429    
      2360   4.72           353.01703      139869.45     -807621.54     -302.17243      0.35961396     0.057460025    29.817671      3276.8974    
      2370   4.74           349.11698      136938.64     -807621.9      -301.06753      0.35958017     0.057255303    29.85932       3276.5327    
      2380   4.76           368.18416      132936.02     -807628.99     -296.35182      0.35954624     0.056363813    29.866128      3276.1651    
      2390   4.78           351.95394      130736.96     -807630.7      -292.0932       0.35951216     0.055559122    29.847961      3275.8061    
      2400   4.8            349.45257      131845.04     -807628.91     -293.45795      0.35947795     0.055824024    29.834322      3275.4535    
      2410   4.82           347.06343      133817.74     -807625.24     -296.75715      0.35944359     0.056457021    29.844626      3275.0964    
      2420   4.84           359.56325      136344.73     -807623.76     -299.83242      0.35940909     0.057047557    29.838898      3274.7421    
      2430   4.86           355.31925      138486.63     -807621.6      -301.35764      0.35937446     0.057343279    29.816448      3274.3981    
      2440   4.88           364.34208      139422.9      -807621.25     -302.92236      0.35933967     0.057646598    29.804568      3274.0594    
      2450   4.9            346.29926      138576.14     -807618.44     -303.16462      0.35930475     0.057698308    29.781364      3273.7313    
      2460   4.92           369.26017      135109.98     -807625.84     -298.94986      0.35926969     0.056901707    29.774973      3273.4058    
      2470   4.94           350.49111      133392.3      -807627.71     -294.4471       0.35923448     0.056050152    29.749064      3273.0919    
      2480   4.96           359.08025      131261.86     -807630.37     -292.95916      0.35919913     0.055772399    29.778868      3272.7646    
      2490   4.98           355.84918      131837.91     -807628.06     -294.88751      0.35916364     0.056145057    29.802819      3272.4266    
      2500   5              354.81232      133947.64     -807626.52     -296.32288      0.35912801     0.056423943    29.777908      3272.0996    
[...]
     98740   197.48         341.24669      134943.42     -807623.13     -9666.9104      0.36236891     0.057007802    26.284959      43.950802    
     98750   197.5          347.56133      136068.3      -807623.93     -9667.8175      0.36238762     0.057010209    26.297743      43.602384    
     98760   197.52         358.22791      135462.35     -807626.45     -9636.5113      0.36240618     0.056822689    26.312763      43.253957    
     98770   197.54         362.96617      134322.9      -807627.15     -9635.8304      0.36242459     0.056815787    26.272559      42.905531    
     98780   197.56         352.29551      136215.87     -807624        -9688.792       0.36244287     0.057125184    26.264448      42.557099    
     98790   197.58         353.28086      134838.96     -807625.64     -9645.1421      0.362461       0.05686498     26.276257      42.208659    
     98800   197.6          348.57617      136770        -807624.37     -9665.0177      0.36247899     0.056979333    26.273933      41.860213    
     98810   197.62         344.04458      135214.48     -807625        -9626.9726      0.36249683     0.056752247    26.253449      41.511765    
     98820   197.64         353.57318      135976.23     -807624.35     -9690.306       0.36251453     0.057122816    26.257575      41.163308    
     98830   197.66         353.89098      133571.6      -807626.12     -9640.49        0.36253209     0.056826406    26.226616      40.814851    
     98840   197.68         349.23461      137424.3      -807624.58     -9666.6464      0.36254951     0.056977849    26.274348      40.466379    
     98850   197.7          353.43263      134296.23     -807626.47     -9631.3365      0.36256678     0.056767018    26.276778      40.1179      
     98860   197.72         355.65479      136598.34     -807623.58     -9733.2504      0.36258391     0.057364988    26.278215      39.769414    
     98870   197.74         352.24961      134024.31     -807626.45     -9632.0444      0.3626009      0.056765849    26.277796      39.420921    
     98880   197.76         333.36557      137813.82     -807622.97     -9657.11        0.36261774     0.056910928    26.280839      39.072422    
     98890   197.78         347.64391      133580.23     -807626.67     -9610.1548      0.36263445     0.056631605    26.269045      38.723918    
     98900   197.8          353.37033      136850.11     -807624.97     -9688.1663      0.362651       0.057088712    26.219527      38.375416    
     98910   197.82         343.12821      133748.87     -807624.9      -9650.0193      0.36266742     0.056861352    26.162472      38.026916    
     98920   197.84         353.80191      136693.17     -807624.57     -9708.275       0.36268369     0.057202049    26.171659      37.678408    
     98930   197.86         343.94155      134584.82     -807624.63     -9669.5007      0.36269982     0.056971053    26.186852      37.329891    
     98940   197.88         353.0285       137771.82     -807623.43     -9749.8318      0.36271581     0.057441819    26.248882      36.981357    
     98950   197.9          341.2827       134445.4      -807624.26     -9679.8777      0.36273165     0.057027188    26.257219      36.632816    
     98960   197.92         345.69398      137631.24     -807624.59     -9689.7474      0.36274735     0.057082863    26.262223      36.284267    
     98970   197.94         339.4281       133902.34     -807626.68     -9604.8035      0.36276291     0.056580027    26.274304      35.93571     
     98980   197.96         352.53697      134904.66     -807626.93     -9657.5542      0.36277832     0.056888354    26.260315      35.587148    
     98990   197.98         339.75531      133238.3      -807627.04     -9608.3174      0.36279359     0.056595939    26.230652      35.238585    
     99000   198            349.10199      135884        -807626.63     -9667.9442      0.36280872     0.056944785    26.18951       34.89002     
     99010   198.02         342.4556       135235.4      -807625.5      -302.69353      0.3628237      0.057049916    26.25279       34.54144     
     99020   198.04         335.11592      137598.56     -807622.78     -304.6036       0.36283855     0.057407565    26.259039      34.192853    
     99030   198.06         353.14006      135669.41     -807626.69     -303.53909      0.36285324     0.057204624    26.332027      33.844248    
     99040   198.08         330.00667      136144.21     -807624.12     -303.14926      0.3628678      0.057128866    26.366416      33.495633    
     99050   198.1          349.54908      134703.21     -807627.57     -302.64553      0.36288221     0.057031672    26.353498      33.147013    
     99060   198.12         339.80738      133560.09     -807627.97     -301.20431      0.36289648     0.056757851    26.379862      32.798383    
     99070   198.14         340.50771      134228.07     -807629.09     -300.27318      0.36291061     0.056580189    26.36362       32.44975     
     99080   198.16         343.21591      133908.16     -807628.99     -301.00911      0.36292459     0.056716675    26.347034      32.101112    
     99090   198.18         327.48101      137358.58     -807623.8      -304.091        0.36293843     0.057295186    26.346365      31.752468    
     99100   198.2          331.41944      135611.69     -807625.34     -303.28567      0.36295213     0.057141293    26.351461      31.403817    
     99110   198.22         333.30708      137263.26     -807624.19     -304.69644      0.36296568     0.057404948    26.34206       31.055162    
     99120   198.24         332.98181      135451.26     -807624.97     -303.98903      0.36297909     0.057269557    26.361373      30.706497    
     99130   198.26         326.50329      137783.81     -807623.91     -304.09465      0.36299236     0.057287362    26.359155      30.357827    
     99140   198.28         340.81537      132977.15     -807629        -301.0042       0.36300548     0.056703111    26.349152      30.009152    
     99150   198.3          335.81795      134691.83     -807627.65     -301.42896      0.36301846     0.056781097    26.376193      29.660467    
     99160   198.32         341.53409      132060.12     -807630.06     -299.87024      0.3630313      0.056485479    26.32752       29.311782    
     99170   198.34         346.09905      135357.84     -807627.21     -303.06536      0.36304399     0.057085335    26.300955      28.963094    
     99180   198.36         332.46005      135015.14     -807626.05     -302.23935      0.36305655     0.056927781    26.324553      28.614396    
     99190   198.38         338.35512      137844.35     -807624.06     -304.71985      0.36306895     0.05739303     26.315167      28.265694    
     99200   198.4          344.72855      135794.4      -807625.54     -303.87463      0.36308122     0.057231901    26.294498      27.916988    
     99210   198.42         335.133        137750.05     -807622.48     -305.21726      0.36309334     0.057482854    26.273702      27.568277    
     99220   198.44         334.1519       134892.14     -807625.34     -301.99795      0.36310532     0.056874671    26.295932      27.219558    
     99230   198.46         338.42286      135382.43     -807625.87     -301.54736      0.36311715     0.056787961    26.318586      26.87083     
     99240   198.48         337.60348      133392.88     -807626.25     -300.76117      0.36312885     0.056638081    26.325738      26.522094    
     99250   198.5          354.17376      134371.26     -807626.66     -302.3257       0.3631404      0.056930896    26.349065      26.17335     
     99260   198.52         351.74221      134510.66     -807626.38     -301.97565      0.3631518      0.056863193    26.307493      25.824604    
     99270   198.54         342.77137      136446.93     -807623.83     -303.03246      0.36316306     0.057060424    26.289375      25.475854    
     99280   198.56         362.23522      136114.39     -807625.21     -304.23052      0.36317418     0.057284264    26.310122      25.127095    
     99290   198.58         354.54512      137004.57     -807622.57     -305.66083      0.36318516     0.057551841    26.338382      24.778327    
     99300   198.6          347.98918      136510.96     -807623.77     -303.49208      0.36319599     0.05714179     26.302167      24.429557    
     99310   198.62         343.30537      136687.62     -807624.73     -301.69134      0.36320668     0.056801072    26.346281      24.080776    
     99320   198.64         343.56605      134851.06     -807624.43     -301.99286      0.36321723     0.056856189    26.351198      23.731988    
     99330   198.66         351.34222      134913.96     -807625.52     -301.88559      0.36322763     0.056834366    26.352871      23.383193    
     99340   198.68         337.93538      135210.57     -807624.41     -301.06604      0.36323789     0.056678473    26.345423      23.034394    
     99350   198.7          358.90429      135407.03     -807626.61     -301.73806      0.36324801     0.056803405    26.308924      22.685591    
     99360   198.72         353.74563      136201.72     -807624.35     -303.26552      0.36325798     0.057089387    26.292807      22.336784    
     99370   198.74         356.45888      137106.29     -807623.34     -304.62771      0.36326781     0.057344268    26.325786      21.987967    
     99380   198.76         354.38572      137953.17     -807624.02     -303.62709      0.3632775      0.057154382    26.364255      21.639141    
     99390   198.78         346.90828      137173.86     -807623.88     -302.69748      0.36328704     0.056977897    26.362066      21.290308    
     99400   198.8          352.96476      136486.8      -807624.67     -302.74468      0.36329644     0.056985307    26.339472      20.941472    
     99410   198.82         350.34572      134943.95     -807625.21     -301.92541      0.3633057      0.056829648    26.315098      20.592631    
     99420   198.84         347.70952      135589.31     -807625.01     -301.64937      0.36331481     0.056776267    26.326275      20.243783    
     99430   198.86         353.44916      133148.87     -807626.86     -300.65663      0.36332378     0.056588018    26.298771      19.894931    
     99440   198.88         353.34763      136344.97     -807624.35     -303.16421      0.36333261     0.057058595    26.276449      19.546075    
     99450   198.9          349.12265      134970.58     -807623.63     -303.43644      0.36334129     0.057108465    26.28037       19.197212    
     99460   198.92         361.11158      138124.66     -807624.02     -304.63043      0.36334983     0.057331835    26.321934      18.84834     
     99470   198.94         343.86531      136252.37     -807623.46     -302.94527      0.36335823     0.057013368    26.336299      18.49946     
     99480   198.96         354.0537       137863.47     -807623.07     -304.72069      0.36336648     0.057346192    26.303883      18.150576    
     99490   198.98         339.09806      134749.16     -807623.81     -302.04847      0.3633746      0.056842031    26.277539      17.801688    
     99500   199            350.02038      136289.78     -807625.62     -301.75251      0.36338256     0.056785091    26.296612      17.452792    
     99510   199.02         352.43534      132847.64     -807628.37     -9584.6318      0.36339039     0.056363706    26.22076       17.103895    
     99520   199.04         349.56526      135497.67     -807624.5      -9696.57        0.36339807     0.057020768    26.187593      16.754994    
     99530   199.06         347.83785      134487.96     -807624.87     -9681.8061      0.3634056      0.056932768    26.233121      16.406084    
     99540   199.08         343.12451      138137.01     -807622.71     -9732.3382      0.363413       0.057228752    26.26148       16.057165    
     99550   199.1          353.20408      136115.4      -807624.67     -9721.6745      0.36342025     0.057164906    26.290711      15.708237    
     99560   199.12         342.72085      138064.51     -807621.88     -9767.8572      0.36342736     0.057435344    26.315669      15.359302    
     99570   199.14         341.72924      136534.59     -807623.34     -9721.5358      0.36343432     0.057161877    26.295434      15.010362    
     99580   199.16         353.00898      134797.35     -807627.49     -9645.208       0.36344114     0.056712011    26.30454       14.661415    
     99590   199.18         342.6164       135251.48     -807625.99     -9651.8331      0.36344782     0.056749923    26.258831      14.312464    
     99600   199.2          334.81167      134744.54     -807625.03     -9656.6855      0.36345435     0.056777433    26.237294      13.963509    
     99610   199.22         345.1882       135818.87     -807625.94     -9679.0564      0.36346074     0.056907964    26.246975      13.614546    
     99620   199.24         346.40094      134495.98     -807626.31     -9682.1771      0.36346699     0.056925334    26.262867      13.265576    
     99630   199.26         344.76076      137203.86     -807623.21     -9779.6388      0.3634731      0.057497384    26.26228       12.916599    
     99640   199.28         349.84953      135867.64     -807624.82     -9758.6229      0.36347906     0.057372884    26.253684      12.567617    
     99650   199.3          333.85938      137306.56     -807622.65     -9763.0593      0.36348487     0.057398048    26.239303      12.218629    
     99660   199.32         360.36366      133472.48     -807630.13     -9652.6043      0.36349055     0.056747786    26.308131      11.869631    
     99670   199.34         324.38653      135779.67     -807623.31     -9714.7562      0.36349608     0.057112309    26.2669        11.520629    
     99680   199.36         346.56368      132985.26     -807628.71     -9649.48        0.36350147     0.056727714    26.228796      11.171622    
     99690   199.38         333.42917      135679.73     -807626.42     -9666.6721      0.36350671     0.056827964    26.19442       10.82261     
     99700   199.4          337.686        133671.85     -807627.65     -9654.2894      0.36351181     0.056754372    26.243059      10.47359     
     99710   199.42         328.09783      136474.28     -807623.76     -9739.8048      0.36351677     0.057256309    26.289389      10.124561    
     99720   199.44         340.84071      135676.1      -807625.52     -9745.409       0.36352158     0.057288495    26.274116      9.7755268    
     99730   199.46         345.53522      136685.44     -807626.24     -9744.9832      0.36352625     0.057285256    26.281099      9.4264858    
     99740   199.48         332.56341      136641.72     -807624.99     -9728.6266      0.36353078     0.057188392    26.27846       9.0774385    
     99750   199.5          340.99289      135650.93     -807626.58     -9714.831       0.36353516     0.057106608    26.296187      8.7283844    
     99760   199.52         347.58223      134361.75     -807628.78     -9674.2316      0.3635394      0.05686729     26.298467      8.3793238    
     99770   199.54         335.37806      134948.09     -807626.58     -9687.8715      0.3635435      0.056946826    26.290731      8.0302573    
     99780   199.56         330.44038      134446.13     -807626.81     -9657.5009      0.36354745     0.056767686    26.302293      7.6811842    
     99790   199.58         335.66931      135117.11     -807626.78     -9678.278       0.36355126     0.056889219    26.222551      7.3321072    
     99800   199.6          334.0805       135355.55     -807625.31     -9714.7697      0.36355493     0.057103143    26.261307      6.9830227    
     99810   199.62         345.88655      135759.8      -807626.42     -9724.0716      0.36355845     0.057157265    26.264072      6.6339317    
     99820   199.64         334.59037      135591.47     -807624.55     -9723.069       0.36356183     0.057150841    26.254079      6.2848346    
     99830   199.66         345.73002      135925.55     -807625.96     -9715.1662      0.36356507     0.057103881    26.256404      5.9357311    
     99840   199.68         346.5405       134510.91     -807625.62     -9717.3626      0.36356816     0.057116305    26.241304      5.5866216    
     99850   199.7          343.28067      135684.42     -807625.61     -9686.6939      0.36357111     0.05693558     26.311708      5.2375042    
     99860   199.72         342.45464      135599.24     -807625.49     -9672.2876      0.36357392     0.056850464    26.303254      4.8883807    
     99870   199.74         354.32585      134865.72     -807626.51     -9678.9156      0.36357658     0.056889005    26.250955      4.539252     
     99880   199.76         335.91681      136679.02     -807622.95     -9697.9516      0.3635791      0.057000497    26.266784      4.1901167    
     99890   199.78         353.267        136768.75     -807624.23     -9725.9455      0.36358148     0.057164659    26.262309      3.8409751    
     99900   199.8          356.96448      136784.61     -807624.65     -9720.8857      0.36358371     0.057134569    26.258513      3.4918272    
     99910   199.82         350.67074      137122.02     -807623.82     -9713.7394      0.3635858      0.057092239    26.289244      3.1426726    
     99920   199.84         353.04715      136601.96     -807624.75     -9689.2015      0.36358775     0.056947713    26.302462      2.7935116    
     99930   199.86         350.54597      135896.95     -807624.71     -9674.8741      0.36358955     0.056863222    26.284915      2.4443445    
     99940   199.88         361.05396      134312.75     -807626.61     -9659.7154      0.36359121     0.056773869    26.2138        2.0951718    
     99950   199.9          359.56936      135171.32     -807626.07     -9665.4627      0.36359273     0.056807412    26.196629      1.7459928    
     99960   199.92         353.93795      135252.14     -807624.94     -9677.8735      0.3635941      0.056880139    26.27602       1.3968068    
     99970   199.94         350.69786      137219.24     -807622.84     -9727.8347      0.36359533     0.057173585    26.260059      1.0476146    
     99980   199.96         350.97872      136399.07     -807622.76     -9733.1258      0.36359641     0.057204512    26.262121      0.69841604   
     99990   199.98         354.03171      137535.89     -807623.57     -9718.7218      0.36359736     0.057119707    26.276965      0.34921115   
    100000   200            347.88811      137338.38     -807622.25     -9731.6925      0.36359816     0.057195814    26.260546      0            
Loop time of 3492.14 on 32 procs for 100000 steps with 1080 atoms

Performance: 4.948 ns/day, 4.850 hours/ns, 28.636 timesteps/s, 30.927 katom-step/s
62.5% CPU use with 32 MPI tasks x 1 OpenMP threads

MPI task timing breakdown:
Section |  min time  |  avg time  |  max time  |%varavg| %total
---------------------------------------------------------------
Pair    | 2561.3     | 2804.6     | 3072.2     | 252.2 | 80.31
Neigh   | 0.0016585  | 0.0017992  | 0.0019747  |   0.2 |  0.00
Comm    | 347.35     | 614.8      | 858.31     | 538.7 | 17.61
Output  | 2.3425     | 2.3495     | 2.3576     |   0.2 |  0.07
Modify  | 64.107     | 64.39      | 64.603     |   1.9 |  1.84
Other   |            | 5.983      |            |       |  0.17

Nlocal:          33.75 ave          47 max          26 min
Histogram: 1 4 12 2 7 1 4 0 0 1
Nghost:           1038 ave        1053 max        1015 min
Histogram: 1 0 2 5 1 4 3 14 1 1
Neighs:              0 ave           0 max           0 min
Histogram: 32 0 0 0 0 0 0 0 0 0
FullNghs:         5345 ave        7488 max        4120 min
Histogram: 1 4 12 2 7 1 4 0 0 1

Total # of neighbors = 171040
Ave neighs/atom = 158.37037
Neighbor list builds = 4
Dangerous builds = 0

Total wall time: 1:01:34
