
units		metal
atom_style	atomic

read_data ${STRUCTURE}.data
read_data BaTiO3-sc333.data
Reading data file ...
  orthogonal box = (0 0 0) to (11.898253 11.898253 12.912076)
  2 by 4 by 4 MPI processor grid
  reading atoms ...
  135 atoms
  read_data CPU = 0.004 seconds
replicate $L $L $L
replicate 2 $L $L
replicate 2 2 $L
replicate 2 2 2
Replication is creating a 2x2x2 = 8 times larger system...
  orthogonal box = (0 0 0) to (23.796507 23.796507 25.824152)
  2 by 4 by 4 MPI processor grid
  1080 atoms
  replicate CPU = 0.003 seconds

pair_style allegro
pair_coeff	* * ${MODEL}.pth Ba Ti O
pair_coeff	* * BaTiO3-E0.pth Ba Ti O
mass 1 137.3
mass 2 47.9
mass 3 15.9994

timestep 0.002
compute polarization all allegro polarization 3
compute allegro will evaluate the quantity polarization of length 3 (src/compute_allegro.cpp:53)
compute polarizability all allegro polarizability 9
compute allegro will evaluate the quantity polarizability of length 9 (src/compute_allegro.cpp:53)

thermo_style custom pe fmax fnorm spcpu cpuremain

variable efield equal 1e-2*36.36
fix born all addbornforce 0.0 0.0 ${efield}
fix born all addbornforce 0.0 0.0 0.3636

thermo 10
min_style fire
#minimize 0.0 1e-6 100 100
velocity all create ${TEMP} ${SEED} dist gaussian rot yes mom yes
velocity all create 340 ${SEED} dist gaussian rot yes mom yes
velocity all create 340 2123 dist gaussian rot yes mom yes
fix nvt all nvt temp ${TEMP} ${TEMP} $(100*dt)
fix nvt all nvt temp 340 ${TEMP} $(100*dt)
fix nvt all nvt temp 340 340 $(100*dt)
fix nvt all nvt temp 340 340 0.2000000000000000111
run 5000
Neighbor list info ...
  update: every = 1 steps, delay = 0 steps, check = yes
  max neighbors/atom: 2000, page size: 100000
  master list distance cutoff = 8
  ghost atom cutoff = 8
  binsize = 8, bins = 3 3 4
  1 neighbor lists, perpetual/occasional/extra = 1 0 0
  (1) pair allegro/kk, perpetual
      attributes: full, newton on, kokkos_device
      pair build: full/bin/kk/device
      stencil: full/bin/3d
      bin: kk/device
Per MPI rank memory allocation (min/avg/max) = 3.516 | 3.516 | 3.516 Mbytes
    PotEng          Fmax          Fnorm          S/CPU         CPULeft    
-807708.29      1.595059       37.043282      0              0            
-807643.31      3.436569       46.04527       2.6596201      1876.2088    
-807632.42      2.4803623      36.302944      25.902057      1032.3558    
-807603.27      2.9195649      38.586139      25.877092      750.87576    
-807600.68      4.4761688      50.660062      25.852068      609.98892    
-807565.88      3.5608897      40.887955      25.801369      525.37735    
-807602.36      2.8204754      39.069018      25.909416      468.70736    
-807645.2       3.446233       34.436635      25.851172      428.17977    
-807682.13      2.4671573      34.856826      25.776296      397.75647    
-807666.67      3.483842       34.418276      25.754356      374.02573    
-807649.13      4.3418759      36.171256      25.905267      354.85264    
-807656.97      2.6612593      28.512653      25.85838       339.1265     
-807623.8       3.5135208      32.771061      25.853468      325.95992    
-807582.16      3.7124109      41.637733      25.848787      314.76208    
-807567.27      3.8668543      39.178176      25.920729      305.07139    
-807631.98      3.5031117      34.000808      25.881288      296.64036    
-807653.51      4.5891957      31.879459      25.874015      289.21822    
-807662.95      3.0516898      35.396144      25.857315      282.63086    
-807643.95      4.915267       45.650076      25.903116      276.71417    
-807676         2.7515667      37.067476      25.862915      271.39484    
-807640.12      4.1176794      39.378801      25.877659      266.56348    
-807612.78      2.9447878      39.924481      25.901516      262.14734    
-807557.18      4.0801821      46.752086      25.906498      258.09595    
-807603.42      4.0517415      49.565251      25.850824      254.38053    
-807613.85      3.7746668      38.984812      25.834816      250.94724    
-807639.12      3.0586865      36.297218      25.90318       247.73826    
-807640.63      4.5111137      45.140721      25.930229      244.73907    
-807678.5       2.5116275      38.712833      25.853816      241.95343    
-807660.4       3.3053587      35.766713      25.854451      239.339      
-807635.03      2.7013782      32.898623      25.886288      236.87047    
-807602.46      3.3642364      35.267186      25.912504      234.53463    
-807600.11      4.1210119      43.490349      25.830155      232.3432     
-807594.79      2.9907538      37.309001      25.806789      230.26967    
-807605.31      3.4089324      35.484707      25.8853        228.28169    
-807639.16      3.2928452      32.622383      25.902669      226.38438    
-807669.63      2.7657493      34.614337      25.852514      224.58336    
-807673.92      3.4116016      34.477705      25.771385      222.87662    
-807639.46      4.3403682      40.345904      25.845822      221.22718    
-807644         2.8930853      32.270921      25.902135      219.63395    
-807616.95      3.755786       35.897997      25.833306      218.11479    
-807596.07      3.8574943      44.277472      25.817403      216.65497    
-807566.12      3.5695624      41.943176      25.857276      215.24078    
-807619.9       3.4478638      35.925453      25.908748      213.86715    
-807647.5       3.3846906      35.336561      25.875458      212.54473    
-807669.83      3.1258788      35.799601      25.832807      211.27146    
-807638.7       5.7487072      46.55625       25.893216      210.02845    
-807662.03      3.2313866      36.244545      25.90715       208.82064    
-807643.19      4.2695531      36.429183      25.863063      207.65413    
-807620.02      3.6674754      38.539354      25.91551       206.51277    
-807560.41      3.7429123      44.143229      25.920643      205.40153    
-807595.07      3.8782833      44.177006      25.919404      204.31947    
-807621.22      3.5579391      37.0107        25.809985      203.27912    
-807650.94      3.4220067      33.993083      25.899043      202.2524     
-807639.98      4.2264711      42.029329      25.884589      201.25167    
-807667.6       2.7713592      36.11415       25.872611      200.27518    
-807661.87      3.0843189      34.843333      25.788555      199.33033    
-807641.27      3.6297975      32.406878      25.896897      198.39252    
-807595.79      3.7695926      37.303074      25.923172      197.47102    
-807592.05      3.3608558      39.457973      25.875715      196.57339    
-807599.75      3.4321036      40.68771       25.778572      195.70397    
-807618.01      4.5121388      33.573625      25.857112      194.84196    
-807632.43      3.3091415      34.374979      25.877665      193.99332    
-807659.29      3.4168708      35.114033      25.872545      193.16013    
-807669.87      3.0016664      36.826919      25.755725      192.35328    
-807647.61      3.9263386      37.93938       25.806636      191.5543     
-807628.94      3.3271386      35.075071      25.906306      190.758      
-807610.42      4.0212925      37.212501      25.928594      189.97195    
-807601.25      4.4855796      45.476006      25.816626      189.20866    
-807579.15      3.9217955      42.325692      25.897249      188.44877    
-807610.1       3.1408486      38.212003      25.92221       187.69738    
-807641.59      3.8627128      37.325144      25.920136      186.95664    
-807669.55      2.6237257      37.154315      25.807301      186.23609    
-807647.27      4.588052       41.93968       25.860582      185.52004    
-807648.96      2.8866238      36.530635      25.873059      184.81192    
-807639.74      3.6713172      35.052984      25.891694      184.11089    
-807623.66      3.3647096      38.157623      25.864263      183.42058    
-807577.21      3.2613076      39.827902      25.892181      182.73594    
-807586.03      3.2393262      40.269801      25.890009      182.05923    
-807624.25      3.2588951      33.89992       25.841848      181.39385    
-807654.79      2.8399148      33.193931      25.754576      180.74252    
-807648.37      3.6077131      37.08771       25.805176      180.09376    
-807654.25      3.6282884      36.532235      25.718123      179.45824    
-807660.56      3.3088422      33.988787      25.794486      178.82287    
-807641.87      3.2984837      34.03635       25.84618       178.18957    
-807602.91      3.434663       36.878484      25.917624      177.55685    
-807581.47      3.5819053      40.201421      25.922476      176.9296     
-807602.4       3.8421258      40.789451      25.885046      176.31064    
-807626.81      3.9855101      34.016169      25.827922      175.70109    
-807636.88      2.8679313      35.227456      25.873166      175.09342    
-807649.47      4.6127842      37.271714      25.844943      174.49267    
-807668.38      2.6697401      36.034776      25.801328      173.89965    
-807651.58      4.1947561      35.562455      25.842084      173.3084     
-807630.19      2.7669559      33.124886      25.884602      172.71877    
-807602.23      3.9254476      36.150579      25.898132      172.13263    
-807601.54      3.5935728      42.371643      25.877589      171.55207    
-807596.09      3.6855175      38.051096      25.796192      170.9808     
-807614.79      3.0118178      36.119117      25.796062      170.41336    
-807636.49      5.5487037      36.937237      25.820382      169.84811    
-807665.04      3.0002298      36.747439      25.815335      169.2868     
-807655.11      3.8418145      38.391357      25.790421      168.73052    
-807644.38      3.5046123      36.259763      25.865795      168.17309    
-807629.31      3.8957844      35.923517      25.904041      167.61679    
-807620.91      3.2058929      38.05308       25.886258      167.06486    
-807588.78      3.492582       39.736277      25.826185      166.51961    
-807588.65      4.0103001      39.67274       25.852554      165.9759     
-807617.66      2.7517655      34.52983       25.811966      165.43747    
-807652.64      3.1891452      34.089852      25.846838      164.89994    
-807655.42      4.1258422      35.858477      25.87693       164.36357    
-807647.92      4.108537       37.515014      25.912376      163.82806    
-807651.68      3.7254614      33.72977       25.873544      163.29738    
-807640.98      3.2403607      33.668611      25.89595       162.76813    
-807609.32      2.8628324      36.593934      25.857732      162.24346    
-807579.07      4.0408917      39.580417      25.885622      161.7198     
-807600.13      3.5143918      38.70413       25.844309      161.2007     
-807627.91      4.1044668      35.399925      25.803453      160.68599    
-807646.9       2.7439636      34.140344      25.789208      160.1742     
-807642.25      4.3911689      39.77005       25.858353      159.66112    
-807662.22      2.6691363      35.296492      25.852769      159.15048    
-807649.22      3.7921727      36.104373      25.836339      158.64273    
-807632.47      2.7698418      34.036275      25.888112      158.13453    
-807592.57      3.4564768      38.495709      25.905536      157.62754    
-807597.22      3.6403347      40.609199      25.843763      157.12544    
-807601.63      3.4517091      37.832844      25.744406      156.62985    
-807627.15      2.5191236      33.963228      25.846646      156.1313     
-807632.12      3.6549876      37.282516      25.934614      155.63057    
-807660.57      3.4508658      34.903954      25.867701      155.13467    
-807657.23      4.0211656      36.09199       25.835603      154.64193    
-807645.08      3.3326168      34.821377      25.834745      154.1509     
-807620.68      4.2934917      35.002438      25.890391      153.65907    
-807611.16      3.2866956      37.42791       25.87628       153.16949    
-807598.8       3.8758118      39.204384      25.717457      152.68828    
-807598.54      2.8762653      38.014466      25.863169      152.20232    
-807617.08      3.7353904      35.42055       25.86543       151.71776    
-807648.97      3.2349689      34.191751      25.825272      151.23634    
-807659.04      4.0406748      35.595159      25.754612      150.75922    
-807648.97      3.7566251      36.903533      25.793552      150.28183    
-807641.44      3.6056817      35.349178      25.847346      149.80361    
-807631.18      3.8025818      34.558766      25.805779      149.32837    
-807613.56      3.2615645      36.869686      25.755599      148.85638    
-807585.39      3.9507848      39.218218      25.811589      148.38341    
-807600.78      3.1876916      37.022455      25.856789      147.90992    
-807629.16      4.2796054      35.394978      25.790839      147.44017    
-807651.57      3.3434118      34.95725       25.772585      146.97228    
-807645.21      4.6419494      38.87578       25.817369      146.50382    
-807650.29      3.7827511      36.664387      25.843348      146.03552    
-807646.77      3.9466661      35.912897      25.783937      145.57054    
-807631.85      4.0438683      35.960904      25.787104      145.10649    
-807596.09      4.4148926      38.382814      25.860403      144.64084    
-807591.35      3.5627648      39.768634      25.879792      144.17557    
-807609.89      4.0977644      37.099901      25.850567      143.71238    
-807635.68      3.2276628      34.041996      25.840149      143.25058    
-807637.36      3.7022471      37.327502      25.884064      142.78825    
-807652         3.565217       36.202626      25.911739      142.32598    
-807655.07      3.1731086      36.194198      25.881613      141.86572    
-807646.07      2.9127564      34.634987      6.234179       144.14226    
-807617.77      3.916039       35.403554      25.851281      143.65941    
-807602.18      3.664247       38.512782      25.85728       143.17759    
-807599.75      3.9285259      39.742157      25.82899       142.6979     
-807612.93      3.6893078      36.453227      25.041842      142.24573    
-807623.66      3.3543817      35.41314       19.754155      142.02347    
-807645.55      2.8389964      34.918162      25.847151      141.54407    
-807657.91      2.9287064      35.663066      16.448748      141.53129    
-807652.18      3.3815704      35.575798      25.713721      141.05412    
-807635.11      3.6231775      35.139155      23.508663      140.65346    
-807623.43      3.3508698      33.316615      12.668375      140.99823    
-807609.85      3.1954472      37.962982      23.590824      140.58723    
-807597.8       3.3542148      38.403881      18.252861      140.42551    
-807606.03      3.0951894      36.539745      18.240049      140.25992    
-807630.13      3.2745597      35.068009      13.764835      140.44203    
-807652.87      2.8711617      35.15368       25.909723      139.94642    
-807650.16      3.3793987      36.399405      25.938552      139.45127    
-807646.83      3.5776758      35.966656      25.924059      138.95782    
-807637.74      3.9633711      35.857269      25.986759      138.46384    
-807628.44      3.70291        34.714813      25.922303      137.97293    
-807601.5       3.3897941      38.280508      25.927232      137.4831     
-807592.96      3.6941573      39.44161       25.862693      136.99624    
-807612.09      3.9339071      37.087082      25.953338      136.50804    
-807638.05      3.0326999      34.629365      25.927523      136.02169    
-807644.25      4.0341888      36.244002      25.93105       135.53639    
-807647.65      3.3383204      36.374956      25.917729      135.05255    
-807648.46      3.2855458      36.147806      25.926847      134.56956    
-807642.97      3.5082276      34.571756      25.914356      134.08798    
-807617.41      4.3696405      35.752396      25.955761      133.60637    
-807597.22      3.5001682      37.319504      25.944991      133.12609    
-807600.08      3.5973234      37.794399      25.934864      132.6471     
-807619.89      4.0503291      36.170851      25.976552      132.16806    
-807632.43      3.3266628      34.713967      25.946105      131.6908     
-807639.61      3.9145381      36.682654      25.903259      131.21559    
-807653.49      2.7234257      35.021989      25.914722      130.74104    
-807649.57      3.4879118      35.611903      25.8628        130.26871    
-807632.35      3.6909765      34.761858      25.808514      129.7986     
-807611.04      4.924759       36.621043      25.853853      129.32827    
-807605.51      4.085304       37.840503      25.909976      128.85745    
-807605.01      3.5877204      38.859894      25.871212      128.38844    
-807613.97      3.4759745      37.023576      25.869501      127.92032    
-807626.91      4.1336439      36.783764      25.901005      127.4523     
-807647.09      3.9275056      36.473095      25.925214      126.98455    
-807651.01      4.5522504      36.66645       25.878483      126.51871    
-807641.34      3.6580279      36.252849      25.901464      126.05315    
-807627.63      3.5817028      35.336503      25.897356      125.58848    
-807619.91      3.0240468      35.904207      25.972664      125.12292    
-807605.6       3.4738358      37.852667      25.979238      124.65801    
-807600.84      3.5006364      38.087872      25.992231      124.19361    
-807613.42      3.4657427      36.649711      25.95667       123.73077    
-807638.31      2.78416        35.031364      25.928852      123.26929    
-807645.85      2.8448725      35.814864      25.888936      122.8094     
-807645.84      2.7514208      35.986772      25.920778      122.34955    
-807639.51      3.8632054      36.233423      25.85848       121.89173    
-807635.2       2.9262446      34.571813      25.882558      121.43409    
-807616.98      2.6936062      35.722056      25.908401      120.9766     
-807598.52      3.1111264      37.989355      25.929829      120.51935    
-807601.61      3.5336556      38.214537      25.846054      120.06448    
-807622.02      3.5628991      35.820869      25.897285      119.60922    
-807638.95      3.4578004      34.944146      25.953983      119.15347    
-807643.12      3.6810102      36.902536      25.954096      118.69838    
-807646.73      4.3910922      36.335394      25.882076      118.24536    
-807644.93      4.4911441      35.575914      25.943543      117.79175    
-807634.41      3.7401164      34.128912      25.934995      117.33893    
-807608.48      4.0420845      37.148027      26.017036      116.88516    
-807602.17      4.0348911      38.714251      25.964064      116.43303    
-807609.41      3.2044792      37.062175      25.922341      115.9823     
-807624.65      3.3533255      34.756581      25.865174      115.53323    
-807634.68      3.8218477      34.410395      25.948348      115.08317    
-807647.44      5.0461289      34.308323      25.91112       114.63438    
-807649.22      2.9546192      35.033732      25.858788      114.18711    
-807644.52      3.8183219      33.66168       25.865655      113.74026    
-807624.82      3.1037133      34.347404      25.929279      113.29279    
-807614.3       4.1625578      35.30741       25.920783      112.84602    
-807608.36      3.1616492      36.712668      25.896452      112.40021    
-807610.4       3.0120512      36.40734       25.880359      111.95521    
-807621.63      3.2381098      35.153288      25.93329       111.50979    
-807638.11      3.2326199      35.500539      25.915758      111.06519    
-807648.63      3.0397799      35.320065      25.818697      110.62278    
-807646.8       3.5242501      35.871968      25.804258      110.18109    
-807636.83      3.1160994      34.865807      25.882319      109.73853    
-807626.45      3.8578248      35.042982      25.903413      109.29609    
-807615.85      3.4634591      36.546241      25.923223      108.8538     
-807605.33      3.500542       37.806062      25.861735      108.41301    
-807608.91      4.1020527      36.80206       25.928152      107.97158    
-807624.94      3.5555423      35.062747      25.91588       107.53082    
-807643.64      3.5154342      34.940366      25.89359       107.09088    
-807643.17      3.1887984      37.187322      25.903306      106.65122    
-807643.04      2.8577501      35.191348      25.993533      106.21058    
-807636.79      3.8790408      35.855056      25.921219      105.77154    
-807626.58      3.2783338      35.630316      25.964389      105.33225    
-807607.92      3.9329404      36.733641      25.870749      104.89487    
-807603.38      3.0044069      37.335831      25.976599      104.45626    
-807611.27      3.5319366      37.167111      26.017031      104.01749    
-807631.91      3.7500338      34.992424      25.930904      103.58044    
-807637.85      3.6234416      36.231829      25.910581      103.14412    
-807644.57      3.0195893      36.027358      25.897889      102.70838    
-807644.69      3.7552621      36.575248      25.910243      102.27286    
-807639.1       3.8698539      36.109245      25.909216      101.83775    
-807619.42      3.489393       36.629883      25.887312      101.40334    
-807606.18      3.4918275      37.232074      25.895472      100.9692     
-807605.86      2.7815838      38.207612      25.873423      100.53575    
-807616.39      3.2952267      36.635233      25.901595      100.10226    
-807629.17      3.1609156      35.122339      25.894789      99.669241    
-807637.74      3.177934       35.774846      25.935709      99.236012    
-807647.31      3.4460296      36.396007      25.904318      98.803586    
-807643.86      3.5549999      36.082633      25.901469      98.371556    
-807632.71      3.5978419      35.956109      25.895234      97.939963    
-807617.67      3.4900692      35.980868      25.982123      97.507543    
-807609.16      3.0864567      37.202817      25.911954      97.076425    
-807607.98      3.5682431      37.326848      25.943886      96.645224    
-807614.81      3.3440881      36.479574      25.901089      96.214933    
-807628.43      2.9544355      35.967092      25.913324      95.784814    
-807640.93      2.8026562      36.267632      25.813893      95.356324    
-807645.29      3.1861587      36.087375      25.895131      94.927089    
-807640.1       3.2806756      36.224941      25.914923      94.49792     
-807628.99      4.5572343      35.982355      25.982048      94.068223    
-807620.52      2.9555826      36.413046      25.961098      93.639118    
-807608.31      3.1373013      37.698449      25.978734      93.210118    
-807605.56      3.4463425      37.474941      25.954886      92.781734    
-807617.3       3.3654941      36.006316      25.933233      92.35393     
-807633.06      3.2000929      35.596731      25.908536      91.926735    
-807641.95      2.8344123      36.041351      25.944793      91.499399    
-807641.88      3.4039493      36.290371      25.911214      91.072769    
-807639.4       2.8792323      35.020643      25.907894      90.646471    
-807630.3       3.95675        36.12287       25.926091      90.220247    
-807619.11      3.4943666      35.929987      25.955004      89.793975    
-807603.76      3.6269168      37.991295      25.897032      89.368668    
-807607.6       2.9456877      37.239552      25.884967      88.943776    
-807622.32      4.2180572      34.881427      25.886367      88.519142    
-807633.6       3.3592876      35.475157      25.899538      88.094627    
-807642.36      3.4557207      34.301799      25.901708      87.670359    
-807643.01      3.9248414      35.436586      25.921125      87.246141    
-807639.57      3.2325531      35.121453      25.874924      86.822701    
-807630.35      2.7903969      33.223116      25.946232      86.398737    
-807612.42      2.8748954      35.86663       25.957253      85.97492     
-807604.99      3.6589958      37.170368      25.985452      85.551066    
-807611.87      3.6979806      37.084202      25.932266      85.128048    
-807623.8       3.7847855      35.319815      25.867136      84.705977    
-807633.97      2.9905938      35.274793      25.836848      84.284468    
-807643.91      3.4988088      35.505671      25.867113      83.862877    
-807645.99      2.8366237      35.434935      25.805244      83.442167    
-807636.7       2.8111584      35.221506      25.911879      83.020582    
-807625.53      2.9838794      34.732881      25.913085      82.599225    
-807613.7       3.255925       35.992568      25.951024      82.177724    
-807607.68      3.3397704      37.142758      25.907378      81.7569      
-807611.46      3.2984018      35.744151      25.968872      81.3357      
-807626.67      3.1419893      34.840246      25.944568      80.914978    
-807639.21      3.0268351      34.48298       25.95069       80.494431    
-807644.71      3.7245783      35.414769      25.853012      80.075062    
-807643.73      3.544115       34.773725      25.908119      79.655377    
-807635.26      3.01062        34.922213      25.928232      79.235721    
-807626.6       3.1926381      34.045071      25.921529      78.816352    
-807614.22      2.7344808      35.616373      25.882408      78.397567    
-807606.76      4.0939705      36.874753      25.899079      77.978837    
-807614.36      2.7605167      35.452303      25.857294      77.560705    
-807629.4       3.1661138      35.093902      25.873138      77.14263     
-807638.01      2.9312077      34.940798      25.868029      76.724804    
-807644.64      3.5081649      35.842041      25.855743      76.30729     
-807639.85      3.8171097      36.653862      25.895444      75.889617    
-807636.96      3.9046609      34.973773      25.903657      75.472073    
-807622.49      3.5909404      35.699273      25.929641      75.054502    
-807611.19      3.8276273      37.109003      25.954665      74.636916    
-807607.43      3.8069538      36.974621      25.932689      74.219722    
-807616.84      4.4432468      36.499715      25.946495      73.80261     
-807629.52      3.1042258      35.026356      25.860124      73.386426    
-807638.21      4.4855119      35.070596      25.905222      72.970049    
-807641.59      3.2863902      36.512446      25.829707      72.554489    
-807641.12      3.5940004      36.108415      25.823372      72.139159    
-807631.91      3.4659474      35.457228      25.878221      71.723553    
-807619.39      3.8812208      36.681813      25.996988      71.307168    
-807610.03      3.2116062      37.560234      25.979657      70.891116    
-807609.89      4.0575879      37.833818      25.916344      70.475757    
-807617.4       3.0247501      36.379767      25.870945      70.060937    
-807627.98      3.1861242      35.821972      25.918812      69.645915    
-807638.91      4.1389919      36.247957      25.856         69.231558    
-807640.73      2.6644698      35.767453      25.89884       68.817039    
-807638.95      3.0372876      35.323125      25.958345      68.402239    
-807628.98      3.014591       35.655131      25.992655      67.987359    
-807618.13      3.3559711      36.377287      25.972339      67.572813    
-807610         3.3618359      37.42796       25.952355      67.15859     
-807609.59      3.3730409      38.021022      25.900091      66.744922    
-807616.66      3.2501001      37.852511      25.87045       66.331635    
-807631.46      3.0903491      36.603989      25.816569      65.918897    
-807637.88      3.4103396      36.855747      25.831497      65.506201    
-807642         3.7114751      37.352482      25.887382      65.09326     
-807636.15      3.299633       36.398169      25.85983       64.680669    
-807628.97      4.3069231      36.355072      25.93274       64.267722    
-807617.11      3.568049       36.741795      25.922557      63.855006    
-807610         3.8492122      37.520133      25.872876      63.442786    
-807608.56      3.3155001      37.536562      25.881636      63.030656    
-807619.79      3.2241964      36.329815      25.911631      62.618474    
-807634.15      2.9086654      34.433248      25.914473      62.206426    
-807640.62      4.416936       35.760465      25.922261      61.794477    
-807640.76      3.339549       35.475803      25.982302      61.382289    
-807637.65      3.1998948      35.551384      25.962129      60.970387    
-807630.03      2.827782       34.941741      26.022095      60.558257    
-807618.42      3.179513       35.51576       25.964911      60.146646    
-807609.95      3.1436088      37.427833      26.01775       59.734856    
-807610.11      3.3199294      37.264796      25.924326      59.323798    
-807623.37      3.0716116      35.681511      25.888922      58.913101    
-807634.49      4.1836716      35.567068      25.893936      58.50251     
-807638.94      4.0053476      35.786209      25.948616      58.091728    
-807640.79      3.7600445      35.588774      25.907819      57.681331    
-807637.67      4.0468737      35.540742      25.933816      57.270917    
-807628.81      4.0115898      34.764896      25.923472      56.860702    
-807616.11      4.2391935      36.600576      25.919572      56.450645    
-807610.75      4.0274177      36.837993      25.923913      56.040697    
-807616.2       3.5047859      37.372474      25.917724      55.630919    
-807625.91      3.781658       35.029856      25.832895      55.22175     
-807631.64      2.9346215      35.687633      25.881767      54.81243     
-807640.34      3.9889762      35.436239      25.87997       54.403246    
-807643.39      3.0525045      34.653273      25.868552      53.994248    
-807635.78      3.0829489      34.955208      25.850884      53.585468    
-807624.6       3.3322985      35.328821      25.899351      53.176548    
-807616.34      2.7971542      35.949193      25.881538      52.767846    
-807615.03      3.454093       36.592249      25.905996      52.359136    
-807615.67      3.253336       36.140925      25.859816      51.950789    
-807624.01      3.3266637      35.568163      25.896559      51.542369    
-807634.77      3.471143       36.173166      25.966098      51.133716    
-807641.44      2.8739847      35.780061      25.983556      50.725102    
-807639.73      3.7678963      35.798112      25.93027       50.316878    
-807633.07      3.680717       35.482426      25.913277      49.908858    
-807624.33      2.9222365      35.452604      25.885688      49.501089    
-807616.08      3.6428725      36.225462      25.938114      49.093182    
-807608.69      3.3784973      37.844133      25.92557       48.685453    
-807613.69      3.0032964      36.752583      25.920919      48.277861    
-807625.56      3.7139461      36.415975      25.940276      47.870294    
-807635.37      3.2040507      36.101758      25.897936      47.463036    
-807637.6       4.0152109      36.115121      25.89477       47.055904    
-807638.49      3.2620746      35.597507      25.893815      46.648885    
-807632.77      2.7795876      35.077606      25.895978      46.241965    
-807624.02      3.1246069      35.658413      25.958034      45.834879    
-807613.55      2.9413535      36.681434      25.927363      45.42804     
-807608.75      3.4911746      36.644982      25.968815      45.021132    
-807617.19      3.1513479      36.674672      25.917226      44.614555    
-807626.38      2.9605653      35.935008      25.988872      44.207783    
-807634.03      3.7725084      35.907807      25.957432      43.801255    
-807637.53      4.3054705      36.264643      25.957309      43.394836    
-807639.4       3.038203       35.953599      25.875027      42.988858    
-807630.44      3.863412       36.534512      25.875055      42.582978    
-807622         3.2047779      36.673114      25.926284      42.176994    
-807613.43      3.4533716      36.599809      25.929749      41.771099    
-807612.7       3.2497687      36.853724      25.922294      41.365335    
-807617.06      3.0978282      35.789444      25.90909       40.959721    
-807626.18      3.0924147      35.215592      25.891848      40.554271    
-807635.72      3.94206        35.059185      25.871058      40.148995    
-807639.99      3.4568222      35.420989      25.886558      39.743755    
-807636.33      3.6071796      35.398488      25.960265      39.338342    
-807629.6       3.7051599      35.792103      25.87339       38.933341    
-807621.25      3.6090433      36.330093      25.903441      38.528325    
-807617.03      3.829888       36.295458      25.896109      38.123427    
-807613.58      2.9858247      36.415976      25.968862      37.718372    
-807619.65      3.8099175      36.138908      25.906474      37.313627    
-807629.08      3.3957266      34.631475      25.892597      36.90902     
-807637.56      3.2672482      34.764186      25.827755      36.50472     
-807638.67      3.022146       35.058347      25.844622      36.100447    
-807635.55      3.3380881      35.152567      25.849819      35.696241    
-807630.97      2.8612279      34.96223       25.857854      35.292095    
-807624.92      3.0498237      34.61978       25.894503      34.887917    
-807614.42      2.8136231      36.530463      25.927189      34.483725    
-807615.33      3.0902621      35.412924      25.866879      34.079806    
-807621.33      3.8317476      36.452861      25.810714      33.676141    
-807630.4       3.3930893      34.021261      25.842093      33.27246     
-807635.99      3.2164122      35.426288      25.843292      32.868855    
-807638.43      4.2960972      35.485769      25.853171      32.465301    
-807637.25      2.6510515      34.682767      25.853152      32.061827    
-807629.3       3.1515154      34.593368      25.87037       31.658384    
-807621.02      2.8934181      34.6517        25.881663      31.25499     
-807612.23      5.0502114      36.252747      25.844398      30.851777    
-807617.91      3.2157795      35.351525      25.805709      30.448746    
-807620.95      4.2695898      35.978005      25.843549      30.045687    
-807631.6       3.9205323      35.188458      25.839076      29.642716    
-807635.36      3.2138525      35.125957      25.813511      29.239885    
-807641.69      2.7670873      34.746484      25.869201      28.836986    
-807633.23      4.0149478      35.958418      25.885795      28.434122    
-807629.44      2.6192489      34.601205      25.90412       28.03129     
-807619.42      2.7518838      35.330612      25.886254      27.628579    
-807615.19      3.1817444      36.267242      25.883806      27.22595     
-807612.68      3.7820835      36.611488      25.873423      26.82342     
-807622.72      3.4448469      35.243685      25.909947      26.420881    
-807630.3       3.0766593      34.611435      25.896919      26.018447    
-807635.55      3.5148173      35.12767       25.885519      25.616113    
-807637.77      2.8396726      34.94637       25.848849      25.213931    
-807633.81      3.0734112      35.04556       25.843525      24.811831    
-807628.06      2.6462479      34.925264      25.80623       24.409877    
-807620.02      3.4104793      35.548488      25.842243      24.007915    
-807614.8       3.4061377      36.821772      25.77704       23.606152    
-807612.56      2.9596009      36.747981      25.8027        23.204402    
-807622.49      3.1517568      36.338081      25.824284      22.802673    
-807627         2.8324028      35.820385      25.84089       22.400979    
-807635.29      2.9522393      35.185252      25.79588       21.999434    
-807633.62      3.5164508      36.554933      25.768207      21.598001    
-807632.94      3.6756384      36.140935      25.810314      21.196554    
-807623.02      3.9732971      36.506452      25.838162      20.79512     
-807618.24      3.5240547      36.173607      25.810705      20.393798    
-807611.94      3.062859       36.825264      25.806267      19.992544    
-807615.13      3.6272684      36.883022      25.870478      19.591247    
-807619.69      3.6259482      37.136453      25.882244      19.189997    
-807630.48      3.1712522      36.124782      25.860497      18.788846    
-807632.22      2.9287145      36.042001      25.88961       18.387715    
-807634.43      4.3413283      36.129871      25.910749      17.986618    
-807631.34      2.802093       35.876563      25.898043      17.585605    
-807624.17      3.8494092      36.26194       25.858423      17.184714    
-807615.62      3.0295737      36.739027      25.859026      16.783883    
-807613.89      3.4327681      37.467387      25.879399      16.383087    
-807613.54      3.1463608      37.172079      25.908672      15.982316    
-807624.51      2.9454662      36.002187      25.824009      15.581716    
-807626.31      3.4026621      37.386082      25.846315      15.181146    
-807635.56      3.1402437      35.993857      25.79122       14.780701    
-807635.67      4.2535567      37.158255      25.827591      14.380268    
-807630.02      3.373418       36.790999      25.788414      13.979937    
-807624.71      3.044085       36.099956      25.806946      13.57964     
-807616.3       3.3523777      36.809975      25.819371      13.179384    
-807614.69      3.2469943      36.846656      25.849595      12.779153    
-807615.42      3.4796749      36.647584      25.827717      12.379       
-807624.5       3.6781223      35.466212      25.859199      11.978872    
-807629.96      2.9183992      35.108864      25.854571      11.578806    
-807637.15      2.929804       34.984984      25.853497      11.178797    
-807634.42      3.8457753      36.245907      25.887414      10.778814    
-807633.9       2.7335214      34.327144      25.903263      10.378877    
-807623.84      3.7594342      35.656898      25.924481      9.9789813    
-807620.77      3.6094725      35.779214      25.926753      9.5791436    
-807614.68      4.1792212      36.840894      25.845942      9.1794232    
-807619.47      4.5560522      36.544686      25.897716      8.7797209    
-807623.77      3.5875127      36.125321      25.85883       8.3801006    
-807632.51      3.805031       35.680273      25.834451      7.9805493    
-807633.36      3.6336261      36.059896      25.866771      7.5810309    
-807636.68      3.0198762      35.192335      25.915978      7.1815386    
-807630.51      2.8320218      35.213422      25.891815      6.7821154    
-807624.98      3.0875847      35.454873      25.912976      6.3827363    
-807620.21      3.2459004      35.351008      25.893777      5.9834216    
-807616.48      3.272917       36.353638      25.924335      5.5841479    
-807621.05      3.3804457      35.643164      25.883643      5.1849459    
-807626.99      3.379619       35.20289       25.897219      4.7857916    
-807632.91      3.156818       35.007209      25.853077      4.3867053    
-807635.4       3.7695266      36.076737      25.915608      3.9876502    
-807634.86      3.0321348      35.449164      25.935243      3.5886434    
-807629.61      2.9435433      35.615137      25.938969      3.1896903    
-807626.67      2.6945669      34.959683      25.972602      2.7907847    
-807616.55      3.6872507      36.072289      25.974124      2.3919349    
-807620.11      3.0217926      35.312212      25.960151      1.9931432    
-807620.03      3.1623157      36.305481      25.930072      1.5944099    
-807629.01      3.7871513      35.076995      25.917048      1.1957305    
-807631.65      3.7427276      35.677188      25.965989      0.79709959   
-807636.65      2.9210778      35.032649      25.964614      0.39852292   
-807633.69      3.3962401      35.323976      25.999036      0            
Loop time of 199.249 on 32 procs for 5000 steps with 1080 atoms

Performance: 4.336 ns/day, 5.535 hours/ns, 25.094 timesteps/s, 27.102 katom-step/s
67.9% CPU use with 32 MPI tasks x 1 OpenMP threads

MPI task timing breakdown:
Section |  min time  |  avg time  |  max time  |%varavg| %total
---------------------------------------------------------------
Pair    | 100.68     | 143.87     | 192.66     | 312.0 | 72.20
Neigh   | 0          | 0          | 0          |   0.0 |  0.00
Comm    | 4.0336     | 52.802     | 95.949     | 514.9 | 26.50
Output  | 0.030102   | 0.030721   | 0.032079   |   0.2 |  0.02
Modify  | 2.1641     | 2.198      | 2.2336     |   1.2 |  1.10
Other   |            | 0.3512     |            |       |  0.18

Nlocal:          33.75 ave          48 max          21 min
Histogram: 8 8 0 0 0 0 0 8 0 8
Nghost:        1106.25 ave        1119 max        1092 min
Histogram: 8 0 8 0 0 0 0 0 8 8
Neighs:              0 ave           0 max           0 min
Histogram: 32 0 0 0 0 0 0 0 0 0
FullNghs:       5494.5 ave        7896 max        3378 min
Histogram: 8 8 0 0 0 0 0 8 0 8

Total # of neighbors = 175824
Ave neighs/atom = 162.8
Neighbor list builds = 0
Dangerous builds = 0

reset_timestep 0


variable interval equal 1000
thermo 10

variable nintervals equal $(v_PERIOD/v_interval)
variable nintervals equal 100
variable efield equal 1e-2*36.36*cos((step/${PERIOD})*2*3.14)
variable efield equal 1e-2*36.36*cos((step/100000)*2*3.14)
fix born all addbornforce 0.0 0.0 v_efield

variable Px equal f_born[1]+c_polarization[1]
variable Py equal f_born[2]+c_polarization[2]
variable Pz equal (f_born[3]+c_polarization[3])/vol
variable pe equal pe

fix aveP all ave/time 1 $(v_interval/2) ${interval} v_efield v_Pz v_pe f_born file Pz.${MODEL}.${STRUCTURE}.${TEMP}.$L.${ITER}
fix aveP all ave/time 1 500 ${interval} v_efield v_Pz v_pe f_born file Pz.${MODEL}.${STRUCTURE}.${TEMP}.$L.${ITER}
fix aveP all ave/time 1 500 1000 v_efield v_Pz v_pe f_born file Pz.${MODEL}.${STRUCTURE}.${TEMP}.$L.${ITER}
fix aveP all ave/time 1 500 1000 v_efield v_Pz v_pe f_born file Pz.BaTiO3-E0.${STRUCTURE}.${TEMP}.$L.${ITER}
fix aveP all ave/time 1 500 1000 v_efield v_Pz v_pe f_born file Pz.BaTiO3-E0.BaTiO3-sc333.${TEMP}.$L.${ITER}
fix aveP all ave/time 1 500 1000 v_efield v_Pz v_pe f_born file Pz.BaTiO3-E0.BaTiO3-sc333.340.$L.${ITER}
fix aveP all ave/time 1 500 1000 v_efield v_Pz v_pe f_born file Pz.BaTiO3-E0.BaTiO3-sc333.340.2.${ITER}
fix aveP all ave/time 1 500 1000 v_efield v_Pz v_pe f_born file Pz.BaTiO3-E0.BaTiO3-sc333.340.2.2

thermo_style custom step time temp press pe f_born v_efield v_Pz spcpu cpuremain

# dump 4a all custom 1000 dump.hyst.${MODEL}.${STRUCTURE}.${TEMP}.$L.${ITER}.bin id type xu yu zu fx fy fz
# dump_modify 4a sort id

fix nvt all nvt temp ${TEMP} ${TEMP} $(100*dt)
fix nvt all nvt temp 340 ${TEMP} $(100*dt)
fix nvt all nvt temp 340 340 $(100*dt)
fix nvt all nvt temp 340 340 0.2000000000000000111

run $(v_PERIOD)
run 100000
WARNING: non-constant efield is experimental, strongly distrust scalar/vector output (src/fix_addbornforce.cpp:193)
Per MPI rank memory allocation (min/avg/max) = 3.516 | 3.516 | 3.516 Mbytes
   Step          Time           Temp          Press          PotEng         f_born        v_efield         v_Pz          S/CPU         CPULeft    
         0   0              330.75532      130735.58     -807633.69     -295.53229      0.3636         0.055581286    0              0            
        10   0.02           335.133        131703.26     -807630.73     -299.23377      0.36359993     0.056277441    29.274344      3415.6383    
        20   0.04           339.78161      139443.11     -807622.72     -307.83342      0.36359971     0.057894827    29.280984      3414.9022    
        30   0.06           340.96204      139987.63     -807620.74     -310.05775      0.36359935     0.058313217    29.242633      3415.9184    
        40   0.08           338.91188      142829        -807618.15     -312.21817      0.36359885     0.058719614    29.306131      3414.4051    
        50   0.1            329.75897      139577.73     -807620.23     -308.89843      0.36359821     0.058095365    29.283181      3413.8951    
        60   0.12           335.78523      135973.43     -807625.51     -304.35709      0.36359742     0.057241386    29.287734      3413.3538    
        70   0.14           341.77396      129833.1      -807633.38     -297.21117      0.36359649     0.055897575    29.27          3413.1642    
        80   0.16           331.78406      128702.83     -807635.1      -294.02717      0.36359541     0.055298912    29.337975      3411.9473    
        90   0.18           331.45865      130005.3      -807633.03     -295.93098      0.36359419     0.055657156    29.352662      3410.7367    
       100   0.2            344.50396      132018.44     -807630.55     -300.15037      0.36359283     0.056450929    29.308086      3410.217     
       110   0.22           356.51156      137474.8      -807626.22     -305.93907      0.36359132     0.05753988     29.214512      3410.7225    
       120   0.24           335.06284      140132.27     -807620.14     -308.97722      0.36358968     0.058111547    29.246402      3410.7761    
       130   0.26           338.83302      143336.24     -807617.21     -312.19181      0.36358788     0.058716426    29.251845      3410.7202    
       140   0.28           337.88144      138783.94     -807621.3      -307.77271      0.36358595     0.057885599    29.347085      3409.8315    
       150   0.3            344.173        136046.49     -807626.76     -302.83692      0.36358387     0.056957606    29.35268       3408.9733    
       160   0.32           342.87663      129469.09     -807633.48     -295.70021      0.36358165     0.055615674    29.344775      3408.2365    
       170   0.34           338.36238      130852.46     -807632.1      -296.07375      0.36357928     0.055686291    29.355875      3407.4708    
       180   0.36           332.60347      128867.45     -807631.33     -295.84635      0.36357677     0.055643905    29.331081      3406.912     
       190   0.38           361.01304      134697.28     -807629.43     -301.28037      0.36357412     0.056666371    29.363846      3406.1763    
       200   0.4            345.18016      136374.97     -807623.13     -305.20132      0.36357132     0.057404285    29.365014      3405.4734    
       210   0.42           352.46354      143778.16     -807615.72     -313.21864      0.36356838     0.058912711    29.356032      3404.8546    
       220   0.44           348.2891       140511.94     -807618        -310.17414      0.3635653      0.058340571    29.305315      3404.5284    
       230   0.46           346.46369      141139.41     -807619.13     -308.31165      0.36356207     0.057990772    29.202554      3404.7213    
       240   0.48           352.46497      132910.32     -807627.93     -300.32257      0.3635587      0.056488617    29.295218      3404.4204    
       250   0.5            341.69547      133614.27     -807627.99     -298.39267      0.36355519     0.056126158    29.302892      3404.0798    
       260   0.52           345.02148      127837.27     -807633        -293.86223      0.36355153     0.055274562    29.227626      3404.0767    
       270   0.54           355.70031      132756.57     -807630.86     -297.26196      0.36354773     0.055914625    29.234399      3404.0188    
       280   0.56           348.83895      133543.99     -807626.18     -301.07034      0.36354379     0.05663159     29.281612      3403.7445    
       290   0.58           361.06848      140377.36     -807619.85     -308.96485      0.3635397      0.058117208    29.267367      3403.5224    
       300   0.6            362.17747      140284.25     -807619.27     -309.81262      0.36353547     0.058277354    29.26324       3403.3085    
       310   0.62           352.91105      142401.27     -807616.65     -311.09673      0.3635311      0.058519607    29.306479      3402.9244    
       320   0.64           352.84207      137291.15     -807622.21     -305.68257      0.36352658     0.057501877    29.373503      3402.3002    
       330   0.66           346.68689      135366.04     -807625.13     -301.92969      0.36352192     0.056796652    29.32547       3401.8617    
       340   0.68           346.87026      130641.69     -807631.31     -295.98749      0.36351712     0.055679587    29.292227      3401.5423    
       350   0.7            343.71656      130274.37     -807632.08     -294.82479      0.36351217     0.055461622    29.315503      3401.1445    
       360   0.72           344.96849      132201.24     -807629.93     -297.35602      0.36350708     0.055938573    29.323903      3400.723     
       370   0.74           353.79568      135570.31     -807626.19     -302.57774      0.36350185     0.056921701    29.271298      3400.4705    
       380   0.76           354.35895      140101.78     -807621.17     -307.88114      0.36349647     0.057920246    29.226677      3400.3504    
       390   0.78           348.36508      140750.91     -807618.52     -309.87346      0.36349095     0.058295937    29.257003      3400.1282    
       400   0.8            345.00647      141097.72     -807617.82     -310.28706      0.36348529     0.058374658    29.322131      3399.7109    
       410   0.82           345.70478      136615.63     -807622.76     -305.65983      0.36347948     0.05750505     29.324137      3399.2918    
       420   0.84           353.81572      133700.18     -807629.02     -300.64063      0.36347353     0.056561693    29.29028       3398.9697    
       430   0.86           335.37614      129070.86     -807631.34     -295.93423      0.36346744     0.055677178    29.265106      3398.7149    
       440   0.88           345.617        131063.78     -807632.52     -296.24215      0.3634612      0.055736066    29.206038      3398.6124    
       450   0.9            335.21012      130445.97     -807630.24     -297.31161      0.36345482     0.05593826     29.245769      3398.3963    
       460   0.92           339.99719      138487.88     -807624.07     -304.0775       0.3634483      0.057212269    29.292042      3398.058     
       470   0.94           335.04252      137612.09     -807621.39     -306.29445      0.36344163     0.057630445    29.369309      3397.5293    
       480   0.96           357.04592      143294.16     -807619.02     -311.63265      0.36343482     0.058635947    29.407208      3396.9175    
       490   0.98           334.28805      138026.58     -807620.25     -307.45388      0.36342786     0.057850787    29.440192      3396.2393    
       500   1              350.34307      138327.26     -807623.5      -306.3214       0.36342077     0.057638824    29.400536      3395.6659    
       510   1.02           347.66512      130217.6      -807631.24     -9550.0471      0.36341353     0.05615675     29.267457      3395.4033    
       520   1.04           346.92914      132653.07     -807630.88     -9555.0769      0.36340614     0.056187468    29.27711       3395.1163    
       530   1.06           333.96792      127499.29     -807632.58     -9452.1776      0.36339862     0.055583532    29.219186      3394.9541    
       540   1.08           332.32749      135429.55     -807627.29     -9612.4306      0.36339095     0.056527094    29.194735      3394.838     
       550   1.1            343.1272       133532.97     -807627.36     -9667.788       0.36338313     0.056853852    29.144544      3394.8205    
       560   1.12           346.50705      141137.22     -807620.47     -9900.2033      0.36337518     0.058221903    29.185024      3394.7068    
       570   1.14           334.3836       138735.17     -807620.03     -9868.4514      0.36336707     0.058036468    29.207385      3394.5393    
       580   1.16           337.22505      141378.44     -807619.77     -9885.739       0.36335883     0.058139455    29.260453      3394.2593    
       590   1.18           356.39062      132708.06     -807629.79     -9655.5866      0.36335044     0.056787207    29.233402      3394.0305    
       600   1.2            341.22026      133800.35     -807628.55     -9626.2105      0.36334191     0.056615767    29.221029      3393.8219    
       610   1.22           327.85267      128867.18     -807631.94     -9464.5457      0.36333324     0.055666277    29.172762      3393.7012    
       620   1.24           327.36157      131549.94     -807630.3      -9512.9575      0.36332442     0.055952372    29.129271      3393.6554    
       630   1.26           347.00694      130409.27     -807631.92     -9555.2827      0.36331546     0.056202702    29.159662      3393.5437    
       640   1.28           339.16783      137488.79     -807622.99     -9806.3132      0.36330636     0.05768067     29.1824        3393.3833    
       650   1.3            336.83541      138878.96     -807620.3      -9885.8658      0.36329711     0.058150078    29.222788      3393.1448    
       660   1.32           342.4163       140893.71     -807620.4      -9906.7156      0.36328772     0.058274226    29.288884      3392.787     
       670   1.34           336.80736      137673.89     -807622.42     -9819.8827      0.36327819     0.057764965    29.314735      3392.3851    
       680   1.36           341.96716      135306.5      -807626.13     -9727.2446      0.36326851     0.05722155     29.30877       3391.9951    
       690   1.38           328.03248      132017.27     -807628.9      -9577.4934      0.36325869     0.056342146    29.281732      3391.6518    
       700   1.4            326.44758      129460.65     -807633.24     -9433.1308      0.36324873     0.055494417    29.225556      3391.4018    
       710   1.42           341.45789      130671.69     -807633.28     -9498.7418      0.36323863     0.055881956    29.270879      3391.075     
       720   1.44           338.52617      132792.06     -807628.96     -9627.2329      0.36322838     0.056639479    29.275236      3390.7408    
       730   1.46           345.85872      138237.12     -807624.29     -9809.585       0.36321798     0.057713954    29.281648      3390.3962    
       740   1.48           342.29922      137900.19     -807623.58     -9819.9972      0.36320745     0.057776889    29.269874      3390.0702    
       750   1.5            338.30623      142260.36     -807619.66     -9925.8425      0.36319677     0.058401358    29.284421      3389.7213    
       760   1.52           338.00346      136847.86     -807623.81     -9797.4468      0.36318595     0.057647625    29.300578      3389.3479    
       770   1.54           331.72291      137154.34     -807625.61     -9707.7843      0.36317498     0.057121781    29.31225       3388.9579    
       780   1.56           331.31379      129329.01     -807633.78     -9447.9416      0.36316387     0.055594535    29.324371      3388.5512    
       790   1.58           335.46921      131247.37     -807632.91     -9491.0722      0.36315262     0.055850059    29.285553      3388.203     
       800   1.6            330.30159      128220.36     -807632.25     -9493.0936      0.36314122     0.055863707    29.232065      3387.9324    
       810   1.62           346.91113      135772.41     -807628.86     -9670.9356      0.36312968     0.056912057    29.231946      3387.6602    
       820   1.64           326.42809      135332.09     -807625.06     -9705.523       0.363118       0.057117436    29.200868      3387.4303    
       830   1.66           344.55491      142333.43     -807620.41     -9929.9436      0.36310618     0.058440064    29.293342      3387.0685    
       840   1.68           330.70443      138568.16     -807619.96     -9886.4186      0.36309421     0.058185827    29.257625      3386.7564    
       850   1.7            329.57866      139976.18     -807620.64     -9852.2447      0.3630821      0.057986633    29.21447       3386.5026    
       860   1.72           339.3852       132317.94     -807630.66     -9575.0579      0.36306984     0.056357117    29.175407      3386.2994    
       870   1.74           336.84743      132021.22     -807630.55     -9558.5489      0.36305745     0.056261869    29.201023      3386.0589    
       880   1.76           331.01294      128450.04     -807632.43     -9470.2939      0.3630449      0.055744324    29.210161      3385.804     
       890   1.78           344.3877       131564.96     -807632.68     -9513.7951      0.36303222     0.056002338    29.210489      3385.5466    
       900   1.8            344.62028      132963.26     -807630.72     -9574.6291      0.36301939     0.056362425    29.23345       3385.2578    
       910   1.82           339.64961      138579.97     -807622.12     -9820.4793      0.36300642     0.057811723    29.232716      3384.9687    
       920   1.84           336.39152      139885.41     -807618.86     -9906.3683      0.36299331     0.058319446    29.231552      3384.6799    
       930   1.86           339.82945      141059.84     -807620.87     -9847.6431      0.36298005     0.057975845    29.219871      3384.4045    
       940   1.88           350.92869      137748.52     -807625.39     -9744.4278      0.36296665     0.057370305    29.233235      3384.1113    
       950   1.9            326.6021       135061.59     -807624.2      -9668.6732      0.36295311     0.056926423    29.248319      3383.7986    
       960   1.92           348.71259      130537.66     -807630.79     -9548.7912      0.36293942     0.056222712    29.271914      3383.4569    
       970   1.94           338.60185      130091.74     -807632.54     -9438.3318      0.36292559     0.055574451    29.290825      3383.0926    
       980   1.96           340.39604      132695.06     -807631.02     -9488.672       0.36291162     0.055873014    29.298233      3382.7202    
       990   1.98           339.81264      134221.54     -807624.62     -9687.0805      0.3628975      0.05704354     29.296374      3382.3505    
      1000   2              353.21107      139140.2      -807621.5      -9836.9383      0.36288325     0.057928272    29.178315      3382.118     
      1010   2.02           344.81266      138785.09     -807621.89     -305.73617      0.36286884     0.057616206    29.351199      3381.6856    
      1020   2.04           352.47752      140289.02     -807621.25     -307.16771      0.3628543      0.057888301    29.324257      3381.2854    
      1030   2.06           345.78277      135209.84     -807622.99     -304.50368      0.36283961     0.057388566    29.362888      3380.8431    
      1040   2.08           349.30957      135588.24     -807624.96     -302.7732       0.36282478     0.057064761    29.337902      3380.4305    
      1050   2.1            343.60648      129919.2      -807632.56     -294.35858      0.3628098      0.055481117    29.328894      3380.029     
      1060   2.12           329.48654      133896.89     -807628.33     -296.41334      0.36279469     0.05587073     29.268946      3379.6939    
      1070   2.14           344.81781      131250.95     -807628.54     -298.43917      0.36277943     0.056254944    29.297262      3379.3282    
      1080   2.16           354.50917      137905.47     -807623.62     -304.5429       0.36276402     0.057407916    29.340794      3378.9165    
      1090   2.18           353.26585      136168.48     -807624.41     -303.67623      0.36274848     0.057246998    29.346663      3378.4999    
      1100   2.2            344.68957      142127.2      -807618.37     -308.37365      0.36273279     0.05813504     29.338846      3378.0929    
      1110   2.22           345.0214       138120.97     -807619.96     -307.02943      0.36271695     0.057884151    29.321692      3377.7048    
      1120   2.24           354.92885      138995.7      -807623.22     -305.13162      0.36270098     0.057528892    29.278085      3377.3624    
      1130   2.26           333.50353      132529.03     -807628.18     -297.40365      0.36268486     0.056074368    29.300445      3376.9972    
      1140   2.28           337.72159      134019.42     -807628.86     -297.33983      0.3626686      0.056064848    29.325782      3376.6069    
      1150   2.3            334.21528      129997.8      -807629.97     -296.06983      0.36265219     0.055827909    29.369086      3376.1742    
      1160   2.32           346.44515      134190.17     -807627.68     -300.20076      0.36263564     0.056609435    29.368007      3375.7441    
      1170   2.34           340.4536       134843.69     -807626.17     -301.21731      0.36261895     0.056803742    29.365297      3375.3183    
      1180   2.36           347.47054      139658        -807622        -306.57148      0.36260212     0.057816118    29.353805      3374.905     
      1190   2.38           349.23475      138477.76     -807621.24     -308.01173      0.36258514     0.058090455    29.360859      3374.4862    
      1200   2.4            338.7866       139796.03     -807621.2      -306.86624      0.36256802     0.05787715     29.363021      3374.0666    
      1210   2.42           349.08296      134078.84     -807628.33     -301.61342      0.36255076     0.056889139    29.354533      3373.6564    
      1220   2.44           328.04436      132610.61     -807628.31     -298.98763      0.36253335     0.05639658     29.321344      3373.2785    
      1230   2.46           333.63991      130162.07     -807631.63     -296.77542      0.3625158      0.055982011    29.346152      3372.8781    
      1240   2.48           329.12037      131166.85     -807631.33     -296.67505      0.36249811     0.05596581     29.340535      3372.4838    
      1250   2.5            341.10666      132708.88     -807631.01     -298.90436      0.36248028     0.056389129    29.348823      3372.0828    
      1260   2.52           330.61305      136240.38     -807624.8      -303.82239      0.3624623      0.057319772    29.300649      3371.7267    
      1270   2.54           336.46655      138679.54     -807622.25     -307.28472      0.36244418     0.057975881    29.295487      3371.3754    
      1280   2.56           333.64455      138989.42     -807621.53     -307.73364      0.36242592     0.058063505    29.345653      3370.9793    
      1290   2.58           330.6394       138689.14     -807623.83     -305.04519      0.36240751     0.057559168    29.367146      3370.565     
      1300   2.6            334.12591      134648.12     -807626.88     -302.48411      0.36238896     0.057078838    29.388297      3370.1332    
      1310   2.62           337.30262      132531.9      -807630.17     -299.65585      0.36237027     0.056548061    29.372411      3369.7166    
      1320   2.64           323.50799      130389.35     -807632.5      -295.39902      0.36235143     0.055747653    29.373894      3369.3       
      1330   2.66           326.23851      131909.67     -807630.41     -297.7107       0.36233245     0.056186855    29.357548      3368.8985    
      1340   2.68           325.07288      131911.91     -807629.11     -298.96221      0.36231333     0.056426029    29.340277      3368.5127    
      1350   2.7            329.27137      138542.7      -807622.9      -305.57917      0.36229407     0.057677979    29.351404      3368.1182    
      1360   2.72           332.17421      137171.43     -807623.54     -305.39442      0.36227466     0.057646197    29.322107      3367.7491    
      1370   2.74           340.01855      140642.24     -807622.64     -307.12608      0.36225511     0.057976192    29.365135      3367.3445    
      1380   2.76           341.75642      135999.18     -807626.1      -303.92328      0.36223542     0.057374719    29.33471       3366.966     
      1390   2.78           328.42537      136876.49     -807625.23     -302.71924      0.36221558     0.05715055     29.346477      3366.5783    
      1400   2.8            333.39477      129847.67     -807632.23     -296.32988      0.3621956      0.055947385    29.313552      3366.2183    
      1410   2.82           322.61533      132504.51     -807631.16     -295.61878      0.36217548     0.055816229    29.231134      3365.9258    
      1420   2.84           334.19357      130545.13     -807631.2      -297.20592      0.36215522     0.056119039    29.286661      3365.5876    
      1430   2.86           333.54512      135923.85     -807624.97     -303.08109      0.36213481     0.057231625    29.286865      3365.2492    
      1440   2.88           331.09464      136291.48     -807624.22     -303.42496      0.36211426     0.057299811    29.307198      3364.8945    
      1450   2.9            341.24249      139846.47     -807622.41     -306.3937       0.36209357     0.057863745    29.311392      3364.5367    
      1460   2.92           345.88027      137610.75     -807622.58     -306.77828      0.36207273     0.057939709    29.339116      3364.1573    
      1470   2.94           344.26488      137730.66     -807622.84     -306.08358      0.36205176     0.057811853    29.367357      3363.7565    
      1480   2.96           327.41182      133460.94     -807627.24     -299.1547       0.36203064     0.05650645     29.362154      3363.3606    
      1490   2.98           336.42255      131708.39     -807631.13     -296.24719      0.36200937     0.055960546    29.368315      3362.9607    
      1500   3              338.61021      130870.38     -807630.97     -296.5969       0.36198796     0.056029918    29.366399      3362.563     
      1510   3.02           338.75408      132013.23     -807628.81     -9555.6986      0.36196642     0.056414625    29.306622      3362.2113    
      1520   3.04           340.41957      135418.16     -807627.01     -9613.8853      0.36194472     0.056761547    29.234763      3361.9142    
      1530   3.06           344.02492      136505.72     -807625.47     -9675.3456      0.36192289     0.057127863    29.188664      3361.6512    
      1540   3.08           344.32274      141129.67     -807619.76     -9853.1608      0.36190091     0.058181302    29.240423      3361.3484    
      1550   3.1            344.63921      137655.58     -807620.97     -9815.8993      0.36187879     0.057964821    29.309142      3360.9943    
      1560   3.12           344.19203      137986.79     -807623.86     -9712.5641      0.36185653     0.057358135    29.313342      3360.6371    
      1570   3.14           338.14278      132326.22     -807629.9      -9491.4813      0.36183412     0.056055989    29.291646      3360.296     
      1580   3.16           337.75007      132899.3      -807628.5      -9526.4863      0.36181157     0.056266232    29.24016       3359.9924    
      1590   3.18           349.76518      128498.98     -807632.18     -9463.1303      0.36178888     0.055895538    29.200504      3359.717     
      1600   3.2            339.79985      133339.56     -807628.65     -9525.9282      0.36176605     0.056270016    29.212145      3359.4324    
      1610   3.22           344.83835      133578.05     -807628.03     -9570.2248      0.36174307     0.056535268    29.246467      3359.1225    
      1620   3.24           346.45518      140062.35     -807620.88     -9801.3261      0.36171995     0.057904179    29.29188       3358.7801    
      1630   3.26           347.67721      138744.8      -807621.01     -9805.019       0.36169669     0.057929721    29.28381       3358.4433    
      1640   3.28           347.79705      140291.42     -807622.2      -9760.7506      0.36167329     0.057671908    29.303647      3358.0926    
      1650   3.3            339.88697      134265.44     -807626.07     -9602.8719      0.36164974     0.056742768    29.261744      3357.7711    
      1660   3.32           337.09493      134145.16     -807626.33     -9581.349       0.36162605     0.0566193      29.281654      3357.4357    
      1670   3.34           343.24765      130679.4      -807630.4      -9478.1079      0.36160222     0.056012906    29.248684      3357.1228    
      1680   3.36           346.46034      130960.71     -807632.02     -9440.1626      0.36157824     0.055792359    29.296297      3356.7771    
      1690   3.38           348.39497      132044.41     -807631.02     -9484.6505      0.36155413     0.056059026    29.292467      3356.434     
      1700   3.4            342.80009      137208.08     -807623.64     -9700.464       0.36152987     0.057338439    29.250452      3356.1193    
      1710   3.42           345.34407      138336.05     -807621.97     -9772.3138      0.36150546     0.057767035    29.296626      3355.7733    
      1720   3.44           341.07324      139081.92     -807621.75     -9765.1221      0.36148092     0.057728442    29.314375      3355.4155    
      1730   3.46           339.37188      137414.6      -807623.27     -9719.3677      0.36145623     0.057461881    29.301482      3355.0665    
      1740   3.48           334.57807      135248.01     -807624.99     -9654.3217      0.3614314      0.057081244    29.290699      3354.7246    
      1750   3.5            346.37557      132365.73     -807630.16     -9553.8948      0.36140643     0.056491372    29.273554      3354.394     
      1760   3.52           341.67024      130637.4      -807634.07     -9423.0084      0.36138131     0.055721324    29.278911      3354.0598    
      1770   3.54           326.88683      131917.19     -807631.25     -9457.7843      0.36135605     0.055930875    29.302586      3353.7101    
      1780   3.56           334.42906      132662.91     -807629.01     -9576.5984      0.36133065     0.056637491    29.271034      3353.3809    
      1790   3.58           335.99238      136467.96     -807625.49     -9705.1331      0.36130511     0.057401723    29.291808      3353.0382    
      1800   3.6            321.90946      137381.42     -807623.61     -9711.6351      0.36127942     0.057444264    29.276397      3352.7054    
      1810   3.62           321.79608      139171.29     -807622.01     -9767.5656      0.3612536      0.057779223    29.309874      3352.3512    
      1820   3.64           324.53042      135330.08     -807624.05     -9722.001       0.36122763     0.057513824    29.273554      3352.0201    
      1830   3.66           332.13101      134572.73     -807627.04     -9659.4279      0.36120151     0.057147782    29.283331      3351.6827    
      1840   3.68           328.21021      130435.15     -807632.89     -9457.6279      0.36117526     0.055957947    29.279139      3351.3479    
      1850   3.7            331.67591      131342.99     -807633.56     -9451.7801      0.36114886     0.055927435    29.261708      3351.0238    
      1860   3.72           315.28455      130924.85     -807629.88     -9500.4932      0.36112232     0.056219808    29.256387      3350.7029    
      1870   3.74           330.47509      134854.72     -807628.14     -9621.5866      0.36109564     0.056940594    29.198992      3350.4169    
      1880   3.76           328.06897      134755.3      -807627.62     -9626.5242      0.36106881     0.056974047    29.211412      3350.1228    
      1890   3.78           322.76543      138099.15     -807622.81     -9751.4927      0.36104184     0.057717977    29.227745      3349.8181    
      1900   3.8            331.23475      137065.27     -807623.06     -9780.8524      0.36101474     0.057896101    29.253094      3349.4978    
      1910   3.82           335.24611      137141.57     -807624.93     -9732.5692      0.36098748     0.057614646    29.305417      3349.1459    
      1920   3.84           341.44659      132551.62     -807631.21     -9554.0849      0.36096009     0.056562351    29.295541      3348.8001    
      1930   3.86           330.89956      131686.92     -807630.7      -9516.4431      0.36093255     0.056343801    29.306502      3348.4477    
      1940   3.88           327.65468      130502.76     -807630.68     -9497.0056      0.36090487     0.05623303     29.317862      3348.0888    
      1950   3.9            337.81119      131728.41     -807631.17     -9517.6064      0.36087705     0.056359355    29.331778      3347.722     
      1960   3.92           325.9502       133555.27     -807628.57     -9540.4522      0.36084909     0.056499017    29.291274      3347.379     
      1970   3.94           328.44804      136931.81     -807625.24     -9649.2224      0.36082098     0.05714761     29.24228       3347.0645    
      1980   3.96           334.0281       138211.89     -807622.01     -9769.6279      0.36079273     0.057865243    29.277702      3346.7292    
      1990   3.98           326.94654      138453.82     -807621.21     -9753.3406      0.36076434     0.05777332     29.267157      3346.3999    
      2000   4              324.9807       137181.55     -807623.56     -9658.8096      0.36073581     0.057217897    29.265716      3346.0713    
      2010   4.02           344.89318      132721.77     -807629.28     -298.62854      0.36070713     0.056614034    29.267833      3345.7414    
      2020   4.04           337.77343      132410        -807628.59     -298.01148      0.36067831     0.056501565    29.275798      3345.4068    
      2030   4.06           335.04307      130945.42     -807630.4      -295.62313      0.36064935     0.056053247    29.325103      3345.0445    
      2040   4.08           339.81094      132889.64     -807630.49     -295.88189      0.36062025     0.056106837    29.349436      3344.6688    
      2050   4.1            351.71089      133152.1      -807629.45     -298.41996      0.36059101     0.056592711    29.334891      3344.3015    
      2060   4.12           344.11764      137578.53     -807623.29     -303.36342      0.36056162     0.057534883    29.265201      3343.9731    
      2070   4.14           319.82954      138603.1      -807619.86     -303.3687       0.36053209     0.057540596    29.2718        3343.6409    
      2080   4.16           347.21303      138651.03     -807623.83     -302.9279       0.36050242     0.057461717    29.305657      3343.29      
      2090   4.18           341.19334      135337.78     -807625.2      -300.69092      0.36047261     0.057042107    29.316307      3342.9334    
      2100   4.2            342.94401      135398.6      -807625.75     -300.17857      0.36044265     0.056949645    29.2901        3342.5912    
      2110   4.22           337.65115      130717.35     -807629.91     -295.21768      0.36041256     0.056013147    29.290375      3342.2488    
      2120   4.24           342.79746      132525.67     -807630.69     -294.922        0.36038232     0.05596174     29.289644      3341.9069    
      2130   4.26           344.07892      131938.58     -807630.06     -295.79111      0.36035193     0.056131386    29.277343      3341.5715    
      2140   4.28           346.29192      135809.18     -807624.85     -301.22297      0.36032141     0.057167016    29.264322      3341.2431    
      2150   4.3            340.37353      136124.05     -807623.26     -301.97688      0.36029075     0.057314975    29.310132      3340.8901    
      2160   4.32           340.96731      139124.19     -807622.39     -302.89449      0.36025994     0.057494052    29.35307       3340.5148    
      2170   4.34           339.8649       137336.94     -807622.29     -302.85862      0.36022899     0.057492184    29.360125      3340.136     
      2180   4.36           341.47614      136472.3      -807623.53     -301.84222      0.36019789     0.057304184    29.288021      3339.7952    
      2190   4.38           339.73762      133143.12     -807627.99     -297.10219      0.36016666     0.056409189    29.36378       3339.415     
      2200   4.4            349.2496       132247.62     -807632        -294.41642      0.36013528     0.055904128    29.357578      3339.0385    
      2210   4.42           321.94341      132040.08     -807627.89     -294.78768      0.36010377     0.055979521    29.369754      3338.6559    
      2220   4.44           346.46037      133201.45     -807628.9      -297.16836      0.36007211     0.05643657     29.365851      3338.2758    
      2230   4.46           342.26847      134840.17     -807626.74     -298.84987      0.3600403      0.056760925    29.333863      3337.9123    
      2240   4.48           339.83198      137171.8      -807623.32     -301.963        0.36000836     0.057357295    29.330654      3337.5507    
      2250   4.5            340.95355      138624.86     -807622.66     -302.85133      0.35997627     0.057531159    29.34          3337.1844    
      2260   4.52           343.79015      137551.66     -807622.65     -303.35558      0.35994404     0.057632109    29.343229      3336.8168    
      2270   4.54           346.0861       135874.79     -807625.65     -300.69613      0.35991167     0.057132       29.269467      3336.4865    
      2280   4.56           341.33567      132354.75     -807629.81     -296.00808      0.35987916     0.056246355    29.268162      3336.1566    
      2290   4.58           347.37197      131167.83     -807631.04     -295.73089      0.35984651     0.056198784    29.185719      3335.8679    
      2300   4.6            332.18824      131207.18     -807629.04     -295.89431      0.35981371     0.056234965    29.230066      3335.5566    
      2310   4.62           332.85735      133460.37     -807628.28     -296.9038       0.35978077     0.056431984    29.228932      3335.2456    
      2320   4.64           329.55815      134577.08     -807627.18     -297.80789      0.35974769     0.056609028    29.208677      3334.9442    
      2330   4.66           328.31777      137980.07     -807622.43     -302.64478      0.35971447     0.057533765    29.266613      3334.6142    
      2340   4.68           324.59731      137845.67     -807621.85     -303.03878      0.35968111     0.057614009    29.303336      3334.2662    
      2350   4.7            338.13446      137691.17     -807625.47     -301.46801      0.3596476      0.057320713    29.274093      3333.9324    
      2360   4.72           326.68428      133729.63     -807627.1      -298.57812      0.35961396     0.056776545    29.285631      3333.5929    
      2370   4.74           342.01516      133820.92     -807629.95     -298.10716      0.35958017     0.056692315    29.277385      3333.2574    
      2380   4.76           328.51952      130392.6      -807631.72     -294.84916      0.35954624     0.056078018    29.287302      3332.9172    
      2390   4.78           324.48423      132042.12     -807630.95     -295.20032      0.35951216     0.056150128    29.304667      3332.5686    
      2400   4.8            326.86755      131225.27     -807631.78     -295.12912      0.35947795     0.056141929    29.366327      3332.191     
      2410   4.82           329.11458      135646.43     -807627.02     -300.34623      0.35944359     0.057139831    29.349129      3331.8217    
      2420   4.84           319.60426      134845.29     -807624.89     -301.3668       0.35940909     0.057339495    29.380759      3331.4379    
      2430   4.86           343.45013      137753.73     -807626.51     -303.13126      0.35937446     0.057680769    29.348979      3331.0693    
      2440   4.88           317.72153      135908.03     -807625.68     -300.51794      0.35933967     0.057189033    29.353082      3330.6989    
      2450   4.9            332.28773      136871.26     -807626.47     -301.70506      0.35930475     0.057420523    29.329434      3330.3398    
      2460   4.92           318.00779      132461.52     -807629.24     -297.08692      0.35926969     0.056547117    29.308278      3329.9906    
      2470   4.94           326.34015      132415.29     -807632.18     -295.10638      0.35923448     0.05617565     29.332349      3329.6303    
      2480   4.96           315.45235      129896.55     -807632.29     -293.44872      0.35919913     0.055865599    29.386319      3329.2456    
      2490   4.98           322.34524      134346.83     -807629.23     -297.29833      0.35916364     0.056604065    29.400131      3328.855     
      2500   5              334.00249      132203.64     -807630.28     -297.78574      0.35912801     0.056702491    29.357753      3328.484     
[...]
     98740   197.48         348.35903      134271.27     -807626.89     -9641.9922      0.36236891     0.056860854    29.089116      43.467567    
     98750   197.5          341.50824      135426.67     -807624.88     -9675.2649      0.36238762     0.057054126    29.057928      43.122576    
     98760   197.52         344.0619       136349.68     -807624.82     -9689.2501      0.36240618     0.057133669    29.091811      42.777579    
     98770   197.54         357.14373      135491.53     -807626.92     -9678.814       0.36242459     0.057069231    29.113597      42.43258     
     98780   197.56         343.56156      135471.11     -807625.23     -9672.2815      0.36244287     0.057027839    29.086971      42.087585    
     98790   197.58         349.20078      135018.44     -807626.46     -9662.4489      0.362461       0.056967015    29.060293      41.742594    
     98800   197.6          339.32035      135579.54     -807624.94     -9666.5857      0.36247899     0.056988576    29.061579      41.397604    
     98810   197.62         339.92228      134040.25     -807625.98     -9638.6219      0.36249683     0.056820921    29.051519      41.052614    
     98820   197.64         336.72706      135381.2      -807625.38     -9646.0985      0.36251453     0.05686222     29.053417      40.707625    
     98830   197.66         348.1034       134347.64     -807626.61     -9660.8937      0.36253209     0.056946677    29.086929      40.362631    
     98840   197.68         351.68368      134753.6      -807626.96     -9669.4313      0.36254951     0.056994264    29.078039      40.017639    
     98850   197.7          349.33928      134485.78     -807627.13     -9658.1832      0.36256678     0.056925253    29.079185      39.672646    
     98860   197.72         353.21907      135526.56     -807626.76     -9693.6736      0.36258391     0.057131733    29.061508      39.327657    
     98870   197.74         331.69175      135315.66     -807624.55     -9677.4761      0.3626009      0.057033598    29.071993      38.982666    
     98880   197.76         345.23714      135910.84     -807626.15     -9693.9161      0.36261774     0.057127832    29.036684      38.63768     
     98890   197.78         327.7161       135266.33     -807624.73     -9676.7499      0.36263445     0.057024043    29.032922      38.292694    
     98900   197.8          342.55582      136037        -807626.5      -9699.7291      0.362651       0.057156846    29.056961      37.947706    
     98910   197.82         330.39729      134639.74     -807626.68     -9654.9918      0.36266742     0.056890652    29.101526      37.602712    
     98920   197.84         348.13705      133778.44     -807629.64     -9653.1298      0.36268369     0.056877128    29.171281      37.257709    
     98930   197.86         341.52672      133691.74     -807628.91     -9663.5665      0.36269982     0.05693609     29.170669      36.912707    
     98940   197.88         321.62453      135356.11     -807625.67     -9691.6347      0.36271581     0.057098946    29.147931      36.567708    
     98950   197.9          329.51079      135126.81     -807627.57     -9677.211       0.36273165     0.057011478    29.186432      36.222705    
     98960   197.92         316.41734      135351.35     -807626.17     -9673.4245      0.36274735     0.056986704    29.191175      35.877701    
     98970   197.94         327.725        134610.18     -807627.6      -9682.3393      0.36276291     0.057036776    29.145344      35.532704    
     98980   197.96         323.84307      134405.2      -807626.79     -9694.721       0.36277832     0.057107287    29.191942      35.187701    
     98990   197.98         340.74445      134398.25     -807629.65     -9679.8124      0.36279359     0.057017067    29.150566      34.842704    
     99000   198            333.37726      133990.15     -807629.46     -9654.4928      0.36280872     0.056865556    29.114083      34.497712    
     99010   198.02         330.96771      134859.49     -807628.03     -302.84427      0.3628237      0.057078327    29.144792      34.152716    
     99020   198.04         324.77172      134974.33     -807627.2      -302.77017      0.36283855     0.057062026    29.114035      33.807724    
     99030   198.06         321.05115      134680.91     -807627.47     -301.97101      0.36285324     0.056909105    29.07148       33.462737    
     99040   198.08         320.84942      134519.17     -807627.4      -301.98311      0.3628678      0.056909102    29.101514      33.117748    
     99050   198.1          325.51372      135022.84     -807627.1      -302.76415      0.36288221     0.057054025    29.085417      32.77276     
     99060   198.12         337.68389      134467.93     -807629.03     -302.38413      0.36289648     0.056980172    29.088655      32.427772    
     99070   198.14         332.32735      134863.04     -807627.97     -302.54281      0.36291061     0.057007854    29.029296      32.082791    
     99080   198.16         333.98505      134691.16     -807628.51     -302.0193       0.36292459     0.056907018    29.092296      31.737803    
     99090   198.18         337.65272      135228.83     -807627.6      -303.23656      0.36293843     0.057134197    29.137319      31.392811    
     99100   198.2          324.8007       135734.03     -807625.37     -303.50704      0.36295213     0.057183002    29.125365      31.04782     
     99110   198.22         324.446        135236.77     -807625.97     -302.62026      0.36296568     0.057013795    29.140148      30.702828    
     99120   198.24         337.2283       134990.99     -807627.67     -302.41394      0.36297909     0.05697282     29.136797      30.357837    
     99130   198.26         346.53393      134265        -807628.23     -302.94568      0.36299236     0.05707091     29.203749      30.012839    
     99140   198.28         342.92328      135453.64     -807627.15     -303.28301      0.36300548     0.057132394    29.160836      29.667846    
     99150   198.3          336.05855      134704.54     -807627.83     -301.45199      0.36301846     0.056785436    29.12088       29.322858    
     99160   198.32         343.86501      134585.72     -807627.74     -302.40096      0.3630313      0.056962181    29.139644      28.977868    
     99170   198.34         328.88392      134570.17     -807625.48     -302.47239      0.36304399     0.056973643    29.130182      28.632879    
     99180   198.36         327.30095      136273.47     -807623.54     -303.9782       0.36305655     0.057255298    29.13132       28.28789     
     99190   198.38         343.95688      134060.47     -807627.57     -302.13851      0.36306895     0.056906843    29.153242      27.9429      
     99200   198.4          329.5939       136126.43     -807623.93     -303.55963      0.36308122     0.057172574    29.135961      27.597912    
     99210   198.42         338.63474      135052.07     -807625.79     -302.84936      0.36309334     0.057036898    29.187652      27.252919    
     99220   198.44         346.37708      135205.81     -807626.18     -303.30628      0.36310532     0.057121067    29.160278      26.907929    
     99230   198.46         354.079        133133.9      -807629.19     -301.24885      0.36311715     0.056731746    29.193639      26.562937    
     99240   198.48         331.45152      136033.15     -807624.58     -302.57021      0.36312885     0.056978753    29.205334      26.217944    
     99250   198.5          346.83863      134093.31     -807626.63     -302.72709      0.3631404      0.057006483    29.207711      25.872952    
     99260   198.52         338.51985      136908.53     -807624.4      -303.61348      0.3631518      0.057171602    29.200962      25.52796     
     99270   198.54         350.93959      135082.88     -807627.26     -302.43676      0.36316306     0.056948256    29.182738      25.182971    
     99280   198.56         337.01365      136874.69     -807623.02     -304.68943      0.36317418     0.057370671    29.201307      24.83798     
     99290   198.58         343.03911      134809.92     -807625.36     -303.227        0.36318516     0.057093583    29.234911      24.492988    
     99300   198.6          351.96553      135866.12     -807626.98     -302.83011      0.36319599     0.057017152    29.172725      24.148       
     99310   198.62         337.88261      134168.13     -807626.25     -301.62873      0.36320668     0.056789284    29.157339      23.803015    
     99320   198.64         336.57172      135527.97     -807624.73     -302.89642      0.36321723     0.057026303    29.112153      23.458034    
     99330   198.66         354.25283      134086.07     -807627.76     -302.40272      0.36322763     0.056931724    29.05192       23.113058    
     99340   198.68         335.70906      135567.54     -807624.36     -303.20675      0.36323789     0.057081481    29.025818      22.768084    
     99350   198.7          338.11369      136276.05     -807624.4      -303.46072      0.36324801     0.057127703    29.079492      22.423106    
     99360   198.72         354.62395      135131.79     -807627.08     -303.13152      0.36325798     0.057064162    29.094572      22.078127    
     99370   198.74         351.20563      136416.11     -807625.49     -304.19263      0.36326781     0.057262366    29.156614      21.733143    
     99380   198.76         348.5607       134848.31     -807626.31     -303.1522       0.3632775      0.05706499     29.145581      21.388161    
     99390   198.78         341.66911      135798.63     -807625.17     -303.31605      0.36328704     0.057094334    29.138458      21.04318     
     99400   198.8          346.93441      132978.24     -807628.63     -300.72678      0.36329644     0.05660548     29.106193      20.698201    
     99410   198.82         343.0869       136680.73     -807625.74     -303.13163      0.3633057      0.057056688    29.158028      20.353219    
     99420   198.84         335.25562      134593.04     -807625.76     -302.21514      0.36331481     0.056882756    29.122402      20.00824     
     99430   198.86         332.25536      137255.99     -807624.16     -303.37302      0.36332378     0.057099283    29.121348      19.663261    
     99440   198.88         330.60386      134649.5      -807626.13     -301.39345      0.36333261     0.056725319    29.098143      19.318285    
     99450   198.9          354.60254      137285.1      -807625.51     -305.38724      0.36334129     0.057475619    29.088082      18.973309    
     99460   198.92         334.8947       133573.12     -807625.56     -302.90473      0.36334983     0.057007055    29.119157      18.628331    
     99470   198.94         348.35571      137249        -807626.91     -303.49622      0.36335823     0.057117054    29.096949      18.283355    
     99480   198.96         338.17945      133271.36     -807627.14     -302.22928      0.36336648     0.056877327    29.118896      17.938378    
     99490   198.98         333.87347      137130.35     -807624.6      -304.37299      0.3633746      0.05727948     29.111289      17.593402    
     99500   199            342.70606      133661.06     -807629.19     -301.48459      0.36338256     0.056734672    29.155973      17.248423    
     99510   199.02         325.04083      137104.69     -807625.08     -9709.6239      0.36339039     0.057098739    29.048224      16.903451    
     99520   199.04         325.41221      133889.71     -807626.66     -9675.9636      0.36339807     0.056899592    29.056766      16.558479    
     99530   199.06         327.18818      136051.53     -807625.73     -9722.9574      0.3634056      0.057174753    29.040094      16.213507    
     99540   199.08         339.58005      133349.87     -807629.47     -9670.7519      0.363413       0.056866608    29.075465      15.868534    
     99550   199.1          332.84134      136374.34     -807627.23     -9719.4565      0.36342025     0.057151864    29.083284      15.523561    
     99560   199.12         331.11022      135107.27     -807627.44     -9715.8861      0.36342736     0.057129752    29.069839      15.178589    
     99570   199.14         333.86018      135548.85     -807627.35     -9735.9246      0.36343432     0.057246482    29.102981      14.833615    
     99580   199.16         335.27311      134008.3      -807629.23     -9690.17        0.36344114     0.056976379    29.146637      14.488639    
     99590   199.18         324.14107      135487.03     -807627.15     -9711.2672      0.36344782     0.057099378    29.148993      14.143664    
     99600   199.2          321.57593      134647.48     -807626.95     -9708.9282      0.36345435     0.057084599    29.181882      13.798687    
     99610   199.22         325.13854      134479.99     -807628.41     -9679.8343      0.36346074     0.056912538    29.088371      13.453715    
     99620   199.24         330.352        133945.5      -807629.45     -9670.4393      0.36346699     0.056856323    29.078216      13.108744    
     99630   199.26         332.03902      133520.83     -807628.68     -9702.5386      0.3634731      0.057044089    29.082274      12.763773    
     99640   199.28         330.80407      136412.08     -807627.68     -9725.5731      0.36347906     0.057178578    29.050641      12.418804    
     99650   199.3          322.53461      135445.87     -807626.88     -9712.2627      0.36348487     0.057099409    29.077118      12.073833    
     99660   199.32         328.2531       136225.92     -807626.53     -9742.3358      0.36349055     0.057275318    29.026018      11.728865    
     99670   199.34         318.47976      134790.28     -807626.24     -9705.9475      0.36349608     0.057060523    28.994865      11.383898    
     99680   199.36         325.81915      136057.9      -807626.58     -9720.4964      0.36350147     0.057145208    29.010522      11.038931    
     99690   199.38         325.38593      134600.74     -807627.69     -9678.3202      0.36350671     0.05689644     29.036572      10.693962    
     99700   199.4          328.80007      135149.22     -807627.23     -9700.6007      0.36351181     0.057026621    29.053087      10.348994    
     99710   199.42         329.50469      133479.91     -807628.17     -9669.6288      0.36351677     0.056843773    29.057273      10.004025    
     99720   199.44         335.31135      135630.04     -807626.94     -9726.9056      0.36352158     0.057179722    29.0214        9.6590572    
     99730   199.46         335.57868      134585.9      -807627.34     -9711.0292      0.36352625     0.057085659    29.083969      9.3140878    
     99740   199.48         335.12741      136541.27     -807625.38     -9764.1411      0.36353078     0.05739716     29.107418      8.9691179    
     99750   199.5          333.18416      134806.34     -807627.13     -9696.3359      0.36353516     0.056997889    29.092733      8.6241487    
     99760   199.52         338.11865      136798.33     -807625.98     -9749.0706      0.3635394      0.05730721     29.157119      8.279178     
     99770   199.54         334.68115      134161.25     -807627.18     -9694.4723      0.3635435      0.056985627    29.114556      7.9342088    
     99780   199.56         331.13357      136483.08     -807625.88     -9710.7438      0.36354745     0.057080653    29.102614      7.5892402    
     99790   199.58         337.50033      132866.44     -807629.04     -9635.2354      0.36355126     0.056636213    29.091255      7.2442722    
     99800   199.6          343.36604      135747.42     -807627.31     -9710.6101      0.36355493     0.057078693    29.140931      6.8993032    
     99810   199.62         333.38336      134215.19     -807627.23     -9668.5226      0.36355845     0.056830753    29.105685      6.5543354    
     99820   199.64         338.13348      136471.69     -807625.95     -9722.2118      0.36356183     0.057145802    29.136756      6.2093672    
     99830   199.66         347.37328      134423.84     -807628.34     -9686.6255      0.36356507     0.056936124    29.114284      5.8643998    
     99840   199.68         335.69207      136797.71     -807624.73     -9745.3202      0.36356816     0.057280633    29.116196      5.5194327    
     99850   199.7          337.48119      135408.15     -807625.48     -9729.0296      0.36357111     0.057184416    29.112727      5.174466     
     99860   199.72         347.86147      136008.19     -807627.06     -9720.3677      0.36357392     0.057133063    29.0535        4.8295005    
     99870   199.74         337.70316      135021.8      -807626.54     -9689.9203      0.36357658     0.056953687    29.033305      4.4845355    
     99880   199.76         335.86735      135333.03     -807626.04     -9696.0658      0.3635791      0.056989413    29.040288      4.1395705    
     99890   199.78         337.65525      134738.78     -807626.24     -9695.0846      0.36358148     0.056983273    29.016412      3.7946059    
     99900   199.8          346.16492      134972.31     -807627.97     -9676.3679      0.36358371     0.056872916    29.008611      3.4496415    
     99910   199.82         325.45234      135713.01     -807624.92     -9680.0166      0.3635858      0.056894034    29.100597      3.1046761    
     99920   199.84         341.95142      135797.95     -807626.98     -9683.4472      0.36358775     0.056913893    29.139863      2.7597107    
     99930   199.86         332.65111      135604.81     -807624.97     -9704.4482      0.36358955     0.057037042    29.127349      2.4147457    
     99940   199.88         353.17618      135346.84     -807627.37     -9717.0972      0.36359121     0.057111125    29.084418      2.0697813    
     99950   199.9          344.50737      135089.86     -807626.64     -9699.402       0.36359273     0.057006885    29.050877      1.7248174    
     99960   199.92         332.82069      135380.2      -807623.78     -9736.3463      0.3635941      0.057223804    29.070654      1.3798535    
     99970   199.94         336.59901      136310.77     -807624.46     -9730.7355      0.36359533     0.057190634    29.107442      1.0348897    
     99980   199.96         346.08318      135347.94     -807626.68     -9698.272       0.36359641     0.056999666    29.067183      0.6899263    
     99990   199.98         343.19154      134969.01     -807625.98     -9705.6495      0.36359736     0.057042878    29.126229      0.34496299   
    100000   200            353.37751      134370.38     -807627.96     -9686.0773      0.36359816     0.056927721    29.139822      0            
Loop time of 3449.63 on 32 procs for 100000 steps with 1080 atoms

Performance: 5.009 ns/day, 4.791 hours/ns, 28.989 timesteps/s, 31.308 katom-step/s
62.1% CPU use with 32 MPI tasks x 1 OpenMP threads

MPI task timing breakdown:
Section |  min time  |  avg time  |  max time  |%varavg| %total
---------------------------------------------------------------
Pair    | 2491.4     | 2799.3     | 3067.5     | 244.1 | 81.15
Neigh   | 0.0016435  | 0.0017862  | 0.0020646  |   0.3 |  0.00
Comm    | 308.21     | 576.36     | 884.31     | 537.9 | 16.71
Output  | 2.3453     | 2.3519     | 2.3599     |   0.3 |  0.07
Modify  | 65.049     | 65.269     | 66.378     |   2.9 |  1.89
Other   |            | 6.36       |            |       |  0.18

Nlocal:          33.75 ave          42 max          27 min
Histogram: 2 2 4 5 5 5 5 1 2 1
Nghost:        1031.22 ave        1046 max        1015 min
Histogram: 3 0 2 7 2 4 4 8 1 1
Neighs:              0 ave           0 max           0 min
Histogram: 32 0 0 0 0 0 0 0 0 0
FullNghs:      5352.81 ave        6744 max        4216 min
Histogram: 2 2 4 6 4 7 3 1 2 1

Total # of neighbors = 171290
Ave neighs/atom = 158.60185
Neighbor list builds = 4
Dangerous builds = 0

Total wall time: 1:00:51
