
units		metal
atom_style	atomic

read_data ${STRUCTURE}.data
read_data BaTiO3-sc333.data
Reading data file ...
  orthogonal box = (0 0 0) to (11.898253 11.898253 12.912076)
  2 by 4 by 4 MPI processor grid
  reading atoms ...
  135 atoms
  read_data CPU = 0.023 seconds
replicate $L $L $L
replicate 2 $L $L
replicate 2 2 $L
replicate 2 2 2
Replication is creating a 2x2x2 = 8 times larger system...
  orthogonal box = (0 0 0) to (23.796507 23.796507 25.824152)
  2 by 4 by 4 MPI processor grid
  1080 atoms
  replicate CPU = 0.004 seconds

pair_style allegro
pair_coeff	* * ${MODEL}.pth Ba Ti O
pair_coeff	* * BaTiO3-E0.pth Ba Ti O
mass 1 137.3
mass 2 47.9
mass 3 15.9994

timestep 0.002
compute polarization all allegro polarization 3
compute allegro will evaluate the quantity polarization of length 3 (src/compute_allegro.cpp:53)
compute polarizability all allegro polarizability 9
compute allegro will evaluate the quantity polarizability of length 9 (src/compute_allegro.cpp:53)

thermo_style custom pe fmax fnorm spcpu cpuremain

variable efield equal 1e-2*36.36
fix born all addbornforce 0.0 0.0 ${efield}
fix born all addbornforce 0.0 0.0 0.3636

thermo 10
min_style fire
#minimize 0.0 1e-6 100 100
velocity all create ${TEMP} ${SEED} dist gaussian rot yes mom yes
velocity all create 330 ${SEED} dist gaussian rot yes mom yes
velocity all create 330 29039 dist gaussian rot yes mom yes
fix nvt all nvt temp ${TEMP} ${TEMP} $(100*dt)
fix nvt all nvt temp 330 ${TEMP} $(100*dt)
fix nvt all nvt temp 330 330 $(100*dt)
fix nvt all nvt temp 330 330 0.2000000000000000111
run 5000
Neighbor list info ...
  update: every = 1 steps, delay = 0 steps, check = yes
  max neighbors/atom: 2000, page size: 100000
  master list distance cutoff = 8
  ghost atom cutoff = 8
  binsize = 8, bins = 3 3 4
  1 neighbor lists, perpetual/occasional/extra = 1 0 0
  (1) pair allegro/kk, perpetual
      attributes: full, newton on, kokkos_device
      pair build: full/bin/kk/device
      stencil: full/bin/3d
      bin: kk/device
Per MPI rank memory allocation (min/avg/max) = 3.516 | 3.516 | 3.516 Mbytes
    PotEng          Fmax          Fnorm          S/CPU         CPULeft    
-807708.29      1.5956431      37.04278       0              0            
-807643.88      3.5306224      46.015748      2.1306127      2342.0503    
-807634.9       2.7393659      35.901547      25.8732        1264.917     
-807605.13      3.3980701      38.737598      25.868474      905.62658    
-807601.88      4.5174144      51.084943      25.810251      725.89622    
-807565.39      3.8473734      42.136174      25.797132      617.92253    
-807601.02      2.9854684      40.215836      25.867324      545.72426    
-807644.77      3.3639281      35.653307      25.877123      494.0333     
-807682.96      2.8757678      35.334092      25.834695      455.20749    
-807664.64      3.2200798      36.164419      25.835646      424.92289    
-807652.21      3.7806703      35.377077      25.87348       400.59       
-807658         2.6179393      28.676043      25.876267      380.60916    
-807627.84      3.1217469      32.595288      25.841661      363.91513    
-807583.14      3.5834637      39.868973      25.814532      349.7451     
-807569.51      3.2048559      38.264617      25.878512      337.51079    
-807630.65      3.3905211      33.642244      25.847082      326.87135    
-807654.76      3.7106963      31.494541      25.85327       317.51072    
-807663.37      3.0581762      34.680259      25.850451      309.207      
-807646.25      4.4264343      44.221204      25.879382      301.77136    
-807678.93      3.7671669      36.294286      25.798243      295.10852    
-807641.54      5.3182831      38.550837      25.796342      289.07388    
-807613.78      3.9256172      38.845233      25.838705      283.56256    
-807561.1       4.9270465      45.728842      25.869044      278.50722    
-807603.35      4.8370015      49.626123      25.841363      273.86645    
-807612.78      4.2178385      39.260029      25.789103      269.59571    
-807639.1       3.2825398      36.268746      25.854605      265.61695    
-807641.8       5.2834824      45.732102      25.85885       261.91332    
-807679.94      2.8819862      38.658612      25.855987      258.45616    
-807662.36      3.7993086      35.94406       25.772981      255.23932    
-807635.04      2.8453781      33.774013      25.852117      252.19826    
-807605.84      3.6545751      35.336046      25.880645      249.32747    
-807601.81      3.5587419      43.420601      25.853882      246.62303    
-807594.37      3.1256987      37.695219      25.797657      244.07576    
-807604.22      3.4338726      35.39024       25.867306      241.64461    
-807641.07      4.2356478      31.511511      25.868759      239.33343    
-807671.66      3.3790623      33.444389      25.827043      237.14053    
-807674.58      2.9142429      33.900665      25.776368      235.05775    
-807641.48      5.1160171      39.717674      25.848664      233.05301    
-807646.32      2.8279206      32.301306      25.858621      231.13161    
-807619.92      3.9404107      35.87794       25.838756      229.29242    
-807597.58      3.6817047      44.980197      25.81935       227.52918    
-807565.29      4.3591867      43.423338      25.874593      225.82381    
-807621.34      3.3162259      36.825805      25.85758       224.18402    
-807648.38      3.7665594      36.281189      25.83759       222.60568    
-807670.67      2.8835594      36.011985      25.813843      221.08519    
-807640.62      4.7906694      46.888405      25.837917      219.61141    
-807665.3       2.8936475      36.004671      25.878386      218.17891    
-807644.41      4.7704347      37.514797      25.85483       216.79431    
-807621.61      3.6474085      38.988877      25.854349      215.45136    
-807561.86      5.0976589      44.706622      25.896382      214.14165    
-807596.75      4.4002083      45.063472      25.850936      212.875      
-807622.46      4.6308966      37.227968      25.799614      211.64962    
-807650.93      3.0856766      34.102818      25.848603      210.45014    
-807640         5.7846283      42.552131      25.867913      209.27889    
-807670.04      3.0268723      35.882509      25.839898      208.14016    
-807665.85      3.3002344      34.401043      25.780155      207.03602    
-807641.04      3.7216222      32.409922      25.813689      205.95346    
-807598.46      4.6276029      36.63242       25.86147       204.88974    
-807595.16      3.510855       39.652425      25.868736      203.84854    
-807602.93      4.4063343      41.444518      25.758251      202.84191    
-807615.09      3.5875716      35.276832      25.84942       201.84587    
-807634.57      3.7707047      34.800076      25.887833      200.86566    
-807661.33      3.7132185      35.384154      25.860293      199.90752    
-807673.51      3.1022382      37.223498      25.78464       198.97539    
-807645.51      4.0839702      39.741154      25.815095      198.05715    
-807631.88      2.9826043      34.832486      25.869708      197.14977    
-807612.84      3.6673734      36.624063      25.871377      196.25802    
-807601.42      4.2068375      46.058944      25.803515      195.38791    
-807578.02      4.284383       41.186071      25.817404      194.53067    
-807612.08      3.346577       37.577481      25.895492      193.67976    
-807643.85      3.8314626      37.379665      25.869451      192.84451    
-807672.45      3.0021414      37.279654      25.821044      192.02629    
-807649.82      4.929657       41.930928      25.840672      191.21828    
-807648.95      3.3506834      37.029585      25.864493      190.41972    
-807643.75      5.3408919      35.683838      25.843746      189.63409    
-807622.22      3.9433976      39.17699       25.835352      188.85979    
-807572.24      4.0176298      42.415459      25.822553      188.09676    
-807584.47      3.3538415      40.908375      25.877109      187.339      
-807626.54      3.5123091      33.922258      25.833171      186.59432    
-807656.78      3.0165008      32.2751        25.843853      185.85784    
-807648.36      3.698401       37.400736      25.886368      185.12676    
-807654.45      3.7027102      36.92947       25.766377      184.41351    
-807664.71      2.823271       34.163075      25.819945      183.70407    
-807644.41      4.2776469      33.210691      25.803901      183.00361    
-807599.28      3.2418278      37.755609      25.878961      182.30504    
-807580.46      4.2726396      40.857275      25.897792      181.61243    
-807603.12      4.9459153      42.100636      25.809227      180.93333    
-807625.09      4.8232252      35.007804      25.796784      180.26183    
-807633.95      4.1312861      35.706756      25.869731      179.59166    
-807650.67      4.4662749      37.9113        25.852145      178.92907    
-807671.01      2.7196426      36.899134      25.771371      178.27814    
-807652.4       4.0312009      36.153525      25.759321      177.6338     
-807627.62      2.8395521      34.600578      25.881974      176.98687    
-807603.93      3.5004448      36.225282      25.86875       176.34641    
-807604.27      4.5260796      43.58036       25.836387      175.71344    
-807592.92      4.5894166      39.387016      25.801097      175.0879     
-807612.7       3.4853952      36.42141       25.856239      174.46385    
-807637.9       3.7862293      37.048882      25.881066      173.84314    
-807668.74      3.3945395      36.187534      25.824719      173.23068    
-807657.41      3.3430292      37.717767      25.778856      172.62556    
-807643.86      3.0664046      35.333686      25.831274      172.02163    
-807634.1       3.5816183      33.781934      25.862713      171.42013    
-807622.54      3.8352597      36.106652      25.827104      170.82493    
-807590.9       3.2040936      38.138179      25.828613      170.23368    
-807585.16      3.0492182      38.596644      25.875262      169.6437     
-807624.57      3.8297597      33.851907      25.871652      169.0578     
-807655.67      3.2720514      33.937707      25.854759      168.4766     
-807657.21      3.4276494      35.43688       25.822884      167.90078    
-807647.18      4.4165638      38.870746      25.837194      167.32768    
-807656.48      3.4192779      34.073728      25.809264      166.75949    
-807641.61      3.5164688      33.720945      25.851426      166.19235    
-807609.35      3.3393888      36.412197      25.844609      165.62882    
-807577.6       4.0436889      40.211539      25.865464      165.06736    
-807605.27      3.921019       38.78506       25.874532      164.50853    
-807630.72      3.5892833      34.555057      25.829913      163.95499    
-807646.48      3.6833527      34.278532      25.839553      163.40385    
-807643.47      5.1330044      40.131587      25.86425       162.85432    
-807665.05      2.8163426      35.615979      25.840173      162.30876    
-807651.55      3.7781442      36.335349      25.78575       161.76852    
-807631.62      3.4446599      34.300325      25.830775      161.22869    
-807594.99      4.1265476      38.670858      25.860867      160.68997    
-807600.28      4.1007622      41.193931      25.858584      160.15387    
-807603.64      4.243171       38.592329      25.781014      159.62383    
-807624.24      2.9437199      33.97821       25.865941      159.0922     
-807633.63      4.2347162      37.337161      25.880715      158.56223    
-807663.66      3.1998482      34.626913      25.800981      158.03815    
-807659.8       3.1835709      35.579139      25.76073       157.51802    
-807644.22      3.8106234      35.118803      25.836238      156.99665    
-807624.05      2.8741181      34.820959      25.8378        156.4773     
-807615.02      3.4293802      37.604163      25.820178      155.96077    
-807600.1       3.8727745      40.036071      25.800028      155.44708    
-807593.76      3.9462578      38.123292      25.807892      154.93499    
-807619.29      3.1488475      34.446056      25.79354       154.42539    
-807651         4.0513985      33.805965      25.729326      153.92029    
-807661.19      2.8097306      35.491905      25.730806      153.41687    
-807646.4       4.1609908      37.559349      25.79961       152.91234    
-807643.81      3.4327128      34.321726      25.845057      152.40771    
-807635.41      3.4669209      33.875544      25.847628      151.9047     
-807612.37      3.9911838      38.493812      25.77577       151.40619    
-807581.54      3.6754581      40.536705      25.878699      150.90528    
-807600.56      4.4595675      38.857315      25.904994      150.40499    
-807630.08      3.9442147      36.703958      25.827067      149.90928    
-807651.43      4.182828       35.079108      25.78418       149.41673    
-807643.29      3.6092114      39.167748      25.805999      148.92482    
-807653.15      3.5621482      36.653717      25.824439      148.43368    
-807649.4       3.6941273      35.943448      25.773362      147.94585    
-807632.2       3.0754964      34.331481      25.75744       147.45997    
-807593.21      3.3115303      37.7275        25.85548       146.97189    
-807592.9       3.7456379      39.224444      25.805619      146.48695    
-807610.12      3.3712232      38.298626      25.88097       146.00066    
-807631.43      3.8523886      34.770008      25.821824      145.51777    
-807634.28      4.0000229      37.257995      25.82494       145.03603    
-807653.66      5.4687728      36.414727      25.859412      144.55436    
-807657.53      3.460843       36.613525      25.789509      144.07631    
-807643.93      4.1947868      35.661343      25.770747      143.60006    
-807615.9       3.7722072      36.609927      25.83527       143.12279    
-807602.7       3.2792251      37.95934       25.829249      142.64688    
-807603.15      3.4819824      39.45818       25.780658      142.1737     
-807605.1       3.7439418      37.086153      25.748284      141.70265    
-807621.12      4.6717629      34.356661      25.848595      141.2294     
-807643.35      3.9014741      35.774714      25.862168      140.75681    
-807660.86      3.0350389      35.688278      25.795475      140.28739    
-807649.31      3.9247909      36.614303      25.819701      139.81822    
-807635.05      3.6513686      35.808404      25.89423       139.34775    
-807624.06      3.3940612      35.058035      25.788715      138.88154    
-807614.23      3.1965094      37.929292      25.823878      138.41521    
-807593.36      4.4864686      39.372815      25.869943      137.94845    
-807601.88      3.8397822      38.004575      25.839401      137.48356    
-807629.45      4.6483656      35.211881      25.854869      137.01914    
-807652.39      3.1123329      35.039989      25.795642      136.55738    
-807649.09      3.6580491      37.26346       25.793569      136.09655    
-807646.27      3.4320712      35.976841      25.830637      135.6355     
-807642.28      3.8545095      34.881572      25.83452       135.1752     
-807631.57      3.100667       34.681735      25.82965       134.71589    
-807599.22      3.7125256      37.634559      25.857315      134.25663    
-807594.79      3.0136161      38.381226      25.846976      133.79849    
-807612.83      3.4360265      36.368789      25.871089      133.34049    
-807638.13      3.3769851      34.167784      25.852768      132.8838     
-807643.17      3.797975       35.879169      25.807935      132.42911    
-807648.15      3.3165833      36.359863      25.858996      131.9738     
-807653.52      3.3704336      34.934846      25.841728      131.51971    
-807643.57      2.9052392      33.49877       25.798886      131.0675     
-807619.29      2.8879592      33.880014      25.859305      130.61441    
-807597.74      3.2544846      37.078858      25.902395      130.16094    
-807603.25      3.0671063      37.758801      25.870663      129.70901    
-807618.06      2.9351289      35.693136      25.781485      129.26006    
-807630.98      3.2885952      35.066837      25.846323      128.81013    
-807642.65      3.7452127      35.844967      25.881718      128.35999    
-807656.6       2.9409228      35.845472      25.810299      127.91229    
-807650.42      3.4894583      35.647348      25.781308      127.46596    
-807633.25      2.8870231      34.741724      25.830833      127.01902    
-807614.12      4.6952059      35.046742      25.875142      126.57164    
-807607.14      4.131805       37.599258      25.874946      126.1249     
-807603.52      3.3103196      36.954161      25.88454       125.67855    
-807614.43      3.1059497      34.1271        25.931597      125.23172    
-807629.9       2.9387955      34.474147      25.923968      124.7857     
-807652.77      2.9894904      33.604245      25.89179       124.34103    
-807651.77      3.8464001      35.82633       25.789709      123.8993     
-807644.18      3.3072581      35.52638       25.841924      123.45693    
-807629.45      3.8377622      35.784524      25.861392      123.01467    
-807625.49      3.0823173      35.176508      25.85133       122.5732     
-807604.7       3.5401047      37.39814       25.851008      122.13227    
-807596.4       3.8440316      38.24975       25.827166      121.69241    
-807614.17      3.1618328      35.52594       25.825326      121.25311    
-807639.15      3.8150135      34.738393      25.84636       120.81386    
-807646.66      3.4654701      36.086555      25.816614      120.37576    
-807642.61      4.1629345      37.806221      25.824618      119.93798    
-807643.96      3.1894972      35.60208       25.827092      119.50064    
-807637.68      4.2715994      35.572371      25.861902      119.06306    
-807619.6       2.8963202      35.525559      25.858992      118.62601    
-807595.39      3.2792493      37.982131      25.892661      118.18876    
-807602.64      3.34452        37.865681      25.855513      117.75274    
-807621.63      2.8608667      35.791021      25.870616      117.31689    
-807635.56      3.2034409      35.35324       25.793114      116.88306    
-807639.8       3.5740377      36.754248      25.799556      116.44954    
-807648.93      2.97075        35.854401      25.833569      116.01576    
-807645.33      3.2961284      35.30328       25.814687      115.58279    
-807635.43      2.7397771      33.64905       25.826472      115.15001    
-807607.04      2.8134257      36.189704      25.869116      114.71682    
-807601.96      3.3458075      38.285616      25.872299      114.284      
-807607.27      3.5968253      37.576789      25.822918      113.85254    
-807620.93      3.0960232      35.220382      25.816642      113.4216     
-807630.89      3.3836514      35.703781      25.842955      112.99055    
-807647.75      3.0611633      35.387869      25.819454      112.56034    
-807650.28      3.0458709      35.888142      25.792626      112.13101    
-807644.51      3.7630177      34.729595      25.771461      111.70244    
-807625.91      3.1089677      35.006874      25.831653      111.27313    
-807614.4       3.5913724      35.24563       25.902648      110.84292    
-807607.6       3.02644        37.281715      25.8514        110.414      
-807607.24      3.4438966      36.745382      25.84184       109.98563    
-807618.81      3.1415812      34.552187      25.861493      109.55726    
-807639.84      4.034558       33.804025      25.877037      109.12899    
-807650.96      2.7776234      34.741914      25.863846      108.70131    
-807647.97      3.6207574      34.388455      25.837257      108.27444    
-807637.71      2.8965269      35.0421        25.858778      107.84754    
-807631.96      2.7800433      32.74304       25.867813      107.42082    
-807618.06      3.0486438      34.908971      25.864014      106.99452    
-807601.59      3.3187299      37.318735      25.798204      106.56964    
-807607.37      2.6541052      35.434365      25.847038      106.14427    
-807625.98      3.084296       34.161674      25.843311      105.71928    
-807642.83      2.9883123      34.34106       25.850753      105.29449    
-807645.34      3.8013348      35.183255      25.818687      104.87053    
-807644.75      3.7501147      34.80167       25.844514      104.44646    
-807642.38      3.0651547      33.997406      25.843292      104.02271    
-807633.03      3.2510369      33.590514      25.814744      103.59972    
-807611.55      3.262045       34.953558      25.835588      103.17669    
-807602.8       3.5063142      36.551874      25.84193       102.75385    
-807614.72      2.9581568      35.670216      25.822463      102.33161    
-807629.21      3.279854       34.532905      25.79181       101.91011    
-807635.71      3.6180206      34.914765      25.827028      101.48836    
-807643.8       3.5377752      35.094455      25.832768      101.06679    
-807648.12      4.0871007      35.501631      25.788883      100.64615    
-807641.29      3.6609422      34.490427      25.798544      100.22563    
-807624.58      3.3668336      35.05345       25.831128      99.804891    
-807609.02      3.2490733      36.422271      25.854342      99.384081    
-807609.29      3.1880647      37.506529      25.822565      98.963995    
-807615.67      2.9594976      35.687291      25.796187      98.544543    
-807623.28      3.5891897      34.672406      25.835239      98.124785    
-807636.47      3.2561851      35.020733      25.844579      97.705148    
-807647.35      2.6171757      35.381447      25.816978      97.286149    
-807647.8       2.9832383      34.934499      25.80983       96.867493    
-807633.81      3.3137913      34.79151       25.818375      96.448959    
-807622.14      3.33727        34.983253      25.88251       96.02979     
-807614.83      3.0456339      36.045007      25.870309      95.611035    
-807607.87      3.5534022      37.536946      25.851831      95.192772    
-807611.06      4.5098129      35.644558      25.853273      94.774727    
-807625.77      3.8752595      34.880509      25.783863      94.357832    
-807642.71      4.0102757      34.151772      25.781792      93.941183    
-807646.6       3.4008319      35.356212      25.813231      93.524339    
-807640.84      3.5140006      35.516484      25.82026       93.107624    
-807633.19      3.7358629      35.053091      25.809593      92.691262    
-807627.56      3.7452684      34.866755      25.819455      92.274989    
-807610.79      3.2989153      36.758315      25.806997      91.859086    
-807601.17      4.1212021      37.671156      25.816745      91.44327     
-807614.47      3.6351903      36.353949      25.816527      91.027663    
-807631.82      3.8192599      35.446213      25.808867      90.612357    
-807639.8       4.4513574      36.066402      25.853362      90.196711    
-807642.55      4.1700354      36.164631      25.835122      89.781493    
-807641.15      4.1978099      36.170187      25.830844      89.366529    
-807638.67      3.1765447      34.609826      25.821229      88.951879    
-807622.3       3.7374301      35.432674      25.790904      88.537782    
-807606.08      3.2763065      36.385244      25.8095        88.123654    
-807608.55      3.6443773      36.283637      25.815442      87.709647    
-807619.71      3.6834136      35.901853      25.790003      87.296121    
-807631.52      2.8594734      34.014087      25.8146        86.882496    
-807638.53      3.2665589      34.475687      25.84499       86.468711    
-807645.84      3.271183       34.932247      25.835943      86.055216    
-807646.2       3.1071807      34.318309      25.821601      85.642065    
-807634.84      2.4903048      34.065777      25.853717      85.228739    
-807620.2       3.1256241      34.391751      25.894128      84.815156    
-807610.69      2.9965063      35.647182      25.873614      84.401983    
-807614.11      2.8859012      35.83081       25.829143      83.989472    
-807620.31      4.2363218      35.172228      25.831235      83.577112    
-807629.67      3.9858109      34.974821      25.83784       83.164854    
-807642.67      4.6431433      34.542124      25.797656      82.753191    
-807646.18      3.2148731      35.581511      25.786826      82.341804    
-807642.93      5.0086186      34.53238       25.808709      81.930349    
-807627.76      3.5497751      34.69797       25.812943      81.519012    
-807622.84      3.3538927      34.468025      25.825486      81.107709    
-807614.94      2.9450928      36.149001      25.817015      80.696652    
-807612.07      3.5133858      36.047421      25.833957      80.285584    
-807618.48      3.3068615      35.44028       25.848895      79.874527    
-807635.1       3.381255       34.623508      25.814227      79.463971    
-807645.35      3.4208849      35.125084      25.789287      79.053812    
-807642.04      3.7736561      35.697731      25.803811      78.643659    
-807635.7       5.2418131      36.132846      25.79469       78.233742    
-807631.74      3.2424682      34.916092      25.805241      77.82387     
-807619.53      4.2781339      36.620504      25.813969      77.414062    
-807607.85      3.2028827      36.736946      25.839171      77.004163    
-807608.73      3.8425921      36.24505       25.80919       76.59469     
-807625.25      2.9984526      34.804081      25.813559      76.18532     
-807637.38      3.5060886      35.33169       25.817674      75.776053    
-807639.34      3.6023465      35.618115      25.763308      75.367419    
-807642.14      3.3022544      34.605564      25.816692      74.958436    
-807640.22      3.4194015      35.161844      25.798536      74.549753    
-807630.02      3.6433125      34.894215      25.80446       74.141152    
-807612.02      3.0727669      36.52629       25.813587      73.732603    
-807608.05      2.9788402      36.133082      25.847302      73.323897    
-807614.75      3.4233642      36.68944       25.833917      72.915443    
-807626.46      2.6994243      35.401235      25.81503       72.507283    
-807632.78      3.7923989      35.330218      25.825386      72.099166    
-807643.16      3.1098677      34.728188      25.830711      71.691134    
-807642.83      2.7461856      35.241349      25.787339      71.283593    
-807639.12      3.2558179      34.783055      25.764286      70.876363    
-807624.16      3.4101282      35.283364      25.819844      70.468798    
-807612.47      4.0771417      36.678516      25.85872       70.061044    
-807611.53      3.3043006      36.829643      25.82675       69.653675    
-807617.39      3.1864424      36.178201      25.79073       69.246715    
-807623.16      3.7182807      35.241445      25.802739      68.839778    
-807634.52      3.029598       35.272873      25.792207      68.433041    
-807643         2.7114524      34.916958      25.753813      68.026716    
-807643.33      2.8661607      34.68044       25.759368      67.620458    
-807632.2       3.6578901      35.846813      25.812647      67.213904    
-807623.99      3.3838139      35.512542      25.848725      66.807193    
-807617.26      2.8526782      36.460373      25.838901      66.400674    
-807613.26      4.2215276      36.83221       25.841867      65.99425     
-807613.09      3.5203262      36.660852      25.79836       65.58826     
-807627.43      3.8372106      34.283954      25.796566      65.182392    
-807639.26      3.1504454      34.582461      25.745954      64.776997    
-807644.48      3.5850962      34.851953      25.692268      64.372088    
-807637.79      3.7464892      35.085597      25.669256      63.967435    
-807633.39      3.172867       34.61105       25.717279      63.562531    
-807627.32      4.5672407      34.645605      25.761287      63.157415    
-807612.46      3.1122199      36.367228      25.789796      62.752201    
-807608.66      4.0811937      36.847456      25.81275       62.346932    
-807616.1       3.6307151      36.015823      25.83649       61.941606    
-807632.94      3.618998       34.834422      25.841298      61.536355    
-807638.73      2.8866836      35.195078      25.79296       61.131528    
-807641.15      3.7796883      35.495069      25.818158      60.726635    
-807639.72      3.002733       35.76259       25.816599      60.321852    
-807634.9       3.8189205      35.646288      25.782858      59.917386    
-807622.43      3.5034524      35.782841      25.821874      59.512766    
-807609.64      2.7975587      36.271502      25.835735      59.108157    
-807610.81      3.4463015      36.55087       25.841979      58.703609    
-807620.38      4.4898941      35.681757      25.821832      58.299285    
-807632.57      3.1028528      34.129439      25.827025      57.895025    
-807637.43      3.4980076      34.601315      25.833437      57.490821    
-807644.06      3.6857204      34.874643      25.811368      57.086847    
-807641.54      3.7082637      35.552901      25.796449      56.683053    
-807631.11      3.7099094      35.044186      25.788035      56.2794      
-807618.58      3.6207881      34.736388      25.771525      55.875931    
-807613.96      3.780117       35.929169      25.820468      55.472264    
-807611.71      3.9314444      37.259992      25.814928      55.06872     
-807621.44      3.227899       35.179479      25.799708      54.665351    
-807629.38      3.7018637      34.577088      25.795766      54.26209     
-807639.96      3.3841725      34.509626      25.75954       53.859117    
-807643.19      3.4649993      35.420357      25.784427      53.456088    
-807637.97      2.9861402      35.895355      25.760865      53.053269    
-807629.86      3.5046487      34.910311      25.772903      52.650465    
-807619.83      2.96078        36.098223      25.824445      52.247467    
-807616.55      3.3608626      35.831653      25.817669      51.844589    
-807613.27      3.1081117      37.211847      25.800731      51.441884    
-807620.23      3.6934393      35.867209      25.798518      51.039271    
-807630.48      3.1101612      35.509226      25.807776      50.636692    
-807640.44      3.4226289      34.850479      25.771358      50.234377    
-807637.71      3.750223       36.044892      25.794707      49.832022    
-807635.51      3.2181834      35.296266      25.790985      49.429764    
-807629.66      3.3900517      34.921947      25.812205      49.027478    
-807623.34      3.4704497      35.296377      25.829807      48.625186    
-807613.38      3.7539859      36.010438      25.822498      48.223008    
-807614.51      2.9696008      35.962201      25.844111      47.820807    
-807622.48      3.5054883      35.275474      25.830711      47.418749    
-807632.66      3.3436636      35.693833      25.804264      47.016892    
-807637.08      3.7191321      35.997089      25.775121      46.615243    
-807638.7       3.4166262      35.833381      25.829122      46.21342     
-807637.26      3.09572        35.201244      25.780156      45.811893    
-807628.96      4.4399058      35.331939      25.75353       45.410556    
-807617.5       2.7669291      35.855137      25.785569      45.009144    
-807612.56      3.5326968      35.995203      25.812447      44.607687    
-807615.61      2.9294914      36.324064      25.793025      44.206385    
-807624.46      2.7833518      35.09973       25.77377       43.805234    
-807632.31      3.6217775      35.396513      25.782997      43.404112    
-807638.89      3.3267753      35.192985      25.786577      43.003042    
-807638.22      3.3395834      36.263296      25.796961      42.601998    
-807635.13      3.6790378      35.01044       25.759517      42.201173    
-807624.94      2.8953423      35.780487      25.784483      41.800313    
-807616.74      3.7781566      36.913211      25.79658       41.39947     
-807614.04      3.7784067      37.190704      25.779354      40.998761    
-807617.41      3.1492468      36.324327      25.801039      40.598033    
-807625.26      3.7148983      35.637007      25.778565      40.197456    
-807633.03      3.2455929      35.196945      25.751614      39.797044    
-807638.65      3.2990621      35.5746        25.771624      39.396618    
-807637.66      3.3655933      35.759673      25.767376      38.996269    
-807633.04      3.0901688      34.466274      25.772097      38.595964    
-807625         4.3121253      34.872273      25.783049      38.195681    
-807619.46      2.7340235      35.244271      25.815557      37.795344    
-807616.7       3.3365857      34.87516       25.851209      37.394948    
-807619.8       3.228725       34.955338      25.808145      36.994765    
-807626.1       3.4596289      34.635887      25.776704      36.594752    
-807633.35      2.9251847      35.101229      25.735683      36.194935    
-807640.41      3.0204777      33.546506      25.758424      35.795098    
-807635.77      3.0798478      35.238036      25.80003       35.395182    
-807633.8       3.2860263      34.78372       25.799096      34.995328    
-807628.01      3.1176081      34.584829      25.751582      34.595685    
-807618.32      2.9490098      36.245349      25.769263      34.196041    
-807616.98      3.1075522      35.613664      25.765066      33.796465    
-807618.55      2.888791       35.582134      25.742632      33.397013    
-807630.11      2.9396219      34.121421      25.748813      32.997596    
-807633         3.4765284      35.186251      25.761284      32.598194    
-807637.45      3.9308586      35.246506      25.740434      32.198906    
-807638.67      3.1077999      34.407253      25.762276      31.799607    
-807633.09      2.9685976      34.603729      25.771063      31.400336    
-807625.42      3.9628232      34.52203       25.817117      31.000991    
-807616.96      3.0154891      35.757064      25.794141      30.601765    
-807617.37      3.3750638      36.038014      25.817783      30.20253     
-807621.72      2.8645821      34.900552      25.810834      29.803369    
-807629.6       3.190996       34.702136      25.854122      29.404151    
-807636.35      3.01014        35.259963      25.847499      29.005008    
-807639.44      3.5324081      35.104022      25.785125      28.606079    
-807637.07      3.1871121      34.882806      25.779183      28.207218    
-807629.88      3.1993088      35.195167      25.788427      27.808384    
-807623.09      3.5613364      35.080992      25.801202      27.409571    
-807616.37      2.6052347      35.767029      25.807777      27.010795    
-807615.42      2.6987491      36.43454       25.791902      26.612107    
-807620.56      3.1217628      35.767248      25.795043      26.213463    
-807630.29      3.5545677      35.187589      25.817126      25.81482     
-807635.52      3.0274014      34.785809      25.821489      25.416219    
-807638.04      4.0612853      35.599687      25.783514      25.017752    
-807635.81      3.3679956      35.175891      25.787298      24.619326    
-807628.93      3.673473       35.498897      25.813021      24.220895    
-807622.71      3.0787824      35.271631      25.823016      23.822493    
-807616.43      3.1331613      35.388999      25.83755       23.424112    
-807613.9       2.9719287      36.567574      25.799291      23.025858    
-807622.36      2.9146513      35.652344      25.789704      22.627671    
-807629.3       3.0348116      35.568568      25.772111      22.229564    
-807633.68      3.3905629      36.306564      25.793203      21.831464    
-807638.24      3.3780755      35.665046      25.780798      21.433432    
-807633.34      3.0647498      35.812518      25.78415       21.03544     
-807629.98      3.3223284      34.538956      25.777916      20.637504    
-807620.77      3.6656316      35.17217       25.832665      20.23952     
-807617.22      3.1969955      36.004286      25.82364       19.841598    
-807617.27      3.5696411      35.755589      25.805601      19.443754    
-807622.75      3.1348633      35.725066      25.818648      19.045934    
-807630.59      4.1692752      34.950178      25.811825      18.648172    
-807634.66      4.0127009      35.685846      25.809201      18.250459    
-807635.27      3.1439682      36.13529       25.781787      17.852832    
-807633.47      3.5870387      35.546939      25.792408      17.455232    
-807625.52      3.829295       36.398587      25.78032       17.057692    
-807622.35      3.223876       35.482703      25.798594      16.66017     
-807616.38      3.3994936      35.955219      25.796074      16.262694    
-807621.13      3.5801502      35.43219       25.784651      15.865276    
-807625.81      2.6726151      34.898898      25.771434      15.467916    
-807631.62      3.3077692      34.48322       25.772909      15.070594    
-807636.53      2.9715305      34.973387      25.750961      14.67334     
-807636.44      3.0315414      35.559956      25.775103      14.276095    
-807633.24      3.5421829      34.52901       25.783082      13.878882    
-807624.92      2.796411       35.605239      25.824432      13.481663    
-807622.46      2.6571158      34.696645      25.831164      13.08448     
-807618.82      3.5225486      35.999963      25.842283      12.687329    
-807621.49      3.0683085      34.916566      25.825378      12.290237    
-807626.66      4.2578577      34.436671      25.7956        11.893217    
-807633.34      3.156169       35.232399      25.808764      11.496223    
-807637.05      2.8655543      34.542082      25.809429      11.09927     
-807635.87      3.0689893      34.900054      25.818811      10.702349    
-807632.07      3.3153531      35.242688      25.835559      10.305454    
-807628.86      3.6233281      34.881473      25.828718      9.9086065    
-807619.34      4.2052492      36.096062      25.820553      9.5118056    
-807618.5       4.7904941      36.330472      25.807256      9.1150543    
-807621.5       3.701847       36.141551      25.781239      8.7183597    
-807629.04      4.7209722      36.095824      25.803954      8.3216869    
-807633.93      3.4622796      34.947161      25.766522      7.9250757    
-807635.04      5.1531189      36.157673      25.771183      7.5284971    
-807636.17      3.5188302      35.420997      25.792394      7.131942     
-807631         3.264296       35.008917      25.813026      6.7354127    
-807626.92      2.7215127      34.112054      25.859711      6.3388979    
-807619.44      2.9099122      35.451551      25.850103      5.9424281    
-807617.89      3.4611639      36.159818      25.822061      5.5460099    
-807624.92      3.4907103      35.502938      25.801383      5.1496377    
-807627.85      4.0110401      36.425155      25.793472      4.7533044    
-807632.81      3.335413       35.863081      25.832753      4.3569931    
-807636.19      3.6769534      36.345544      25.845861      3.9607155    
-807632.84      3.1679638      36.427901      25.838138      3.5644781    
-807629.04      3.1297339      36.251175      25.877499      3.1682686    
-807621.79      3.6729349      36.339493      25.836114      2.7721076    
-807619.54      3.0953498      36.760248      25.866158      2.3759779    
-807620.08      3.9749368      36.737671      25.87287       1.9798857    
-807624.01      3.4607875      36.666276      25.84177       1.5838359    
-807625.65      3.4579776      36.303928      25.825531      1.1878242    
-807633.45      2.9232884      36.326461      25.810238      0.79184865   
-807632.64      3.1712614      37.342304      25.86706       0.39590562   
-807629.78      3.3209048      36.790817      25.832716      0            
Loop time of 197.944 on 32 procs for 5000 steps with 1080 atoms

Performance: 4.365 ns/day, 5.498 hours/ns, 25.260 timesteps/s, 27.280 katom-step/s
67.9% CPU use with 32 MPI tasks x 1 OpenMP threads

MPI task timing breakdown:
Section |  min time  |  avg time  |  max time  |%varavg| %total
---------------------------------------------------------------
Pair    | 102.64     | 145.9      | 193.57     | 303.4 | 73.71
Neigh   | 0          | 0          | 0          |   0.0 |  0.00
Comm    | 2.0819     | 49.751     | 93.002     | 519.6 | 25.13
Output  | 0.02541    | 0.026627   | 0.027648   |   0.3 |  0.01
Modify  | 1.94       | 1.9521     | 1.9667     |   0.5 |  0.99
Other   |            | 0.3153     |            |       |  0.16

Nlocal:          33.75 ave          48 max          21 min
Histogram: 8 8 0 0 0 0 0 8 0 8
Nghost:        1106.25 ave        1119 max        1092 min
Histogram: 8 0 8 0 0 0 0 0 8 8
Neighs:              0 ave           0 max           0 min
Histogram: 32 0 0 0 0 0 0 0 0 0
FullNghs:       5494.5 ave        7896 max        3378 min
Histogram: 8 8 0 0 0 0 0 8 0 8

Total # of neighbors = 175824
Ave neighs/atom = 162.8
Neighbor list builds = 0
Dangerous builds = 0

reset_timestep 0


variable interval equal 1000
thermo 10

variable nintervals equal $(v_PERIOD/v_interval)
variable nintervals equal 100
variable efield equal 1e-2*36.36*cos((step/${PERIOD})*2*3.14)
variable efield equal 1e-2*36.36*cos((step/100000)*2*3.14)
fix born all addbornforce 0.0 0.0 v_efield

variable Px equal f_born[1]+c_polarization[1]
variable Py equal f_born[2]+c_polarization[2]
variable Pz equal (f_born[3]+c_polarization[3])/vol
variable pe equal pe

fix aveP all ave/time 1 $(v_interval/2) ${interval} v_efield v_Pz v_pe f_born file Pz.${MODEL}.${STRUCTURE}.${TEMP}.$L.${ITER}
fix aveP all ave/time 1 500 ${interval} v_efield v_Pz v_pe f_born file Pz.${MODEL}.${STRUCTURE}.${TEMP}.$L.${ITER}
fix aveP all ave/time 1 500 1000 v_efield v_Pz v_pe f_born file Pz.${MODEL}.${STRUCTURE}.${TEMP}.$L.${ITER}
fix aveP all ave/time 1 500 1000 v_efield v_Pz v_pe f_born file Pz.BaTiO3-E0.${STRUCTURE}.${TEMP}.$L.${ITER}
fix aveP all ave/time 1 500 1000 v_efield v_Pz v_pe f_born file Pz.BaTiO3-E0.BaTiO3-sc333.${TEMP}.$L.${ITER}
fix aveP all ave/time 1 500 1000 v_efield v_Pz v_pe f_born file Pz.BaTiO3-E0.BaTiO3-sc333.330.$L.${ITER}
fix aveP all ave/time 1 500 1000 v_efield v_Pz v_pe f_born file Pz.BaTiO3-E0.BaTiO3-sc333.330.2.${ITER}
fix aveP all ave/time 1 500 1000 v_efield v_Pz v_pe f_born file Pz.BaTiO3-E0.BaTiO3-sc333.330.2.8

thermo_style custom step time temp press pe f_born v_efield v_Pz spcpu cpuremain

# dump 4a all custom 1000 dump.hyst.${MODEL}.${STRUCTURE}.${TEMP}.$L.${ITER}.bin id type xu yu zu fx fy fz
# dump_modify 4a sort id

fix nvt all nvt temp ${TEMP} ${TEMP} $(100*dt)
fix nvt all nvt temp 330 ${TEMP} $(100*dt)
fix nvt all nvt temp 330 330 $(100*dt)
fix nvt all nvt temp 330 330 0.2000000000000000111

run $(v_PERIOD)
run 100000
WARNING: non-constant efield is experimental, strongly distrust scalar/vector output (src/fix_addbornforce.cpp:193)
Per MPI rank memory allocation (min/avg/max) = 3.516 | 3.516 | 3.516 Mbytes
   Step          Time           Temp          Press          PotEng         f_born        v_efield         v_Pz          S/CPU         CPULeft    
         0   0              332.96374      130178.29     -807629.78     -297.33174      0.3636         0.055919711    0              0            
        10   0.02           337.76774      137499.59     -807623.41     -304.29849      0.36359993     0.057229972    28.604684      3495.6009    
        20   0.04           343.16978      138801.08     -807622.33     -306.30155      0.36359971     0.057606725    28.585462      3496.4164    
        30   0.06           351.03039      143857.43     -807617.05     -312.71055      0.36359935     0.058812135    28.582711      3496.5676    
        40   0.08           348.44731      140342.26     -807619.23     -310.45252      0.36359885     0.058387544    28.58339       3496.4486    
        50   0.1            357.80061      138925.35     -807623.74     -307.30581      0.36359821     0.057795837    28.575318      3496.4327    
        60   0.12           346.53097      131226.79     -807631.44     -298.38536      0.36359742     0.056118266    28.54615       3496.902     
        70   0.14           329.1449       131777.84     -807632.14     -295.43623      0.36359649     0.055563756    28.50265       3497.9011    
        80   0.16           334.18304      127514.29     -807633.9      -294.80191      0.36359541     0.05544462     28.526687      3498.1921    
        90   0.18           335.04073      132241.72     -807631        -298.10043      0.36359419     0.056065175    28.578233      3497.6394    
       100   0.2            332.72552      135567.24     -807626.18     -302.94423      0.36359283     0.056976384    28.576761      3497.1451    
       110   0.22           335.75232      140695.8      -807620.04     -309.75638      0.36359132     0.058257825    28.588338      3496.5484    
       120   0.24           333.78985      141734.41     -807617.7      -312.13074      0.36358968     0.058704651    28.600902      3495.8653    
       130   0.26           342.35269      140545.84     -807620.44     -310.81999      0.36358788     0.058458418    28.584469      3495.3873    
       140   0.28           328.8964       136936.54     -807624.27     -305.31285      0.36358595     0.057422952    28.574965      3495.0109    
       150   0.3            334.18194      131909.59     -807630.37     -300.13103      0.36358387     0.056448682    28.593979      3494.4831    
       160   0.32           336.92624      129248.46     -807634.59     -296.41584      0.36358165     0.055750269    28.562276      3494.2197    
       170   0.34           325.66354      127446.67     -807635.58     -294.05243      0.36357928     0.055306117    28.59105       3493.7393    
       180   0.36           319.33945      132559.89     -807629.98     -298.80115      0.36357677     0.056199656    28.585121      3493.3137    
       190   0.38           334.02963      133594.07     -807627.92     -303.1695       0.36357412     0.057021687    28.587752      3492.8792    
       200   0.4            339.65722      140662.63     -807621.2      -310.67358      0.36357132     0.058433543    28.607017      3492.3353    
       210   0.42           322.67374      139651.3      -807619.41     -310.29453      0.36356838     0.05836272     28.593563      3491.8883    
       220   0.44           338.2992       142185.4      -807621.04     -310.73215      0.3635653      0.058445528    28.610395      3491.3568    
       230   0.46           328.66494      133998.85     -807626.36     -304.29431      0.36356207     0.057235144    28.582438      3490.9894    
       240   0.48           335.75112      134028.58     -807629.62     -301.90623      0.3635587      0.056786493    28.629909      3490.3823    
       250   0.5            328.67934      126470.52     -807636.92     -293.8745       0.36355519     0.055276314    28.664         3489.6302    
       260   0.52           325.30328      131271.3      -807633.24     -296.87834      0.36355153     0.055841883    28.380529      3490.246     
       270   0.54           324.45403      129329.3      -807633.24     -297.06293      0.36354773     0.055877188    28.071414      3492.2228    
       280   0.56           331.80919      138531.02     -807624.47     -306.7567       0.36354379     0.0577012      28.08734       3493.9613    
       290   0.58           338.63023      137645.76     -807624.62     -307.82328      0.3635397      0.057902475    28.095518      3495.5195    
       300   0.6            331.67029      142839.71     -807619.01     -312.33172      0.36353547     0.05875121     28.144283      3496.7455    
       310   0.62           322.61048      138161.03     -807621.5      -308.74836      0.3635311      0.058077861    28.048368      3498.26      
       320   0.64           327.74643      138234.02     -807624.82     -306.06832      0.36352658     0.05757444     28.060368      3499.6101    
       330   0.66           323.75722      129658.29     -807632.31     -298.14888      0.36352192     0.056085435    28.053666      3500.8825    
       340   0.68           328.01747      130904.28     -807634.85     -296.09189      0.36351712     0.055699226    27.979838      3502.3347    
       350   0.7            316.72723      127584.28     -807634.88     -294.6583       0.36351217     0.055430301    27.974082      3503.7045    
       360   0.72           336.72733      133080.92     -807631.32     -300.93196      0.36350708     0.056611278    28.03465       3504.7646    
       370   0.74           330.20828      135507.7      -807626.91     -304.57433      0.36350185     0.057297305    27.958645      3506.0093    
       380   0.76           332.11996      140764.51     -807621.99     -309.70444      0.36349647     0.058263256    27.933876      3507.2527    
       390   0.78           326.58234      140935.4      -807620.09     -310.90947      0.36349095     0.058490841    28.058894      3508.0065    
       400   0.8            338.16482      139282.36     -807623.68     -308.83605      0.36348529     0.058101677    28.024597      3508.8135    
       410   0.82           324.51986      135093.59     -807626.98     -303.70762      0.36347948     0.057137773    27.991851      3509.6651    
       420   0.84           324.104        131361.36     -807631.98     -298.63134      0.36347353     0.056183671    28.024186      3510.3614    
       430   0.86           329.20388      128340.17     -807635.41     -295.89965      0.36346744     0.055670672    28.087869      3510.8216    
       440   0.88           325.32737      129728.01     -807635.11     -295.66121      0.3634612      0.055626765    28.020533      3511.4379    
       450   0.9            332.2109       133554.81     -807630.97     -300.72187      0.36345482     0.05657989     28.007932      3512.0466    
       460   0.92           325.57952      135375.72     -807624.87     -305.87969      0.3634483      0.057551351    28.054639      3512.4848    
       470   0.94           339.75226      140002.83     -807621.78     -310.78238      0.36344163     0.058474866    27.989164      3513.0656    
       480   0.96           330.66586      138575.38     -807621.38     -309.94614      0.36343482     0.058318617    27.972989      3513.6503    
       490   0.98           339.42383      139326.19     -807623.97     -308.3828       0.36342786     0.058025574    27.981637      3514.174     
       500   1              340.15648      131947.46     -807630.22     -302.19579      0.36342077     0.056862531    28.046978      3514.497     
       510   1.02           328.14082      132272.59     -807631.29     -9574.0689      0.36341353     0.056298004    27.984443      3514.9485    
       520   1.04           328.88912      127487.01     -807636.89     -9396.9844      0.36340614     0.055257824    27.948795      3515.4562    
       530   1.06           322.91476      132525.49     -807631.08     -9549.4014      0.36339862     0.056155257    27.901836      3516.0442    
       540   1.08           331.72895      131629.04     -807630.18     -9616.8732      0.36339095     0.056553219    27.868209      3516.6768    
       550   1.1            331.21028      139457.02     -807621.83     -9870.0465      0.36338313     0.058043284    27.885181      3517.2339    
       560   1.12           330.93032      138109.34     -807621        -9893.0944      0.36337518     0.058180097    27.909314      3517.7034    
       570   1.14           327.71892      142091.6      -807618.08     -9962.7152      0.36336707     0.058590834    27.941132      3518.0724    
       580   1.16           338.93311      135837.55     -807624.92     -9789.0309      0.36335883     0.057570701    27.962184      3518.3702    
       590   1.18           337.12313      135658.2      -807627.26     -9694.0562      0.36335044     0.057013457    27.967503      3518.6344    
       600   1.2            336.39152      128700.75     -807634.53     -9454.4721      0.36334191     0.055605702    27.921173      3518.9762    
       610   1.22           335.4505       129719.94     -807633.66     -9466.949       0.36333324     0.055680412    27.904974      3519.3288    
       620   1.24           341.80633      128935.66     -807633.58     -9494.926       0.36332442     0.055846316    27.893954      3519.6813    
       630   1.26           340.38943      135628        -807626.49     -9708.4951      0.36331546     0.057103874    27.940341      3519.9173    
       640   1.28           343.80956      137552.29     -807623.74     -9810.0155      0.36330636     0.057702447    27.865042      3520.2848    
       650   1.3            336.06669      142628.21     -807618.58     -9934.0876      0.36329711     0.058433726    27.869294      3520.6217    
       660   1.32           331.39945      141237.61     -807618.2      -9923.3767      0.36328772     0.058372231    27.888733      3520.8998    
       670   1.34           338.85048      137533.95     -807623.05     -9799.6608      0.36327819     0.057646011    27.894509      3521.1479    
       680   1.36           352.10437      132728.91     -807630.89     -9603.0733      0.36326851     0.056491099    27.911871      3521.3456    
       690   1.38           337.48363      128646.79     -807633.96     -9438.5914      0.36325869     0.055525018    27.860189      3521.6229    
       700   1.4            334.89036      130447.83     -807632.03     -9485.5461      0.36324873     0.055802772    27.808198      3521.9771    
       710   1.42           342.46411      130122.3      -807632.37     -9511.6788      0.36323863     0.055958066    27.833469      3522.2656    
       720   1.44           345.8104       136009.42     -807626.79     -9703.176       0.36322838     0.057086272    27.840775      3522.5231    
       730   1.46           351.24382      137215.17     -807624.61     -9803.2665      0.36321798     0.05767678     27.882103      3522.6913    
       740   1.48           335.75469      143744.11     -807616.34     -9999.9324      0.36320745     0.058835555    27.936903      3522.751     
       750   1.5            341.33363      137778.98     -807621.82     -9858.2194      0.36319677     0.058003479    27.954602      3522.7694    
       760   1.52           337.541        139163.43     -807624.2      -9763.6682      0.36318595     0.057448873    27.91805       3522.8391    
       770   1.54           335.23354      130514.33     -807631.21     -9542.8814      0.36317498     0.056151472    27.963583      3522.8226    
       780   1.56           331.47221      131899.63     -807631.06     -9535.1778      0.36316387     0.056107859    27.913565      3522.8788    
       790   1.58           326.76         127025.68     -807635.32     -9391.2592      0.36315262     0.055262711    27.90652       3522.936     
       800   1.6            319.54497      135191.98     -807628.79     -9573.5163      0.36314122     0.056336968    27.885112      3523.0167    
       810   1.62           339.08647      132916.6      -807629.09     -9668.9429      0.36312968     0.05690033     27.929464      3523.017     
       820   1.64           334.65986      141998.01     -807619.59     -9955.2183      0.363118       0.058586904    27.997369      3522.9035    
       830   1.66           334.4865       137326.7      -807623.06     -9860.647       0.36310618     0.058032237    27.97967       3522.811     
       840   1.68           333.52722      142056.39     -807620.82     -9930.0031      0.36309421     0.058442341    27.961426      3522.7398    
       850   1.7            331.71193      132996.9      -807629.15     -9670.7604      0.3630821      0.056918484    27.980326      3522.6337    
       860   1.72           327.18794      134240.82     -807629.06     -9653.6174      0.36306984     0.056819505    27.974209      3522.5307    
       870   1.74           315.65958      127547.28     -807635.49     -9407.5303      0.36305745     0.05537297     27.939061      3522.4732    
       880   1.76           321.729        130865.04     -807633.62     -9494.2475      0.3630449      0.05588532     27.945894      3522.3989    
       890   1.78           317.0654       130000.66     -807631.85     -9536.9822      0.36303222     0.056138827    27.930483      3522.3403    
       900   1.8            321.01488      137294.52     -807624.48     -9790.853       0.36301939     0.057635258    27.938369      3522.2639    
       910   1.82           330.1606       138217.25     -807624.06     -9848.8871      0.36300642     0.057978956    27.878347      3522.2652    
       920   1.84           332.17196      140944.53     -807622.3      -9912.1802      0.36299331     0.058353661    27.889365      3522.2434    
       930   1.86           334.43224      138549.93     -807624.32     -9858.9778      0.36298005     0.058042575    27.945839      3522.1372    
       940   1.88           324.05694      135617.58     -807627.2      -9721.4758      0.36296665     0.057235175    27.935044      3522.0402    
       950   1.9            330.00486      131887.73     -807632.44     -9575.3895      0.36295311     0.056377195    27.915726      3521.9635    
       960   1.92           324.95848      128229.36     -807636.41     -9427.7387      0.36293942     0.055509962    27.982519      3521.7928    
       970   1.94           322.8967       131096.29     -807633.5      -9506.6273      0.36292559     0.055976587    27.991447      3521.6066    
       980   1.96           323.8248       130405.77     -807631.92     -9563.4951      0.36291162     0.056313602    27.96544       3521.4505    
       990   1.98           316.92213      137521.94     -807624.34     -9769.2869      0.3628975      0.057527622    27.965014      3521.2908    
      1000   2              318.69264      136315.7      -807623.68     -9800.6958      0.36288325     0.057714844    27.881674      3521.233     
      1010   2.02           334.41213      141491.24     -807620.43     -311.44302      0.36286884     0.058691667    28.100074      3520.896     
      1020   2.04           316.0726       136104.52     -807622.52     -306.84498      0.3628543      0.05782748     28.029245      3520.646     
      1030   2.06           327.25214      137551.98     -807627.07     -303.59271      0.36283961     0.057216879    28.04153       3520.3788    
      1040   2.08           336.74905      128176.55     -807635.64     -296.31184      0.36282478     0.055846967    28.039466      3520.1124    
      1050   2.1            329.07664      131656.03     -807631.69     -298.89154      0.3628098      0.056335495    27.993855      3519.899     
      1060   2.12           321.46867      128121.2      -807634.86     -294.72755      0.36279469     0.055552976    27.996055      3519.6803    
      1070   2.14           319.91191      134783.09     -807628.86     -300.16383      0.36277943     0.056580036    27.97298       3519.4863    
      1080   2.16           338.26214      132643.92     -807629.92     -301.70895      0.36276402     0.056873702    28.046721      3519.2031    
      1090   2.18           321.15511      141896.81     -807617.64     -311.29466      0.36274848     0.058683173    28.045699      3518.9198    
      1100   2.2            334.1046       137456.7      -807622.65     -308.14895      0.36273279     0.058092678    28.0245        3518.6595    
      1110   2.22           334.6965       140822.41     -807623.41     -307.01323      0.36271695     0.057881098    28.024615      3518.3972    
      1120   2.24           334.33083      132053.87     -807629.42     -300.97763      0.36270098     0.056745706    28.082741      3518.068     
      1130   2.26           327.2172       134485.51     -807627.46     -301.67821      0.36268486     0.05688032     28.060468      3517.7631    
      1140   2.28           326.17683      127735.55     -807634.22     -294.70329      0.3626686      0.055567716    28.001081      3517.5229    
      1150   2.3            321.08441      132685.57     -807632.13     -295.73129      0.36265219     0.055764074    28.037396      3517.2408    
      1160   2.32           335.42004      130899.95     -807631.8      -298.10692      0.36263564     0.056214594    28.101751      3516.8879    
      1170   2.34           345.85458      138201.13     -807623.64     -307.4783       0.36261895     0.057984443    28.046886      3516.5936    
      1180   2.36           321.09649      138931.39     -807619.87     -307.68715      0.36260212     0.058026521    28.029777      3516.3166    
      1190   2.38           338.76041      139105.43     -807623.02     -306.74151      0.36258514     0.057850893    28.027566      3516.0406    
      1200   2.4            341.21824      137466.17     -807624.71     -305.28575      0.36256802     0.057579057    27.94872       3515.8461    
      1210   2.42           335.73968      134873.37     -807625.52     -303.62374      0.36255076     0.057268318    27.962573      3515.6344    
      1220   2.44           335.35734      132780.24     -807629.88     -298.94475      0.36253335     0.056388492    27.967384      3515.4154    
      1230   2.46           333.70782      129256.4      -807636.23     -292.24811      0.3625158      0.055128007    28.012416      3515.1479    
      1240   2.48           334.65228      132410.47     -807631.45     -296.97737      0.36249811     0.05602284     28.058901      3514.8319    
      1250   2.5            332.26126      132365.12     -807627.11     -301.01088      0.36248028     0.056786529    28.084151      3514.49      
      1260   2.52           332.5038       139162.85     -807621.98     -305.93819      0.3624623      0.057718944    28.038197      3514.1935    
      1270   2.54           335.74043      138137.75     -807623.65     -304.63285      0.36244418     0.057475548    27.974581      3513.9592    
      1280   2.56           339.02357      142605        -807618.15     -310.30783      0.36242592     0.058549206    27.991217      3513.7066    
      1290   2.58           331.47324      136373.38     -807621.46     -306.01186      0.36240751     0.05774157     28.095349      3513.351     
      1300   2.6            350.71927      136675.24     -807627.01     -302.74342      0.36238896     0.05712777     28.050496      3513.0386    
      1310   2.62           341.60489      128496.9      -807634.59     -293.82157      0.36237027     0.055447075    28.027583      3512.7474    
      1320   2.64           329.96428      132785.93     -807629.72     -296.71663      0.36235143     0.055996312    28.033504      3512.4497    
      1330   2.66           339.21281      129296.08     -807631.28     -296.51083      0.36233245     0.055960404    28.105253      3512.0835    
      1340   2.68           346.01371      136241.9      -807626.59     -301.79768      0.36231333     0.056961196    28.100631      3511.7218    
      1350   2.7            344.10592      135430.35     -807626.11     -301.99032      0.36229407     0.057000586    27.973657      3511.4782    
      1360   2.72           337.96943      142513.42     -807617.35     -309.63768      0.36227466     0.058447154    28.018429      3511.1915    
      1370   2.74           349.85267      138157.17     -807620.86     -307.89085      0.36225511     0.058120559    27.98259       3510.9367    
      1380   2.76           342.67505      138387.94     -807622.3      -305.17356      0.36223542     0.057610748    27.960449      3510.7006    
      1390   2.78           344.64129      133007.18     -807629.29     -298.44688      0.36221558     0.056343969    27.97481       3510.4497    
      1400   2.8            325.64568      132625.57     -807627.49     -297.53208      0.3621956      0.056174361    28.016488      3510.1599    
      1410   2.82           345.79185      130149.45     -807631.29     -296.64686      0.36217548     0.056010343    28.110098      3509.786     
      1420   2.84           340.5601       131073.42     -807630.74     -296.49723      0.36215522     0.055985223    28.151737      3509.3758    
      1430   2.86           342.00382      135289.79     -807627.43     -300.09773      0.36213481     0.05666827     28.592714      3508.5888    
      1440   2.88           332.56069      137906.67     -807621.54     -304.92167      0.36211426     0.057582455    28.574739      3507.8229    
      1450   2.9            336.8626       141034.25     -807618.28     -308.92731      0.36209357     0.058342227    28.608596      3507.0346    
      1460   2.92           345.83203      137590.49     -807623.92     -304.8732       0.36207273     0.057579906    28.592656      3506.2654    
      1470   2.94           337.43398      138160.78     -807623.9      -303.83634      0.36205176     0.057387403    28.593439      3505.5013    
      1480   2.96           331.74083      132126.91     -807628.12     -299.29235      0.36203064     0.05653245     28.61242       3504.7274    
      1490   2.98           341.78159      132623.44     -807630.26     -298.62956      0.36200937     0.056410571    28.612123      3503.9595    
      1500   3              328.72444      128530.96     -807633.2      -294.30368      0.36198796     0.055596709    28.5916        3503.2135    
      1510   3.02           340.80717      133530.31     -807630.44     -9565.9373      0.36196642     0.056475072    28.502425      3502.5442    
      1520   3.04           330.18035      132984.4      -807626.96     -9644.6002      0.36194472     0.056942892    28.444206      3501.9256    
      1530   3.06           324.97425      140517.81     -807620.44     -9834.5069      0.36192289     0.058067627    28.446958      3501.3083    
      1540   3.08           331.81252      136312.71     -807624.5      -9747.0372      0.36190091     0.057554659    28.424132      3500.7125    
      1550   3.1            338.5875       139377.17     -807623.53     -9809.996       0.36187879     0.057929961    28.462339      3500.0898    
      1560   3.12           334.22382      134062.61     -807627.35     -9679.1526      0.36185653     0.057160822    28.416821      3499.5062    
      1570   3.14           330.2755       135190.83     -807627.81     -9647.0498      0.36183412     0.056974765    28.483815      3498.8736    
      1580   3.16           323.88112      129369.95     -807634.87     -9399.8646      0.36181157     0.055518367    28.520326      3498.2166    
      1590   3.18           326.38781      131992.15     -807632.78     -9480.052       0.36178888     0.055995489    28.540086      3497.5484    
      1600   3.2            315.59958      131769.91     -807629.26     -9551.2267      0.36176605     0.056419455    28.568359      3496.8629    
      1610   3.22           323.75162      136683.63     -807625.46     -9710.0799      0.36174307     0.05736145     28.569967      3496.1802    
      1620   3.24           342.0765       135018.35     -807628.72     -9691.6403      0.36171995     0.057256179    28.515628      3495.5423    
      1630   3.26           322.08723      139898.83     -807622.02     -9814.1905      0.36169669     0.057983909    28.525286      3494.9007    
      1640   3.28           337.84877      136435.21     -807624.86     -9799.5476      0.36167329     0.057901142    28.554042      3494.2414    
      1650   3.3            334.0164       136491.11     -807627.25     -9704.2938      0.36164974     0.057342064    28.559014      3493.5823    
      1660   3.32           321.57297      131798.18     -807631.1      -9527.7999      0.36162605     0.05630286     28.572606      3492.917     
      1670   3.34           315.50326      131314.02     -807632.32     -9462.0233      0.36160222     0.05591785     28.518462      3492.2946    
      1680   3.36           326.1062       130713.03     -807632.21     -9512.3694      0.36157824     0.056219109    28.537862      3491.6616    
      1690   3.38           323.3255       131268.56     -807629.79     -9578.2441      0.36155413     0.056612211    28.537987      3491.0317    
      1700   3.4            320.69209      135606.45     -807627.23     -9647.0041      0.36152987     0.057022443    28.528162      3490.4122    
      1710   3.42           328.41072      136838.89     -807625.75     -9728.3347      0.36150546     0.057507061    28.502056      3489.8142    
      1720   3.44           325.80265      139664.84     -807621.46     -9852.8138      0.36148092     0.058246849    28.511665      3489.2124    
      1730   3.46           335.10808      135751.2      -807626.15     -9743.9398      0.36145623     0.057607153    28.498788      3488.6224    
      1740   3.48           320.05835      136807.66     -807627.04     -9641.3154      0.3614314      0.057004344    28.519525      3488.0208    
      1750   3.5            327.04658      130461        -807632.7      -9493.666       0.36140643     0.056135245    28.521019      3487.421     
      1760   3.52           327.75718      132785.66     -807630.45     -9561.7573      0.36138131     0.056541791    28.524792      3486.8215    
      1770   3.54           323.49759      129000.31     -807633.55     -9444.4512      0.36135605     0.055852026    28.541799      3486.2132    
      1780   3.56           326.24672      134895.64     -807629.81     -9566.8306      0.36133065     0.056579723    28.527377      3485.6176    
      1790   3.58           334.26501      132518.41     -807630.16     -9593.0679      0.36130511     0.056738906    28.492062      3485.0485    
      1800   3.6            333.29469      139851.29     -807622.22     -9832.0073      0.36127942     0.058156265    28.428444      3484.5247    
      1810   3.62           323.22178      136104.65     -807624.27     -9719.8851      0.3612536      0.057497173    28.4931        3483.9596    
      1820   3.64           338.65043      139299.93     -807625.24     -9745.0883      0.36122763     0.057650405    28.504604      3483.3891    
      1830   3.66           330.59276      132431.24     -807629.03     -9584.8082      0.36120151     0.056706312    28.521996      3482.8095    
      1840   3.68           321.43915      135327.15     -807626.23     -9621.7535      0.36117526     0.056929029    28.442788      3482.2845    
      1850   3.7            320.07007      129396.95     -807632.03     -9424.8774      0.36114886     0.055768248    28.457706      3481.7517    
      1860   3.72           330.37272      133043.89     -807631.32     -9477.5081      0.36112232     0.056083792    28.495244      3481.1964    
      1870   3.74           328.58239      132761.13     -807628.13     -9566.2656      0.36109564     0.056613203    28.438308      3480.68      
      1880   3.76           332.08325      136826.68     -807622.73     -9742.9639      0.36106881     0.057663189    28.45459       3480.155     
      1890   3.78           343.45941      137249.93     -807624.82     -9716.774       0.36104184     0.057512481    28.514424      3479.5935    
      1900   3.8            337.52901      137977.4      -807623.37     -9727.6684      0.36101474     0.057581287    28.543847      3479.0156    
      1910   3.82           348.72922      137232.64     -807624.12     -9744.2753      0.36098748     0.057683944    28.536224      3478.4449    
      1920   3.84           342.80373      133488.6      -807626.42     -9640.0638      0.36096009     0.057071365    28.549396      3477.8681    
      1930   3.86           330.4966       133492.4      -807629.49     -9478.453       0.36093255     0.056118874    28.536542      3477.3018    
      1940   3.88           333.27972      129656.77     -807631.7      -9416.5349      0.36090487     0.055756553    28.56804       3476.7181    
      1950   3.9            328.60585      133915.64     -807626.65     -9550.7593      0.36087705     0.056555673    28.534074      3476.1578    
      1960   3.92           338.44957      132524.44     -807627.44     -9571.8044      0.36084909     0.056684686    28.513033      3475.6126    
      1970   3.94           347.74616      137903.12     -807624.84     -9687.329       0.36082098     0.057373297    28.511898      3475.0701    
      1980   3.96           338.00297      136109.9      -807624.07     -9670.5332      0.36079273     0.057278308    28.519905      3474.5246    
      1990   3.98           346.8279       140706.13     -807620.56     -9819.2738      0.36076434     0.058163871    28.542925      3473.9671    
      2000   4              348.66087      134530.85     -807625.75     -9667.9514      0.36073581     0.057272052    28.513686      3473.4293    
      2010   4.02           332.30964      136268.08     -807625.13     -300.32859      0.36070713     0.05693633     28.584608      3472.851     
      2020   4.04           337.00713      129112.87     -807633.05     -293.28682      0.36067831     0.055605792    28.518102      3472.3145    
      2030   4.06           324.43399      133974.65     -807627.4      -297.14869      0.36064935     0.056342509    28.571075      3471.7484    
      2040   4.08           340.84785      129242.16     -807631.2      -295.9438       0.36062025     0.056118577    28.592299      3471.172     
      2050   4.1            333.37102      135712.61     -807626.67     -299.40137      0.36059101     0.056778825    28.597468      3470.5948    
      2060   4.12           330.82617      134911.27     -807626.26     -299.80724      0.36056162     0.05686043     28.600072      3470.0183    
      2070   4.14           336.53113      140652.46     -807620.23     -306.72311      0.36053209     0.058176834    28.617089      3469.4341    
      2080   4.16           347.12849      136176.27     -807624.03     -304.72152      0.36050242     0.057801946    28.629878      3468.8448    
      2090   4.18           335.8412       137796.93     -807624.35     -302.91119      0.36047261     0.057463301    28.602586      3468.2735    
      2100   4.2            330.77279      132127.46     -807629.47     -297.43818      0.36044265     0.056429741    28.578768      3467.7178    
      2110   4.22           325.33764      132765.7      -807628.59     -297.63488      0.36041256     0.056471773    28.516142      3467.1998    
      2120   4.24           330.59408      129872.08     -807631.89     -295.3146       0.36038232     0.056036237    28.551124      3466.6635    
      2130   4.26           320.03652      132973.54     -807630.55     -295.34671      0.36035193     0.056047054    28.591392      3466.1062    
      2140   4.28           331.19036      134070.83     -807629.35     -298.18112      0.36032141     0.056589727    28.538621      3465.5805    
      2150   4.3            331.10719      136850.09     -807624.06     -303.57963      0.36029075     0.057619175    28.544715      3465.0531    
      2160   4.32           332.88074      138558.45     -807622.94     -305.04287      0.36025994     0.057901848    28.582254      3464.5063    
      2170   4.34           347.40986      137172.55     -807626.73     -303.26653      0.36022899     0.057569617    28.506746      3464.0033    
      2180   4.36           337.61853      135432.21     -807627.65     -301.00239      0.36019789     0.057144743    28.474087      3463.5196    
      2190   4.38           319.19742      132979.86     -807627.84     -298.37839      0.36016666     0.056651495    28.483189      3463.0321    
      2200   4.4            323.57423      132505.72     -807630.87     -295.92553      0.36013528     0.056190679    28.522061      3462.5247    
      2210   4.42           313.11061      130226.53     -807632.11     -293.18415      0.36010377     0.055675014    28.587407      3461.9831    
      2220   4.44           322.29163      133928.94     -807629.65     -296.8709       0.36007211     0.056380078    28.631384      3461.4197    
      2230   4.46           323.36309      133335.35     -807627.26     -299.50897      0.3600403      0.05688611     28.628688      3460.8596    
      2240   4.48           341.9506       138309.84     -807624.91     -304.2723       0.36000836     0.057795943    28.607404      3460.3127    
      2250   4.5            334.74041      136338.86     -807626.13     -302.17002      0.35997627     0.057401734    28.661221      3459.7391    
      2260   4.52           337.34167      139474.06     -807623.95     -304.55381      0.35994404     0.057859751    28.659563      3459.1683    
      2270   4.54           327.9473       133219.63     -807627.03     -300.31169      0.35991167     0.057058957    28.645607      3458.6068    
      2280   4.56           330.11225      134975.4      -807627.96     -299.53586      0.35987916     0.056916691    28.586848      3458.0779    
      2290   4.58           319.78888      129610.57     -807633.03     -293.13629      0.35984651     0.055705722    28.620401      3457.5331    
      2300   4.6            316.60482      132278.42     -807630.39     -295.16914      0.35981371     0.056097145    28.59359       3457.0039    
      2310   4.62           325.1849       130744.82     -807631.49     -295.31006      0.35978077     0.056129064    28.583321      3456.4816    
      2320   4.64           330.90787      136174.39     -807627.76     -299.74758      0.35974769     0.056977736    28.58622       3455.9592    
      2330   4.66           337.47193      134997.52     -807627.6      -300.86901      0.35971447     0.057196185    28.587242      3455.4378    
      2340   4.68           336.73008      138022.13     -807624.17     -304.05833      0.35968111     0.057807847    28.594955      3454.914     
      2350   4.7            339.36704      137392.09     -807625.76     -302.84462      0.3596476      0.057582459    28.563461      3454.4076    
      2360   4.72           328.1873       135215.19     -807626.46     -300.52225      0.35961396     0.057146234    28.505145      3453.9322    
      2370   4.74           342.29498      132290.98     -807631.83     -297.05318      0.35958017     0.056491876    28.585136      3453.4174    
      2380   4.76           327.20251      130843.18     -807632.12     -294.62897      0.35954624     0.056036141    28.606867      3452.8932    
      2390   4.78           328.39297      130422.04     -807631.77     -295.05714      0.35951216     0.056122894    28.578803      3452.3843    
      2400   4.8            329.38656      131711.27     -807631.48     -295.49741      0.35947795     0.056211988    28.553504      3451.8894    
      2410   4.82           326.05833      134887.08     -807627.62     -298.82712      0.35944359     0.056850826    28.487405      3451.4287    
      2420   4.84           334.91615      136954.5      -807625.09     -302.57146      0.35940909     0.057568698    28.485836      3450.9696    
      2430   4.86           336.48561      138659.75     -807624.46     -303.32629      0.35937446     0.057717879    28.576002      3450.4669    
      2440   4.88           332.39531      136457.41     -807625.19     -301.89651      0.35933967     0.057451376    28.574599      3449.9662    
      2450   4.9            332.87668      134192.51     -807628.33     -298.7511       0.35930475     0.056858327    28.558715      3449.4744    
      2460   4.92           339.94013      132362.75     -807631.23     -296.83024      0.35926969     0.056498262    28.580885      3448.973     
      2470   4.94           331.8358       130690.08     -807632.17     -294.63396      0.35923448     0.056085721    28.57351       3448.4764    
      2480   4.96           312.19688      131575.51     -807630.37     -293.62778      0.35919913     0.055899687    28.571036      3447.9822    
      2490   4.98           324.44542      131636.74     -807630.04     -295.6025       0.35916364     0.056281188    28.587008      3447.4815    
      2500   5              335.62095      135377.1      -807626.43     -300.6601       0.35912801     0.057249809    28.581832      3446.9845    
[...]
     98740   197.48         327.79422      134915.57     -807626.91     -9687.4458      0.36236891     0.057128904    28.722308      44.245595    
     98750   197.5          327.28059      134799.75     -807628.59     -9631.3825      0.36238762     0.056795355    28.732308      43.8944      
     98760   197.52         332.82953      133842.73     -807629.44     -9630.9974      0.36240618     0.056790176    28.768857      43.5432      
     98770   197.54         321.95913      134811.47     -807626.77     -9669.6644      0.36242459     0.057015283    28.754841      43.192003    
     98780   197.56         330.5486       134483.66     -807626.8      -9708.9885      0.36244287     0.057244263    28.705223      42.840814    
     98790   197.58         323.77507      134156.57     -807628.01     -9640.5088      0.362461       0.056837663    28.714365      42.489624    
     98800   197.6          323.23675      135959.47     -807627.14     -9667.5286      0.36247899     0.056994135    28.713726      42.138435    
     98810   197.62         327.12251      135272.61     -807626.54     -9707.1531      0.36249683     0.057224921    28.669765      41.787253    
     98820   197.64         328.65758      135744.75     -807625.77     -9738.0098      0.36251453     0.057404022    28.670753      41.436072    
     98830   197.66         326.24758      134115.43     -807628.68     -9635.4338      0.36253209     0.056796602    28.704769      41.084886    
     98840   197.68         329.32771      134631.27     -807628.51     -9653.3182      0.36254951     0.056899289    28.719387      40.733698    
     98850   197.7          329.66003      133192.98     -807628.74     -9650.7837      0.36256678     0.05688164     28.753599      40.382506    
     98860   197.72         326.79902      135393.34     -807626.69     -9702.5205      0.36258391     0.057183875    28.767678      40.031313    
     98870   197.74         322.85341      134079.13     -807628.16     -9641.7884      0.3626009      0.056823275    28.762569      39.680122    
     98880   197.76         328.65704      135978.82     -807628.22     -9663.8735      0.36261774     0.056950786    28.747284      39.328933    
     98890   197.78         324.40585      135149.35     -807626.14     -9714.4719      0.36263445     0.057246334    28.73304       38.977747    
     98900   197.8          332.97138      137553.75     -807626.17     -9750.849       0.362651       0.057458077    28.742153      38.62656     
     98910   197.82         324.53803      134740.19     -807627.76     -9663.311       0.36266742     0.056939671    28.734741      38.275375    
     98920   197.84         334.25444      135118.76     -807629.36     -9652.0341      0.36268369     0.056870672    28.680705      37.924197    
     98930   197.86         324.40499      133585.06     -807627.6      -9665.8937      0.36269982     0.056949801    28.673474      37.573022    
     98940   197.88         332.1583       134514.18     -807627.62     -9698.6573      0.36271581     0.057140321    28.760004      37.221835    
     98950   197.9          331.64075      133199.45     -807630.04     -9618.2395      0.36273165     0.056664058    28.741207      36.870651    
     98960   197.92         328.26508      135101.33     -807628.1      -9661.7897      0.36274735     0.056918163    28.677707      36.519477    
     98970   197.94         326.37251      134463.68     -807627.03     -9688.3469      0.36276291     0.057072165    28.679476      36.168302    
     98980   197.96         329.43764      136424.97     -807625.84     -9738.3884      0.36277832     0.057364512    28.69798       35.817126    
     98990   197.98         324.6676       134616.74     -807626.79     -9684.4597      0.36279359     0.057044441    28.713904      35.465948    
     99000   198            327.9828       135255.17     -807626.77     -9694.9262      0.36280872     0.057103711    28.724515      35.11477     
     99010   198.02         324.48946      134939.23     -807625.96     -303.28641      0.3628237      0.057161658    28.806873      34.763582    
     99020   198.04         336.47924      135083.96     -807627.38     -303.43646      0.36283855     0.057187598    28.839098      34.412391    
     99030   198.06         336.84931      134295.22     -807628.61     -302.11195      0.36285324     0.056935668    28.862671      34.061198    
     99040   198.08         335.232        134002.13     -807628.94     -301.40257      0.3628678      0.056799699    28.824955      33.710011    
     99050   198.1          325.71213      135379.02     -807626.81     -302.09617      0.36288221     0.056928149    28.82452       33.358825    
     99060   198.12         332.21699      134403.14     -807626.46     -303.27625      0.36289648     0.057148281    28.86689       33.007634    
     99070   198.14         340.66435      135115.78     -807627.76     -302.93407      0.36291061     0.057081578    28.861589      32.656445    
     99080   198.16         326.25719      135713.15     -807626.73     -301.87566      0.36292459     0.056879953    28.820163      32.305262    
     99090   198.18         335.51941      136490.08     -807625.55     -304.13797      0.36293843     0.057304035    28.815714      31.95408     
     99100   198.2          340.01695      134154.3      -807627.37     -302.92285      0.36295213     0.057072935    28.80969       31.6029      
     99110   198.22         337.03018      136437.97     -807626.48     -303.13495      0.36296568     0.057110763    28.810507      31.25172     
     99120   198.24         335.84943      133444.57     -807628.37     -301.0437       0.36297909     0.056714676    28.808733      30.900542    
     99130   198.26         325.55116      136537.71     -807623.38     -304.43645      0.36299236     0.057351752    28.764297      30.549368    
     99140   198.28         344.12272      133387.28     -807628.93     -301.48259      0.36300548     0.056793231    28.808275      30.198191    
     99150   198.3          330.57711      137122.96     -807624.56     -303.76617      0.36301846     0.057221365    28.791048      29.847017    
     99160   198.32         335.12187      133374.69     -807626.48     -302.53206      0.3630313      0.056986876    28.723529      29.49585     
     99170   198.34         340.52562      136846.53     -807624.89     -304.69893      0.36304399     0.057393035    28.738825      29.144682    
     99180   198.36         319.46368      134069.95     -807624.11     -302.63666      0.36305655     0.057002615    28.704418      28.793519    
     99190   198.38         346.02965      136553.23     -807626.67     -303.57333      0.36306895     0.057177085    28.719905      28.442354    
     99200   198.4          338.4884       133161.3      -807627.71     -301.55505      0.36308122     0.056795031    28.748744      28.091188    
     99210   198.42         342.76363      135788.54     -807626.2      -303.56293      0.36309334     0.057171288    28.780752      27.740018    
     99220   198.44         342.73144      133624.95     -807628.56     -301.30544      0.36310532     0.056744253    28.802092      27.388848    
     99230   198.46         338.10892      135329.99     -807626.44     -302.70895      0.36311715     0.057006715    28.785161      27.03768     
     99240   198.48         339.94975      133337.41     -807627.8      -301.82123      0.36312885     0.056837707    28.798808      26.686511    
     99250   198.5          340.56025      136488.02     -807625.24     -304.51775      0.3631404      0.057343681    28.770244      26.335346    
     99260   198.52         338.15492      134972.06     -807625.99     -303.70951      0.3631518      0.057189685    28.696001      25.984188    
     99270   198.54         335.97328      136585.13     -807625.46     -303.97455      0.36316306     0.057237818    28.725673      25.633028    
     99280   198.56         336.17752      135422.45     -807626.6      -303.15421      0.36317418     0.057081602    28.797267      25.281863    
     99290   198.58         331.23361      135323.92     -807626.09     -303.24209      0.36318516     0.057096424    28.80266       24.930698    
     99300   198.6          336.98676      134419.28     -807627.6      -302.83792      0.36319599     0.057018623    28.802486      24.579533    
     99310   198.62         328.13998      134679.98     -807627.59     -301.97683      0.36320668     0.056854822    28.805337      24.228369    
     99320   198.64         323.31999      135916.42     -807626.97     -302.21109      0.36321723     0.056897277    28.815215      23.877206    
     99330   198.66         331.64169      135027.73     -807628.16     -302.58334      0.36322763     0.056965728    28.782829      23.526045    
     99340   198.68         339.56358      135666.75     -807627.57     -304.58019      0.36323789     0.057340044    28.7907        23.174885    
     99350   198.7          329.73879      134050.4      -807627.98     -303.13032      0.36324801     0.057065505    28.77797       22.823726    
     99360   198.72         318.20092      136231.05     -807625.81     -303.90796      0.36325798     0.057210327    28.778832      22.472569    
     99370   198.74         315.89842      134357.81     -807627.25     -302.47488      0.36326781     0.056939011    28.788802      22.121411    
     99380   198.76         335.78555      135046.78     -807628.78     -303.82799      0.3632775      0.057192201    28.842613      21.77025     
     99390   198.78         327.86777      133841.77     -807629.81     -301.92728      0.36328704     0.05683292     28.852133      21.419089    
     99400   198.8          322.85121      135636.09     -807627.86     -303.17274      0.36329644     0.057065881    28.830185      21.06793     
     99410   198.82         316.59015      133597.76     -807628.25     -302.1118       0.3633057      0.056864731    28.761177      20.716778    
     99420   198.84         341.87353      135701.33     -807629.09     -304.84062      0.36331481     0.057376922    28.743596      20.365627    
     99430   198.86         327.89548      134281.14     -807628.81     -303.35832      0.36332378     0.057096515    28.738057      20.014478    
     99440   198.88         324.22271      136330.21     -807627.03     -304.55206      0.36333261     0.057319803    28.772904      19.663326    
     99450   198.9          309.55174      134156.65     -807626.33     -303.32774      0.36334129     0.057088008    28.733357      19.312178    
     99460   198.92         323.37888      135722.09     -807627.46     -304.03535      0.36334983     0.05721984     28.758133      18.961029    
     99470   198.94         331.69013      132863.93     -807630.11     -302.60555      0.36335823     0.056949432    28.772418      18.60988     
     99480   198.96         316.29725      135445.74     -807627.28     -303.20498      0.36336648     0.057060948    28.778976      18.258731    
     99490   198.98         327.21229      134182.33     -807630.29     -301.77477      0.3633746      0.056790525    28.776345      17.907583    
     99500   199            317.84256      134895.32     -807627.54     -303.08416      0.36338256     0.057035687    28.794232      17.556435    
     99510   199.02         335.29241      134333.29     -807629.47     -9712.6818      0.36339039     0.057116721    28.777993      17.205288    
     99520   199.04         323.07154      134769.27     -807627.25     -9726.3342      0.36339807     0.057195797    28.742644      16.854144    
     99530   199.06         318.09207      135436.77     -807626.49     -9726.2466      0.3634056      0.057194095    28.689291      16.503004    
     99540   199.08         323.65547      134401.18     -807627.85     -9703.656       0.363413       0.057060093    28.704538      16.151864    
     99550   199.1          327.15251      135317.2      -807628.2      -9701.8901      0.36342025     0.057048571    28.700281      15.800724    
     99560   199.12         325.32953      133813.66     -807628.54     -9678.8604      0.36342736     0.05691204     28.667607      15.449587    
     99570   199.14         328.21871      134432.63     -807627.92     -9705.6396      0.36343432     0.057068409    28.720211      15.098447    
     99580   199.16         330.85774      133070.25     -807629.27     -9669.0063      0.36344114     0.05685194     28.711204      14.747308    
     99590   199.18         328.54736      135277.1      -807628.03     -9691.1305      0.36344782     0.05698098     28.709408      14.39617     
     99600   199.2          336.36647      134309.55     -807628.32     -9711.255       0.36345435     0.057098279    28.692597      14.045034    
     99610   199.22         338.16497      135558.29     -807626.8      -9761.1544      0.36346074     0.057390659    28.654142      13.6939      
     99620   199.24         324.73602      135474.98     -807625.66     -9734.2952      0.36346699     0.057231756    28.648363      13.342766    
     99630   199.26         326.17189      135795.1      -807625.72     -9730.1782      0.3634731      0.05720659     28.722982      12.99163     
     99640   199.28         331.43864      134281.74     -807627.36     -9698.5842      0.36347906     0.057019905    28.724578      12.640494    
     99650   199.3          321.47466      135483.34     -807625.17     -9717.1518      0.36348487     0.057128153    28.736166      12.289358    
     99660   199.32         330.11118      133999.7      -807628.52     -9644.6133      0.36349055     0.056700807    28.751359      11.938222    
     99670   199.34         335.04931      134734.65     -807628.43     -9663.0855      0.36349608     0.056808541    28.728411      11.587088    
     99680   199.36         331.43482      134222.72     -807626.95     -9690.7537      0.36350147     0.056970356    28.750147      11.235953    
     99690   199.38         343.03713      134660.7      -807627.35     -9725.3252      0.36350671     0.057172771    28.783772      10.884818    
     99700   199.4          337.11877      135513.53     -807626.99     -9706.2723      0.36351181     0.057059963    28.763459      10.533685    
     99710   199.42         343.26794      135791.39     -807627.44     -9716.8153      0.36351677     0.057121163    28.755667      10.182552    
     99720   199.44         339.84484      136311.65     -807625.55     -9762.0148      0.36352158     0.057386112    28.749038      9.8314204    
     99730   199.46         331.75667      134702.16     -807625.73     -9720.0287      0.36352625     0.057138562    28.760957      9.480289     
     99740   199.48         331.97891      135037.47     -807626.88     -9680.0196      0.36353078     0.056902663    28.74782       9.1291586    
     99750   199.5          341.2182       133414.99     -807628.62     -9667.8339      0.36353516     0.056830346    28.717388      8.7780299    
     99760   199.52         330.91658      135012.27     -807626.45     -9690.8843      0.3635394      0.056965178    28.73304       8.4269013    
     99770   199.54         340.74922      133489.74     -807628.54     -9671.2749      0.3635435      0.056849269    28.768695      8.0757723    
     99780   199.56         327.77094      136682.85     -807625.48     -9709.4385      0.36354745     0.05707298     28.713369      7.7246454    
     99790   199.58         335.01684      136158.79     -807626.47     -9712.792       0.36355126     0.057092094    28.719047      7.373519     
     99800   199.6          343.6912       136793.33     -807625.63     -9779.3784      0.36355493     0.057482911    28.666023      7.0223945    
     99810   199.62         326.06003      135448.37     -807624.97     -9723.9618      0.36355845     0.057156619    28.693097      6.6712698    
     99820   199.64         342.65228      135485.53     -807627.92     -9703.8491      0.36356183     0.057037869    28.702726      6.3201455    
     99830   199.66         330.82695      134894.21     -807627.63     -9665.4441      0.36356507     0.056811624    28.696898      5.9690218    
     99840   199.68         334.36973      135110.07     -807627.51     -9684.8054      0.36356816     0.056924942    28.73274       5.6178979    
     99850   199.7          332.00584      133742.34     -807628.47     -9647.4812      0.36357111     0.056705098    28.75528       5.2667742    
     99860   199.72         340.69018      135242.38     -807628.94     -9672.3414      0.36357392     0.056850781    28.775761      4.9156509    
     99870   199.74         333.5498       135540.87     -807626.75     -9712.747       0.36357658     0.057087853    28.759843      4.5645285    
     99880   199.76         330.26251      136878.31     -807625.06     -9756.5603      0.3635791      0.057344974    28.731276      4.2134073    
     99890   199.78         339.02388      136791.16     -807626.93     -9734.7186      0.36358148     0.057216224    28.66406       3.8622875    
     99900   199.8          328.08544      136569.3      -807626.66     -9695.2815      0.36358371     0.05698408     28.67545       3.5111681    
     99910   199.82         339.49587      135105.24     -807627.69     -9716.2766      0.3635858      0.057107151    28.725247      3.1600486    
     99920   199.84         330.78128      135481.45     -807627.37     -9689.8676      0.36358775     0.056951628    28.69576       2.80893      
     99930   199.86         335.54173      134379.99     -807629.09     -9656.6607      0.36358955     0.056756175    28.718344      2.4578117    
     99940   199.88         328.90235      134214.87     -807628.05     -9662.8587      0.36359121     0.056792344    28.752623      2.1066937    
     99950   199.9          333.74582      134852.27     -807627.7      -9697.6988      0.36359273     0.056996875    28.821033      1.755576     
     99960   199.92         335.0456       135283.3      -807626.72     -9738.5429      0.3635941      0.057236714    28.812362      1.4044592    
     99970   199.94         327.64305      135977.76     -807626.21     -9724.5468      0.36359533     0.057154261    28.772598      1.0533433    
     99980   199.96         337.18229      135833.77     -807627.86     -9716.1098      0.36359641     0.057104504    28.794701      0.70222813   
     99990   199.98         331.03176      136024.6      -807627.25     -9712.7245      0.36359736     0.05708446     28.746868      0.35111374   
    100000   200            324.55462      135683.91     -807626.06     -9725.8976      0.36359816     0.057161756    28.783535      0            
Loop time of 3511.13 on 32 procs for 100000 steps with 1080 atoms

Performance: 4.921 ns/day, 4.877 hours/ns, 28.481 timesteps/s, 30.759 katom-step/s
62.9% CPU use with 32 MPI tasks x 1 OpenMP threads

MPI task timing breakdown:
Section |  min time  |  avg time  |  max time  |%varavg| %total
---------------------------------------------------------------
Pair    | 2458       | 2802.1     | 2998.5     | 233.5 | 79.81
Neigh   | 0.0016446  | 0.0017908  | 0.0019303  |   0.2 |  0.00
Comm    | 439.73     | 636.1      | 980.23     | 490.0 | 18.12
Output  | 2.3213     | 2.3402     | 2.3488     |   0.3 |  0.07
Modify  | 64.242     | 64.476     | 64.749     |   1.4 |  1.84
Other   |            | 6.069      |            |       |  0.17

Nlocal:          33.75 ave          42 max          24 min
Histogram: 1 1 2 7 3 4 6 3 4 1
Nghost:        1037.03 ave        1054 max        1017 min
Histogram: 2 1 3 2 7 7 0 3 4 3
Neighs:              0 ave           0 max           0 min
Histogram: 32 0 0 0 0 0 0 0 0 0
FullNghs:       5316.5 ave        6677 max        3720 min
Histogram: 1 1 2 7 4 4 5 3 4 1

Total # of neighbors = 170128
Ave neighs/atom = 157.52593
Neighbor list builds = 4
Dangerous builds = 0

Total wall time: 1:02:14
