
units		metal
atom_style	atomic

read_data ${STRUCTURE}.data
read_data BaTiO3-sc333.data
Reading data file ...
  orthogonal box = (0 0 0) to (11.898253 11.898253 12.912076)
  2 by 4 by 4 MPI processor grid
  reading atoms ...
  135 atoms
  read_data CPU = 0.029 seconds
replicate $L $L $L
replicate 2 $L $L
replicate 2 2 $L
replicate 2 2 2
Replication is creating a 2x2x2 = 8 times larger system...
  orthogonal box = (0 0 0) to (23.796507 23.796507 25.824152)
  2 by 4 by 4 MPI processor grid
  1080 atoms
  replicate CPU = 0.004 seconds

pair_style allegro
pair_coeff	* * ${MODEL}.pth Ba Ti O
pair_coeff	* * BaTiO3-E0.pth Ba Ti O
mass 1 137.3
mass 2 47.9
mass 3 15.9994

timestep 0.002
compute polarization all allegro polarization 3
compute allegro will evaluate the quantity polarization of length 3 (src/compute_allegro.cpp:53)
compute polarizability all allegro polarizability 9
compute allegro will evaluate the quantity polarizability of length 9 (src/compute_allegro.cpp:53)

thermo_style custom pe fmax fnorm spcpu cpuremain

variable efield equal 1e-2*36.36
fix born all addbornforce 0.0 0.0 ${efield}
fix born all addbornforce 0.0 0.0 0.3636

thermo 10
min_style fire
#minimize 0.0 1e-6 100 100
velocity all create ${TEMP} ${SEED} dist gaussian rot yes mom yes
velocity all create 280 ${SEED} dist gaussian rot yes mom yes
velocity all create 280 15625 dist gaussian rot yes mom yes
fix nvt all nvt temp ${TEMP} ${TEMP} $(100*dt)
fix nvt all nvt temp 280 ${TEMP} $(100*dt)
fix nvt all nvt temp 280 280 $(100*dt)
fix nvt all nvt temp 280 280 0.2000000000000000111
run 5000
Neighbor list info ...
  update: every = 1 steps, delay = 0 steps, check = yes
  max neighbors/atom: 2000, page size: 100000
  master list distance cutoff = 8
  ghost atom cutoff = 8
  binsize = 8, bins = 3 3 4
  1 neighbor lists, perpetual/occasional/extra = 1 0 0
  (1) pair allegro/kk, perpetual
      attributes: full, newton on, kokkos_device
      pair build: full/bin/kk/device
      stencil: full/bin/3d
      bin: kk/device
Per MPI rank memory allocation (min/avg/max) = 3.516 | 3.516 | 3.516 Mbytes
    PotEng          Fmax          Fnorm          S/CPU         CPULeft    
-807708.29      1.5959051      37.042135      0              0            
-807648.59      3.5963551      45.222364      2.1762033      2292.9853    
-807638.01      2.4425236      35.383571      25.919943      1240.2601    
-807608.92      2.9181806      37.392385      25.923064      889.0868     
-807605.97      4.5500297      49.818677      25.897351      713.35475    
-807569.97      3.4775567      39.694428      25.850058      607.83102    
-807603.52      2.858319       38.461032      25.93337       537.25059    
-807647.37      3.1032616      32.733579      25.918259      486.74166    
-807687.02      2.2437987      33.173991      25.898663      448.78146    
-807670.42      2.7707118      33.390355      25.830821      419.22638    
-807656.01      2.513518       33.206413      25.917893      395.44116    
-807662.54      2.6384352      25.653348      25.915716      375.91182    
-807631.5       2.877996       29.537992      25.8781        359.59586    
-807588.36      3.4811377      39.063152      25.851566      345.74548    
-807571.83      3.7317105      36.577473      25.805263      333.84254    
-807633.82      3.5463467      32.248025      25.869263      323.44397    
-807657.26      3.8251762      29.11239       25.918297      314.27482    
-807668.61      3.2639229      32.591152      25.926594      306.13546    
-807650.66      3.7681254      42.81336       25.933093      298.85504    
-807683.34      2.8185829      34.993532      25.913793      292.30767    
-807643.67      3.4672258      38.197241      25.923824      286.37285    
-807620.36      2.9458962      37.769196      25.901806      280.974      
-807564.57      3.8641124      44.728314      25.929476      276.02191    
-807608.03      4.0769889      48.865767      25.874269      271.48396    
-807615.47      3.930585       38.380613      25.901548      267.28389    
-807646.24      3.1658612      34.683848      25.929246      263.38111    
-807645.8       4.7572874      45.180587      25.927715      259.74929    
-807686.26      3.2113681      36.963751      25.881191      256.37007    
-807663.66      3.6253581      35.030707      25.850454      253.21237    
-807641.97      3.164851       30.981617      25.905077      250.23251    
-807609.62      4.2245138      32.943972      25.922622      247.42148    
-807609.37      3.4278614      41.355455      25.917583      244.76806    
-807599.92      3.1146968      33.937273      25.856331      242.26973    
-807615.41      2.5423694      31.201925      25.898601      239.89045    
-807645.7       3.2581899      28.777486      25.932524      237.62148    
-807678.62      2.2855955      30.301496      25.90518       235.46554    
-807679.36      2.4164699      30.593568      25.838171      233.42084    
-807650.37      4.2163756      35.134532      25.894545      231.45518    
-807650.54      2.6987207      29.123449      25.925513      229.56706    
-807625.55      3.4458674      32.210696      25.834549      227.77203    
-807604.03      3.6189309      41.304332      25.872488      226.04088    
-807577.01      3.577708       38.407257      25.92757       224.36612    
-807629.97      2.9987342      32.834388      25.918859      222.75416    
-807655         3.0488046      32.053174      25.898184      221.20251    
-807676.84      2.4253658      33.044176      25.863132      219.70926    
-807646.68      4.3053182      44.303091      25.890101      218.26111    
-807671.02      2.6969508      33.369572      25.925847      216.85388    
-807645.28      4.2396863      35.159243      25.921219      215.49079    
-807627.13      3.3012906      36.911412      25.918999      214.16872    
-807569.08      3.3597833      41.920633      25.899824      212.8875     
-807608.47      3.8492806      42.28526       25.91338       211.64027    
-807627.14      3.6623541      34.580738      25.865066      210.43316    
-807660.65      3.0012101      31.360919      25.927509      209.24958    
-807645.69      4.3222759      41.527589      25.925711      208.09634    
-807677.36      2.5388313      33.510027      25.925678      206.97153    
-807667.04      2.5657403      31.542395      25.852732      205.8824     
-807646.47      3.914408       29.299804      25.898788      204.8129     
-807602.28      2.8945199      33.427948      25.92587       203.76425    
-807604.36      3.4984284      37.052508      25.922035      202.73889    
-807611.23      3.3987784      35.239585      25.854454      201.74274    
-807627.73      3.3397221      28.826109      25.897599      200.76219    
-807644.33      3.0449242      29.868425      25.92143       199.79857    
-807669.67      3.1009064      31.159071      25.926983      198.853      
-807679.07      2.6926161      32.757936      25.852508      197.93292    
-807650.49      5.0064545      34.665135      25.887555      197.02593    
-807637.98      3.1356351      30.950363      25.850221      196.1387     
-807615.3       3.7914919      33.569271      25.908841      195.26087    
-807608.33      3.8217228      43.009079      25.827442      194.40559    
-807586.94      3.5383624      38.762483      25.912911      193.55597    
-807624.69      2.9373931      34.18707       25.90234       192.72077    
-807651.31      3.6150491      35.413707      25.920102      191.89678    
-807677.76      2.8476232      35.351572      25.875073      191.08918    
-807651.35      4.3151658      41.653245      25.911588      190.29005    
-807656.88      2.8995374      34.107068      25.919459      189.50155    
-807641.55      3.2746444      33.645894      25.899927      188.72561    
-807625.92      3.3159035      37.60478       25.885566      187.96128    
-807577.58      3.785411       39.075892      25.885912      187.20687    
-807599.76      3.5264779      38.468892      25.89602       186.46119    
-807633.85      3.6150516      30.821936      25.866225      185.72713    
-807665.38      2.5767327      30.483934      25.874306      185.00123    
-807652.9       3.7477472      36.403208      25.906637      184.28129    
-807665.5       2.882255       32.435564      25.824899      183.5759     
-807665.86      3.1684367      30.904649      25.928096      182.87042    
-807645.05      3.2290849      30.152465      25.914745      182.17365    
-807603.07      3.1863628      34.096035      25.961456      181.48084    
-807591.7       3.3091997      37.312215      25.926593      180.7978     
-807613.03      3.8206794      37.01553       25.869384      180.12577    
-807635.74      3.355497       31.053101      25.922941      179.45652    
-807646.64      3.6067361      32.519958      25.936733      178.79275    
-807659.52      3.2409219      34.366093      25.95331       178.1341     
-807676.63      2.4856552      33.289017      25.90189       177.48501    
-807652.73      3.2357451      34.134292      25.8311        176.84645    
-807632.98      2.5822345      31.787698      25.94382       176.20589    
-807605.38      3.2248357      34.470083      25.960133      175.56977    
-807609.52      4.0678806      41.841788      25.938579      174.94036    
-807601.4       3.5733308      35.622499      25.899772      174.31855    
-807626.63      2.8706054      32.570184      25.904931      173.70133    
-807646.85      3.8107434      35.561446      25.91678       173.08815    
-807676.69      2.9515841      33.964365      25.913642      172.47979    
-807659.12      3.6451956      36.460087      25.870674      171.87853    
-807650.88      3.0513413      32.751529      25.945315      171.2771     
-807633.51      4.2610833      32.382976      25.902804      170.68246    
-807623.94      3.6118485      36.486243      25.926377      170.09054    
-807591.52      4.0136598      36.558119      25.857289      169.50659    
-807603.07      3.2087129      35.203423      25.874783      168.92544    
-807632.91      3.8891032      31.043525      25.859918      168.34883    
-807665.97      2.5882411      30.396343      25.886216      167.77435    
-807661.4       3.1325579      33.251762      25.899964      167.20263    
-807657.88      2.8654516      33.097741      25.940219      166.63217    
-807659.62      3.4943557      29.489597      25.906291      166.06692    
-807642.65      2.9921448      29.680392      25.934111      165.50346    
-807609.19      2.9777846      33.151179      25.92934       164.94345    
-807587.05      3.5837741      36.599278      25.960232      164.38497    
-807616.89      3.5235761      33.660561      25.914698      163.83187    
-807641.97      3.3993737      30.163805      25.891806      163.28286    
-807655.8       2.987455       31.221127      25.899441      162.7363     
-807653.33      4.7319625      36.011006      25.929279      162.19104    
-807670.91      2.8752216      32.533227      25.909296      161.64947    
-807653.58      4.3840705      33.345913      25.898648      161.11106    
-807633.06      3.3389942      31.958128      25.955583      160.5725     
-807596.17      4.9005451      36.104746      25.948861      160.03681    
-807607.22      3.5669625      39.677418      25.907571      159.50552    
-807613.22      3.2951498      33.332143      25.861287      158.97876    
-807638.18      2.5345443      30.696838      25.859391      158.45436    
-807644.53      4.5787949      35.015351      25.918442      157.92951    
-807673.02      2.5799876      32.619208      25.86665       157.4092     
-807660.94      3.2102592      33.273686      25.913211      156.88896    
-807648.94      2.5119889      30.944856      25.841543      156.37397    
-807623.06      3.3737572      32.705222      25.964059      155.85568    
-807617.86      3.2336239      36.806276      25.933938      155.34074    
-807599.17      3.2308968      36.713992      25.924218      154.82819    
-807609.31      3.5107143      35.416037      25.862576      154.32018    
-807631.85      3.4108712      32.955163      25.937687      153.81088    
-807664.63      2.6949236      31.271924      25.907683      153.30467    
-807664.73      3.6815598      33.313459      25.902176      152.80048    
-807654.53      3.5793908      33.477716      25.92572       152.2971     
-807648.6       3.3261159      30.512425      25.952976      151.79436    
-807637.36      2.4730393      29.923779      25.910857      151.295      
-807611.58      2.7238765      34.191916      25.934779      150.79634    
-807590.46      2.5664214      35.376302      25.945936      150.29888    
-807616.63      2.8824221      32.211656      25.948691      149.80292    
-807645.23      3.0655129      29.639923      25.919033      149.30965    
-807663.08      2.2804253      30.152743      25.895089      148.81879    
-807653.43      3.1757243      35.354759      25.917325      148.32856    
-807662.28      2.5591513      31.875972      25.898606      147.84048    
-807649.81      3.7479762      32.394777      25.886657      147.35424    
-807631.97      3.1092076      33.087633      25.931444      146.86775    
-807593.16      3.9197019      36.792372      25.904538      146.3836     
-807602.82      3.9883105      39.011987      25.876393      145.90177    
-807618.66      3.4202482      34.288672      25.870955      145.42141    
-807646.4       2.9162081      31.372993      25.822561      144.94399    
-807645.41      3.8695093      35.766488      25.857546      144.46656    
-807666.1       2.689576       32.548024      25.908115      143.98859    
-807660.97      4.0994439      32.630883      25.888         143.5125     
-807648.53      2.4358077      30.630659      25.907318      143.03693    
-807616.32      3.4850064      32.017347      25.922294      142.56203    
-807609.81      3.1000249      35.104985      25.927894      142.08808    
-807606.18      3.0922814      34.558161      25.848817      141.61783    
-807622.36      2.7414169      30.981548      25.924228      141.1462     
-807632.66      2.9989022      31.966093      25.941639      140.6751     
-807660.19      3.2501339      31.161821      25.886451      140.20682    
-807665.33      2.561617       32.215038      25.908546      139.73886    
-807655.19      3.6772015      32.12141       25.904941      139.27202    
-807640.05      3.2774775      30.652509      25.932463      138.80533    
-807627.36      3.4769006      31.229946      25.96027       138.33878    
-807612.23      3.4895982      35.967003      25.895623      137.87517    
-807599.88      3.3395997      35.506922      25.845182      137.41401    
-807617.58      2.547202       32.490563      25.877253      136.95278    
-807644.22      2.8950417      30.356173      25.908218      136.49153    
-807664.78      2.7355333      31.224563      25.85473       136.03273    
-807654.81      3.5794289      33.854779      25.872437      135.57427    
-807654.28      2.9716055      31.122451      25.902064      135.1158     
-807643.46      2.7530637      30.393253      25.933262      134.65728    
-807631.01      3.3207924      31.937369      25.917048      134.20007    
-807597.6       3.1977045      34.700392      25.916185      133.74369    
-807603.36      2.8680094      35.944353      25.921651      133.28798    
-807624.55      3.9156121      31.983171      25.860689      132.83473    
-807653.46      2.9368634      30.917073      25.89138       132.38139    
-807651.16      4.9514328      33.601567      25.879105      131.92915    
-807658.78      3.2203765      32.490693      25.917818      131.4766     
-807657.01      3.0605924      31.425136      25.938204      131.02426    
-807646.62      2.5526206      30.292912      25.904758      130.57353    
-807615.22      2.8324844      32.333292      25.93135       130.12282    
-807603.12      2.9632714      35.741425      25.900775      129.67361    
-807610.4       3.6912887      34.566504      25.867052      129.22595    
-807632.52      3.2265448      31.507352      25.904819      128.77799    
-807639.87      2.9845962      31.231585      25.901473      128.33078    
-807656.72      2.9332971      31.670602      25.910101      127.88401    
-807664.48      2.4863005      31.996488      25.926642      127.43748    
-807655.61      2.9788637      30.680063      25.921878      126.9917     
-807635.67      2.8078601      30.330171      25.900388      126.54709    
-807617.44      2.893168       32.011495      25.92821       126.10241    
-807611.63      3.1465543      35.477411      25.902585      125.65896    
-807610.69      3.0924251      33.853946      25.805259      125.21842    
-807626.93      3.0247058      30.801445      25.879125      124.77669    
-807644.3       3.7023833      31.751082      25.919311      124.33458    
-807663.92      2.5534202      31.476564      25.906274      123.89335    
-807658.19      2.7792315      32.793673      25.875327      123.45339    
-807649.65      3.0916285      30.860871      25.922816      123.0129     
-807634.35      3.3954445      31.310091      25.924069      122.57292    
-807625.84      3.5638782      32.890042      25.937848      122.13318    
-807605.44      3.183756       34.10102       25.927684      121.6942     
-807608.86      2.6339295      33.982525      25.948251      121.2553     
-807628.39      3.0201938      31.505066      25.944169      120.81701    
-807654.27      2.9707438      31.079507      25.935569      120.37943    
-807654.82      4.212207       33.038545      25.922361      119.94264    
-807652.39      2.9501306      33.185085      25.932507      119.50613    
-807649.08      3.4186011      32.398929      25.915276      119.07047    
-807641.18      3.1222252      31.479422      25.930018      118.63498    
-807614.6       3.1382505      33.860033      25.920367      118.20017    
-807600.29      3.1278387      35.588196      25.918701      117.76587    
-807613.12      2.5992352      33.718111      25.869142      117.33303    
-807636.58      2.8822145      32.401679      25.859364      116.90083    
-807647.81      2.7809157      31.938416      25.90259       116.46818    
-807652.1       3.0949432      33.339396      25.935245      116.03533    
-807657.69      2.6610616      32.956591      25.910549      115.6034     
-807652.38      2.9313053      31.413327      25.903644      115.17203    
-807632.67      2.5643053      30.960071      25.932328      114.74052    
-807608.96      2.8407592      33.353162      25.92729       114.30953    
-807607.03      2.9684894      35.963501      25.913217      113.87922    
-807616.15      3.6431221      34.449496      25.897848      113.4496     
-807632.89      2.9665501      31.665764      25.854508      113.0212     
-807643.88      3.6420077      33.274214      25.882456      112.59265    
-807661.24      2.820724       32.697199      25.899526      112.16416    
-807657.98      4.7544784      33.509901      25.886766      111.73628    
-807645.14      3.5206374      32.77641       25.902435      111.30849    
-807627.03      3.4913701      32.64759       25.931422      110.88055    
-807615.41      3.0967724      35.139039      25.916036      110.45325    
-807607.92      3.394493       35.420504      25.921056      110.02623    
-807613.91      3.0882329      33.986537      25.876338      109.60035    
-807630.76      3.2784965      32.315334      25.925463      109.17396    
-807654.27      3.0425518      31.959928      25.918114      108.74805    
-807659.1       3.2825213      32.707748      25.923051      108.3224     
-807653.17      3.1618326      33.147227      25.900622      107.89747    
-807642.41      3.3005243      32.018135      25.943102      107.47216    
-807635.14      2.8216035      31.235919      25.89924       107.04792    
-807614.15      2.8343093      34.605223      25.909954      106.62383    
-807603.32      3.0368677      36.039048      25.881141      106.20054    
-807614.46      3.823762       34.342706      25.861508      105.77788    
-807641.45      3.1254724      32.709538      25.846998      105.35575    
-807652.71      3.1848417      32.755602      25.877848      104.93342    
-807653.56      2.8691121      33.563197      25.879635      104.51136    
-807652.43      3.5670125      33.057296      25.903283      104.08922    
-807648.12      3.1628829      31.703886      25.883719      103.66769    
-807630.44      2.9201301      32.445095      25.939714      103.24557    
-807607.33      2.7637258      34.501952      25.941152      102.82372    
-807606.96      3.0023434      35.114681      25.931051      102.40233    
-807625.33      2.577927       32.493741      25.910582      101.98153    
-807642.43      2.2182767      30.680379      25.936951      101.56062    
-807647.45      2.8975049      32.543323      25.917425      101.14029    
-807657.44      2.4936195      31.99111       25.912711      100.7203     
-807655.85      2.8321974      32.065799      25.916308      100.30053    
-807644.78      3.1093096      31.558528      25.918241      99.881003    
-807620.75      3.5925526      33.453335      25.91559       99.461779    
-807611.52      3.0672786      34.918274      25.929872      99.042613    
-807611.64      3.3220751      35.802005      25.85822       98.624735    
-807624.87      3.1413049      33.126671      25.852668      98.207181    
-807636.15      4.1683871      32.175193      25.928712      97.788793    
-807650.91      2.9562309      32.962353      25.918537      97.3708      
-807658.92      2.974168       32.787742      25.875201      96.953657    
-807652.18      2.6917488      32.908066      25.940155      96.535857    
-807636.37      3.3375809      33.381723      25.920057      96.118579    
-807624.98      3.3454357      33.286715      25.917368      95.701576    
-807614.08      3.2827362      35.586326      25.889906      95.28518     
-807610.13      2.9360325      35.037111      25.87255       94.869243    
-807621.38      2.3680952      32.225163      25.849         94.453842    
-807642.95      2.9870131      31.413145      25.936354      94.037508    
-807655.58      2.8496611      32.609077      25.900983      93.621864    
-807654.71      2.8636072      32.459468      25.896209      93.206503    
-807647.4       2.8622983      32.675992      25.913016      92.791143    
-807640.73      3.0905747      30.975096      25.922624      92.37588     
-807624.66      3.1392349      32.776549      25.877502      91.961403    
-807607.46      2.9320103      34.829654      25.910915      91.546714    
-807607.03      2.966069       34.654028      25.921296      91.132108    
-807628.52      3.2557895      32.1205        25.927905      90.717631    
-807644.51      2.825074       32.29855       25.914216      90.303529    
-807650.03      2.8965984      33.404794      25.889677      89.88993     
-807651.2       4.0133026      34.178543      25.851749      89.476984    
-807649.91      3.2836912      33.199623      25.902501      89.06362     
-807638.97      2.760517       32.19556       25.863297      88.650916    
-807616.79      3.0873506      34.477494      25.873214      88.238282    
-807604.43      3.7432789      35.867074      25.830463      87.826332    
-807613.95      3.4273479      35.258317      25.791969      87.415004    
-807629.26      3.4931841      33.223788      25.727689      87.004586    
-807641.42      3.5646971      32.662619      25.778851      86.593735    
-807649.71      3.3990185      33.845347      25.854998      86.182183    
-807655.31      2.5066516      33.438246      25.828609      85.7711      
-807649.1       2.8825517      32.508571      25.884543      85.359562    
-807633.47      2.8281185      31.781457      25.937251      84.947622    
-807616.43      2.8963051      33.283952      25.931009      84.535932    
-807612.99      3.3344758      34.109864      25.937228      84.124355    
-807617.25      2.8938111      33.991904      25.919864      83.713142    
-807628.29      3.409803       32.612248      25.937693      83.301914    
-807642.81      2.739394       32.492001      25.909405      82.891159    
-807656.39      2.7261413      32.148978      25.898659      82.480685    
-807655.05      2.8229813      33.333084      25.870591      82.070667    
-807643.95      3.0583713      33.207036      25.902084      81.660484    
-807632.32      2.9861028      32.286373      25.8962        81.250523    
-807621.85      3.6597328      32.917732      25.920244      80.840479    
-807611.03      4.1439097      35.636727      25.847847      80.431324    
-807614.93      3.494788       33.914647      25.865927      80.022137    
-807631.12      2.9281078      32.153858      25.93324       79.612436    
-807648.42      3.6729747      32.776682      25.940851      79.202821    
-807655.23      2.7377205      32.742415      25.904774      78.793714    
-807649.91      3.1921787      33.897182      25.941316      78.384409    
-807646.12      3.4494795      31.960396      25.921483      77.975448    
-807632.77      2.974973       32.587543      25.906925      77.566776    
-807618.39      2.8720871      34.192529      25.886466      77.158443    
-807608.15      3.3132502      35.345391      25.927144      76.749877    
-807619.74      2.6782089      33.527846      25.909569      76.341619    
-807638.24      2.6195223      30.951321      25.928825      75.93333     
-807649.79      3.11243        31.648911      25.901676      75.525432    
-807652.84      3.1180577      32.510761      25.950009      75.11724     
-807652.82      2.8401755      32.145266      25.912851      74.709525    
-807646.14      2.9017899      31.416833      25.938948      74.301718    
-807631.37      3.5323487      31.83996       25.923591      73.894188    
-807614.1       3.1248847      33.517012      25.94834       73.48658     
-807612         3.0868421      34.554728      25.9279        73.079289    
-807623.63      2.9477161      32.788679      25.922549      72.672179    
-807637.93      2.9914008      31.889343      25.913353      72.26528     
-807646.7       3.3323084      32.427054      25.931849      71.858358    
-807652.73      3.2493667      33.064525      25.938389      71.451514    
-807654.14      2.8749562      32.47823       25.913025      71.045011    
-807642.42      3.8765541      32.487104      25.928679      70.638508    
-807626.82      3.187453       32.575505      25.959749      70.231883    
-807614.79      5.0501319      34.728015      25.912837      69.825765    
-807615.94      3.9265975      34.264239      25.908903      69.419802    
-807621.76      4.9507434      33.601906      25.8614        69.014337    
-807636.18      3.5552116      32.103953      25.912275      68.608588    
-807649.26      3.3902303      32.633252      25.915628      68.202934    
-807654.34      3.1720008      33.464831      25.917875      67.797383    
-807649.39      3.5320337      32.858827      25.93463       67.391823    
-807638.6       3.6314697      33.615791      25.939634      66.986346    
-807627.37      3.224288       32.783004      25.922267      66.581119    
-807615.1       3.2050501      34.930106      25.973711      66.175628    
-807611.42      3.0606982      34.951111      25.899582      65.770802    
-807622.86      3.8864305      33.361691      25.968214      65.36559     
-807639.96      2.9643415      32.341975      25.937031      64.960721    
-807650.33      2.9550072      33.70676       25.920146      64.556087    
-807651.44      3.4987115      34.084951      25.921925      64.151551    
-807647.92      3.15719        33.666457      25.943196      63.746977    
-807638.36      3.3768461      33.216977      25.912608      63.342727    
-807625.08      3.154453       33.777616      25.904314      62.938642    
-807611.65      2.9552801      34.82046       25.902993      62.534671    
-807611.76      3.6461565      34.972811      25.937782      62.130568    
-807625.81      3.6666765      32.526086      25.915504      61.726723    
-807642.24      3.6581476      32.048351      25.941991      61.322806    
-807648.58      3.9081725      33.30544       25.954457      60.918914    
-807651.5       3.0472926      33.166747      25.968834      60.515035    
-807649.3       3.9173818      32.898579      25.90863       60.111652    
-807637.75      2.809105       32.15113       25.942245      59.708153    
-807621.34      3.868858       33.233608      25.94045       59.304769    
-807612.76      2.9455201      34.217674      25.935535      58.901517    
-807615.4       3.196506       34.62918       25.918797      58.498469    
-807628.16      3.0005772      32.955938      25.923833      58.095487    
-807640.75      3.2236715      33.038846      25.927654      57.692579    
-807649.8       3.1392479      33.675325      25.940252      57.289692    
-807652.59      3.6428215      33.555597      25.954574      56.886817    
-807646.29      2.8692212      33.279059      25.926273      56.484208    
-807634.33      4.1384558      33.510445      25.909004      56.081793    
-807621.58      2.637623       33.118237      25.925146      55.679376    
-807615.31      2.9923226      34.660103      25.91148       55.277131    
-807616.62      3.0489539      33.903452      25.917005      54.874944    
-807630         3.6525843      32.543103      25.927292      54.472789    
-807642.84      2.7314087      32.103074      25.953695      54.070578    
-807651.86      3.3120558      32.574508      25.945591      53.668504    
-807650.85      2.6488363      32.907504      25.958395      53.266452    
-807645.37      2.9717923      32.265554      25.986102      52.864342    
-807633.27      3.0642277      32.350594      25.961262      52.462459    
-807622.01      2.7602052      33.093646      25.926231      52.06085     
-807614.35      2.9749046      34.419904      25.944237      51.659234    
-807618.72      2.966437       34.425637      25.945098      51.2577      
-807631.22      3.0042061      33.223441      25.954396      50.856206    
-807646.32      3.504626       32.243707      25.929217      50.454926    
-807650.2       2.9997635      33.390452      25.951808      50.053615    
-807649.91      2.7346293      33.688287      25.905099      49.652622    
-807643.77      2.6577007      32.501382      25.923222      49.25162     
-807632.61      3.0372927      32.414786      25.988979      48.85038     
-807618.38      2.8838754      34.17122       25.945996      48.449433    
-807613.88      3.2108737      34.930314      25.936009      48.048615    
-807620.7       3.0080586      33.929381      25.935125      47.647882    
-807634.69      3.0214679      32.348245      25.920087      47.247297    
-807645.49      2.7194019      33.021651      25.948328      46.846661    
-807650.53      2.8341205      33.529788      25.957454      46.446063    
-807650.63      3.6083652      33.192712      25.991064      46.045395    
-807641.98      4.2779395      33.137414      25.911395      45.645162    
-807630.16      2.9582957      32.363851      25.937784      45.244888    
-807617.23      2.7955861      33.749939      25.957624      44.844603    
-807614.36      2.7895021      33.922816      25.960819      44.444383    
-807623.5       2.6913954      32.768411      25.936469      44.044343    
-807636.61      2.5526369      31.676217      25.963484      43.644264    
-807647.34      4.1630371      31.52242       25.973761      43.244219    
-807651.02      3.0599914      32.883289      25.956028      42.844323    
-807650.54      4.1126333      31.994622      25.918173      42.444655    
-807640.35      3.3816795      32.433447      25.928991      42.045014    
-807625.75      2.8790327      33.404298      25.936333      41.645415    
-807618.94      3.6353507      33.930581      25.977125      41.245727    
-807615.06      3.4718306      34.491594      25.93785       40.846265    
-807623.45      3.8900884      33.384882      25.953384      40.446814    
-807635.96      3.2000796      32.544258      25.923095      40.047547    
-807649.4       3.334567       31.710615      25.964063      39.648196    
-807649.17      3.4613196      33.35124       25.92479       39.24906     
-807647.87      2.9664067      32.791216      25.906524      38.850057    
-807636.86      3.1658152      33.160317      25.88374       38.4512      
-807629.19      3.0119415      32.579044      25.938541      38.052211    
-807616.4       2.8757054      33.913283      25.920805      37.653351    
-807615.09      3.2601297      35.035879      25.938583      37.254493    
-807625.08      3.0420103      32.468497      25.947994      36.85567     
-807639.12      2.8382111      32.098119      25.960711      36.456869    
-807646.14      3.0432045      32.587312      25.992838      36.058029    
-807650.21      3.1350935      32.709055      25.953619      35.659386    
-807646.31      3.3625345      32.369443      25.96588       35.260768    
-807639.37      2.3721969      31.873502      25.974811      34.862187    
-807625.07      3.1198129      33.275105      25.944585      34.463767    
-807616.03      2.8497114      33.885852      25.957671      34.065369    
-807616.15      2.8897358      34.824048      25.952034      33.667052    
-807625.69      3.5162772      33.854959      25.908732      33.268927    
-807638.96      2.9754399      33.03564       25.920054      32.870826    
-807646.13      3.1971827      32.748153      25.943137      32.472718    
-807649.99      3.4886885      32.603935      25.935835      32.07469     
-807645.73      2.9069292      31.965533      25.917652      31.676774    
-807636.24      3.0095101      31.769118      25.905376      31.278949    
-807623.06      2.8807989      32.619531      25.910954      30.881165    
-807616.62      2.692065       33.433786      25.892563      30.483487    
-807617.61      2.99674        34.093264      25.940346      30.085735    
-807628.4       3.3889094      32.75027       25.92325       29.688086    
-807639.8       3.141203       32.219923      25.98265       29.290339    
-807648.65      3.7158975      32.160985      25.990626      28.892633    
-807649.07      3.4921314      32.202195      25.973921      28.495028    
-807645.34      3.8049573      31.838221      25.907124      28.097647    
-807634.36      2.5985849      31.416943      25.928348      27.700267    
-807623.17      3.3270798      32.925414      25.965767      27.302853    
-807617.52      2.8928088      33.434348      25.982674      26.905456    
-807620.21      2.7670914      33.107352      25.989305      26.508102    
-807630.35      2.5236799      32.095215      26.018973      26.110739    
-807640.9       3.3867962      32.450973      25.989989      25.7135      
-807649.16      2.4314917      32.343322      26.006705      25.316282    
-807649.91      2.9509646      32.016023      25.975038      24.919189    
-807641.76      2.8598183      32.183224      25.972658      24.522157    
-807633.76      2.6200017      31.93803       25.936051      24.125255    
-807624.13      2.7501924      32.883691      25.969469      23.728337    
-807618.52      2.718831       32.79669       25.956254      23.331499    
-807620.9       2.9183719      32.700096      25.950656      22.934724    
-807633.36      3.3889883      31.167826      25.973478      22.537957    
-807644.98      4.0447978      31.117727      25.9548        22.141279    
-807649.29      2.5222685      30.856182      25.901074      21.74475     
-807647.9       2.7023897      31.304986      25.893223      21.348282    
-807643.09      3.3575419      31.4456        25.917549      20.951817    
-807632.86      2.8170745      31.743398      25.905676      20.55542     
-807621.54      2.9774016      32.217215      25.926888      20.159033    
-807618.75      2.8979147      32.995546      25.929785      19.76269     
-807625.15      2.8397989      32.574887      25.928823      19.366395    
-807635.76      3.0340903      31.980681      25.948765      18.970115    
-807644.24      2.7435224      31.53269       25.96961       18.573852    
-807647.93      2.933779       32.359333      25.930846      18.177696    
-807648.04      2.9762041      32.266566      25.912661      17.781614    
-807640.19      3.2240414      31.8797        25.989196      17.385466    
-807630.69      3.0472341      32.049112      25.952189      16.989419    
-807620.78      4.3099045      32.699779      25.987606      16.593372    
-807618.87      2.6805523      33.347776      25.939805      16.197436    
-807625.8       3.2846948      32.423826      25.973615      15.801503    
-807636.58      2.6923601      31.426269      25.983881      15.405604    
-807644.18      3.0423608      31.670495      25.975424      15.009763    
-807648.66      2.7372372      32.370402      25.967067      14.613979    
-807645.19      3.5075475      32.541323      25.942503      14.218269    
-807640.03      3.0680416      32.0122        25.945765      13.822599    
-807629.24      3.5535379      32.240423      25.989257      13.426927    
-807619.69      3.1220915      33.473971      25.984994      13.031306    
-807619.02      2.8057885      33.902231      25.968682      12.635747    
-807624.85      2.7393642      32.700184      26.004334      12.240198    
-807635.25      2.4861307      31.999518      26.002364      11.844698    
-807645.04      2.9012117      31.705464      25.947961      11.449293    
-807647.86      3.2928993      32.213975      25.907691      11.053967    
-807644.11      2.6218867      31.809769      25.872898      10.65871     
-807638.57      2.7086035      31.366328      25.928419      10.263444    
-807627.59      2.8165971      31.811355      25.934439      9.8682143    
-807621.2       3.5336481      33.934049      25.957864      9.4730073    
-807618.22      3.3059988      33.385428      25.923982      9.0778663    
-807626.75      3.7264324      32.917957      25.946772      8.6827492    
-807637.26      2.7906165      32.807274      25.945968      8.287673     
-807646.22      3.0839952      32.94161       25.966982      7.8926241    
-807645.44      3.1547605      33.317786      25.956579      7.4976227    
-807645.54      2.7739789      31.76052       25.978341      7.1026497    
-807633.89      3.0206239      33.128615      25.935163      6.7077407    
-807628.66      2.4538795      32.486329      25.923766      6.3128759    
-807617.23      3.0477265      33.802836      25.953243      5.9180352    
-807621.45      3.3242427      33.122124      25.989607      5.5232182    
-807627.26      2.8286965      33.257355      25.991239      5.1284418    
-807641.31      3.0928551      31.94497       25.99828       4.733704     
-807644.53      3.4041681      32.380467      25.965508      4.3390183    
-807647.72      2.8692879      32.415825      25.956155      3.9443745    
-807643.08      2.6080446      32.130556      25.944529      3.5497721    
-807635.84      2.8105648      32.166096      25.907644      3.1552159    
-807623.85      3.1169735      33.129689      25.91109       2.7606937    
-807618.74      2.8935663      33.267956      25.953803      2.3661985    
-807622.7       3.0205332      33.095662      25.955746      1.9717402    
-807630.58      3.0596687      32.738278      25.956645      1.5773189    
-807640.12      2.9884962      31.70724       25.989739      1.1829314    
-807646.06      3.0894926      32.543531      26.002813      0.78858185   
-807647.58      2.8023388      32.680179      25.936145      0.39427343   
-807642.29      2.8966193      31.848275      25.974557      0            
Loop time of 197.127 on 32 procs for 5000 steps with 1080 atoms

Performance: 4.383 ns/day, 5.476 hours/ns, 25.364 timesteps/s, 27.393 katom-step/s
66.6% CPU use with 32 MPI tasks x 1 OpenMP threads

MPI task timing breakdown:
Section |  min time  |  avg time  |  max time  |%varavg| %total
---------------------------------------------------------------
Pair    | 102.16     | 147.18     | 192.7      | 309.7 | 74.66
Neigh   | 0          | 0          | 0          |   0.0 |  0.00
Comm    | 2.1309     | 47.641     | 92.657     | 544.3 | 24.17
Output  | 0.027083   | 0.02768    | 0.028814   |   0.3 |  0.01
Modify  | 1.9458     | 1.9552     | 1.9634     |   0.3 |  0.99
Other   |            | 0.3203     |            |       |  0.16

Nlocal:          33.75 ave          48 max          21 min
Histogram: 8 8 0 0 0 0 0 8 0 8
Nghost:        1106.25 ave        1119 max        1092 min
Histogram: 8 0 8 0 0 0 0 0 8 8
Neighs:              0 ave           0 max           0 min
Histogram: 32 0 0 0 0 0 0 0 0 0
FullNghs:       5494.5 ave        7896 max        3378 min
Histogram: 8 8 0 0 0 0 0 8 0 8

Total # of neighbors = 175824
Ave neighs/atom = 162.8
Neighbor list builds = 0
Dangerous builds = 0

reset_timestep 0


variable interval equal 1000
thermo 10

variable nintervals equal $(v_PERIOD/v_interval)
variable nintervals equal 100
variable efield equal 1e-2*36.36*cos((step/${PERIOD})*2*3.14)
variable efield equal 1e-2*36.36*cos((step/100000)*2*3.14)
fix born all addbornforce 0.0 0.0 v_efield

variable Px equal f_born[1]+c_polarization[1]
variable Py equal f_born[2]+c_polarization[2]
variable Pz equal (f_born[3]+c_polarization[3])/vol
variable pe equal pe

fix aveP all ave/time 1 $(v_interval/2) ${interval} v_efield v_Pz v_pe f_born file Pz.${MODEL}.${STRUCTURE}.${TEMP}.$L.${ITER}
fix aveP all ave/time 1 500 ${interval} v_efield v_Pz v_pe f_born file Pz.${MODEL}.${STRUCTURE}.${TEMP}.$L.${ITER}
fix aveP all ave/time 1 500 1000 v_efield v_Pz v_pe f_born file Pz.${MODEL}.${STRUCTURE}.${TEMP}.$L.${ITER}
fix aveP all ave/time 1 500 1000 v_efield v_Pz v_pe f_born file Pz.BaTiO3-E0.${STRUCTURE}.${TEMP}.$L.${ITER}
fix aveP all ave/time 1 500 1000 v_efield v_Pz v_pe f_born file Pz.BaTiO3-E0.BaTiO3-sc333.${TEMP}.$L.${ITER}
fix aveP all ave/time 1 500 1000 v_efield v_Pz v_pe f_born file Pz.BaTiO3-E0.BaTiO3-sc333.280.$L.${ITER}
fix aveP all ave/time 1 500 1000 v_efield v_Pz v_pe f_born file Pz.BaTiO3-E0.BaTiO3-sc333.280.2.${ITER}
fix aveP all ave/time 1 500 1000 v_efield v_Pz v_pe f_born file Pz.BaTiO3-E0.BaTiO3-sc333.280.2.8

thermo_style custom step time temp press pe f_born v_efield v_Pz spcpu cpuremain

# dump 4a all custom 1000 dump.hyst.${MODEL}.${STRUCTURE}.${TEMP}.$L.${ITER}.bin id type xu yu zu fx fy fz
# dump_modify 4a sort id

fix nvt all nvt temp ${TEMP} ${TEMP} $(100*dt)
fix nvt all nvt temp 280 ${TEMP} $(100*dt)
fix nvt all nvt temp 280 280 $(100*dt)
fix nvt all nvt temp 280 280 0.2000000000000000111

run $(v_PERIOD)
run 100000
WARNING: non-constant efield is experimental, strongly distrust scalar/vector output (src/fix_addbornforce.cpp:193)
Per MPI rank memory allocation (min/avg/max) = 3.516 | 3.516 | 3.516 Mbytes
   Step          Time           Temp          Press          PotEng         f_born        v_efield         v_Pz          S/CPU         CPULeft    
         0   0              275.31103      126852.21     -807642.29     -295.54254      0.3636         0.055583212    0              0            
        10   0.02           289.0237       132612.45     -807634.3      -305.58235      0.36359993     0.057471429    28.731486      3480.1779    
        20   0.04           270.29893      141955.13     -807622.12     -315.16062      0.36359971     0.059272866    28.781373      3476.8001    
        30   0.06           264.45764      143327.87     -807620.87     -315.61414      0.36359935     0.059358219    28.743794      3476.9574    
        40   0.08           281.62585      142055.36     -807623.7      -315.09862      0.36359885     0.059261346    28.734276      3477.1502    
        50   0.1            282.73355      133871.13     -807631.76     -307.27777      0.36359821     0.057790562    28.728136      3477.2754    
        60   0.12           286.41235      128546.62     -807641.04     -298.34659      0.36359742     0.056110973    28.710981      3477.5894    
        70   0.14           268.43813      120919.42     -807648.05     -288.84109      0.36359649     0.054323384    28.719239      3477.571     
        80   0.16           268.45543      123795.2      -807645.82     -290.94115      0.36359541     0.054718512    28.736854      3477.2042    
        90   0.18           275.14565      125574.69     -807641.15     -296.68103      0.36359419     0.055798222    28.737275      3476.8348    
       100   0.2            290.03153      135957.16     -807632.69     -307.08972      0.36359283     0.057756051    28.749473      3476.3228    
       110   0.22           272.53088      139714.16     -807625.01     -312.3695       0.36359132     0.058749291    28.734282      3476.0077    
       120   0.24           275.19192      145082.01     -807619.94     -317.64502      0.36358968     0.059741762    28.652636      3476.5123    
       130   0.26           277.95536      139524.25     -807624.34     -313.55384      0.36358788     0.058972595    28.612841      3477.2587    
       140   0.28           290.43744      134961.73     -807632.98     -306.40714      0.36358595     0.057628766    28.676342      3477.2964    
       150   0.3            282.24989      125202.18     -807643.3      -294.81578      0.36358387     0.055448989    28.636344      3477.6068    
       160   0.32           262.21341      124250.13     -807643.53     -291.52591      0.36358165     0.054830566    28.666576      3477.605     
       170   0.34           263.23679      123137.94     -807643.61     -291.45876      0.36357928     0.054818294    28.726839      3477.1329    
       180   0.36           284.76359      128742.9      -807639.04     -298.82406      0.36357677     0.056203964    28.716722      3476.742     
       190   0.38           286.65958      135238.41     -807631.27     -306.67443      0.36357412     0.057680913    28.727323      3476.2884    
       200   0.4            280.69422      142383.34     -807622.22     -314.56723      0.36357132     0.059165886    28.763167      3475.6288    
       210   0.42           282.01291      143667.32     -807619.84     -316.87304      0.36356838     0.05960006     28.721083      3475.2411    
       220   0.44           293.49593      139525.27     -807626.03     -311.99374      0.3635653      0.05868282     28.728569      3474.8158    
       230   0.46           291.27306      132566.91     -807633.84     -303.56828      0.36356207     0.057098584    28.71557       3474.4655    
       240   0.48           290.5614       125753.33     -807642.33     -294.79957      0.3635587      0.055449778    28.758556      3473.8991    
       250   0.5            269.1351       123509        -807643.1      -290.80546      0.36355519     0.054699042    28.738631      3473.4464    
       260   0.52           279.67605      123636.62     -807643.52     -291.74824      0.36355153     0.054876927    28.729315      3473.0451    
       270   0.54           292.21143      129673.89     -807637.63     -299.2568       0.36354773     0.056289853    28.725897      3472.6628    
       280   0.56           294.0276       137181.21     -807628.39     -308.66968      0.36354379     0.058061033    28.735375      3472.2422    
       290   0.58           283.41866      143449.17     -807619.12     -316.39385      0.3635397      0.059514625    28.723275      3471.877     
       300   0.6            291.4383       143299.17     -807620.87     -315.70393      0.36353547     0.05938554     28.655334      3471.7872    
       310   0.62           293.85888      139582.44     -807626.29     -310.58817      0.3635311      0.058423943    28.630844      3471.7767    
       320   0.64           291.2322       131818.22     -807634.15     -302.42528      0.36352658     0.05688915     28.640723      3471.7075    
       330   0.66           290.19549      126495.75     -807641.03     -295.38363      0.36352192     0.055565258    28.718903      3471.3344    
       340   0.68           272.55102      122663.65     -807644.38     -289.61489      0.36351712     0.054480808    28.641193      3471.2395    
       350   0.7            284.43403      125624.9      -807643.18     -292.55185      0.36351217     0.055034042    28.614577      3471.2226    
       360   0.72           295.21233      130463.48     -807636.37     -301.11124      0.36350708     0.056645003    28.647594      3471.0758    
       370   0.74           293.83163      139236.17     -807626.02     -311.42386      0.36350185     0.058585856    28.623209      3470.9981    
       380   0.76           287.11171      142612.12     -807622.31     -314.39246      0.36349647     0.059145192    28.620823      3470.9137    
       390   0.78           285.13602      142757.48     -807622.38     -314.17027      0.36349095     0.05910429     28.633541      3470.7761    
       400   0.8            295.28829      136936.07     -807628.44     -309.78167      0.36348529     0.058279579    28.654566      3470.5641    
       410   0.82           286.07213      131090.33     -807634.78     -302.36297      0.36347948     0.056884799    28.686031      3470.2526    
       420   0.84           272.38384      124563.01     -807642.88     -292.46875      0.36347353     0.055024258    28.675863      3469.9684    
       430   0.86           276.58435      123610.48     -807645.79     -290.29483      0.36346744     0.054616178    28.721138      3469.554     
       440   0.88           281.93549      126088.38     -807642.13     -295.01398      0.3634612      0.055504994    28.73142       3469.1144    
       450   0.9            286.80713      133148.92     -807633.63     -304.37848      0.36345482     0.05726787     28.726992      3468.6909    
       460   0.92           282.98851      138258.73     -807626.96     -310.67141      0.3634483      0.058452914    28.718661      3468.2923    
       470   0.94           280.2312       142118.12     -807622.89     -314.48501      0.36344163     0.059171529    28.714099      3467.9076    
       480   0.96           275.23688      141906.35     -807622.2      -314.64462      0.36343482     0.059202671    28.717042      3467.5171    
       490   0.98           291.00521      136635.91     -807629.62     -309.47081      0.36342786     0.058230295    28.723068      3467.1134    
       500   1              283.98875      129108.22     -807638.78     -299.35967      0.36342077     0.056328875    28.700107      3466.7675    
       510   1.02           270.17756      124499.98     -807644.47     -9335.3508      0.36341353     0.05489428     28.641526      3466.5604    
       520   1.04           280.74177      123217.24     -807645.83     -9341.1409      0.36340614     0.054929443    28.658236      3466.3089    
       530   1.06           272.62978      126624.47     -807639.82     -9500.2454      0.36339862     0.055866195    28.597021      3466.1939    
       540   1.08           277.43142      133007.06     -807633.98     -9709.3626      0.36339095     0.057097114    28.559197      3466.1555    
       550   1.1            277.85646      138204.6      -807627.32     -9925.6998      0.36338313     0.058370567    28.62591       3465.9584    
       560   1.12           279.46085      142242.61     -807621.6      -10116.289      0.36337518     0.059492679    28.596175      3465.8201    
       570   1.14           287.05209      140109.82     -807624.9      -10046.018      0.36336707     0.059080738    28.581031      3465.7068    
       580   1.16           291.04361      135664.67     -807632.33     -9823.4938      0.36335883     0.057773382    28.579503      3465.5887    
       590   1.18           281.84249      128256.27     -807640.13     -9532.7926      0.36335044     0.056065021    28.516044      3465.5937    
       600   1.2            275.06829      124968.33     -807643.6      -9390.7519      0.36334191     0.055230937    28.514476      3465.5901    
       610   1.22           270.62879      123063.86     -807644.53     -9342.8022      0.36333324     0.054950236    28.566371      3465.4714    
       620   1.24           276.76558      127891.81     -807640.36     -9502.1041      0.36332442     0.055888535    28.593885      3465.2912    
       630   1.26           286.50496      132684.63     -807634.5      -9735.3437      0.36331546     0.057261793    28.563772      3465.1638    
       640   1.28           281.39477      141153.76     -807624.38     -10034.152      0.36330636     0.059020819    28.611255      3464.9393    
       650   1.3            286.49086      141419.21     -807623.77     -10079.597      0.36329711     0.059289633    28.633169      3464.6699    
       660   1.32           277.44025      141006.7      -807625.15     -9991.3479      0.36328772     0.058772058    28.6355        3464.3939    
       670   1.34           282.67922      133183.63     -807633.63     -9745.5593      0.36327819     0.057327761    28.635219      3464.1162    
       680   1.36           280.79744      129116.21     -807638.73     -9570.4423      0.36326851     0.056299144    28.630043      3463.8456    
       690   1.38           269.2037       123486.6      -807644.59     -9331.9035      0.36325869     0.054897398    28.641571      3463.5526    
       700   1.4            275.7782       124463.84     -807645.03     -9343.5492      0.36324873     0.054967415    28.667044      3463.2138    
       710   1.42           275.97337      127510.78     -807640.39     -9495.7978      0.36323863     0.055864636    28.661294      3462.8846    
       720   1.44           292.4001       134882.33     -807632.24     -9829.4525      0.36322838     0.057829189    28.612845      3462.6363    
       730   1.46           281.64158      139755.71     -807624.99     -10013.918      0.36321798     0.058916135    28.634171      3462.3498    
       740   1.48           273.91979      142120.62     -807623.14     -10036.487      0.36320745     0.059050629    28.632299      3462.0648    
       750   1.5            270.56249      139356.91     -807625.32     -9949.2555      0.36319677     0.058539114    28.558884      3461.8968    
       760   1.52           288.12952      133510.76     -807632.57     -9794.4406      0.36318595     0.057629937    28.540104      3461.7541    
       770   1.54           281.49563      128193.28     -807639.88     -9526.5782      0.36317498     0.056055542    28.618998      3461.4815    
       780   1.56           279.06001      123537.57     -807646.3      -9306.6015      0.36316387     0.054762848    28.609071      3461.2224    
       790   1.58           272.40206      125828.03     -807642.95     -9381.8359      0.36315262     0.05520726     28.605768      3460.9661    
       800   1.6            281.83567      128140.29     -807637.99     -9584.2059      0.36314122     0.056399873    28.622179      3460.6826    
       810   1.62           290.40606      135686.52     -807630.61     -9854.3948      0.36312968     0.057991687    28.683152      3460.3064    
       820   1.64           277.93695      139327.36     -807626.13     -9943.4046      0.363118       0.058517379    28.620234      3460.0237    
       830   1.66           281.44085      142845.57     -807622.82     -10057.152      0.36310618     0.059188715    28.547763      3459.8454    
       840   1.68           280.54707      137653.69     -807626.71     -9929.6351      0.36309421     0.058440175    28.62741       3459.5479    
       850   1.7            294.13613      134144.39     -807634.45     -9734.9448      0.3630821      0.05729625     28.692625      3459.1565    
       860   1.72           280.99225      126402.74     -807641.95     -9432.5939      0.36306984     0.055518599    28.628618      3458.856     
       870   1.74           269.32671      125548.27     -807642.27     -9363.7066      0.36305745     0.055115023    28.54798       3458.6669    
       880   1.76           276.85918      124127.78     -807642.07     -9402.4336      0.3630449      0.055344882    28.516203      3458.518     
       890   1.78           284.90988      131162.71     -807635.77     -9633.993       0.36303222     0.056709876    28.542932      3458.328     
       900   1.8            285.96897      135119.21     -807630.28     -9812.3955      0.36301939     0.057762071    28.605636      3458.0498    
       910   1.82           281.7024       141750.67     -807622.25     -10043.295      0.36300642     0.059123409    28.64356       3457.7198    
       920   1.84           293.70687      140591.21     -807624.19     -10031.974      0.36299331     0.059058896    28.638197      3457.3963    
       930   1.86           282.19453      138607.29     -807626.02     -9915.1321      0.36298005     0.058373171    28.625269      3457.0891    
       940   1.88           288.93141      131001.84     -807635.98     -9624.7423      0.36296665     0.056665656    28.611695      3456.7984    
       950   1.9            286.33337      126832.05     -807640.94     -9448.7708      0.36295311     0.0556317      28.640838      3456.4695    
       960   1.92           267.99962      125140.19     -807641.1      -9359.5957      0.36293942     0.05510874     28.665506      3456.1091    
       970   1.94           277.91396      126869.46     -807640.01     -9435.955       0.36292559     0.055560457    28.652364      3455.7652    
       980   1.96           286.71565      131541.82     -807634.82     -9638.919       0.36291162     0.056757727    28.66204       3455.4094    
       990   1.98           294.0659       136446.1      -807628.84     -9862.5095      0.3628975      0.058076575    28.651699      3455.0663    
      1000   2              296.02204      140977.57     -807623.57     -10038.609      0.36288325     0.059115881    28.550228      3454.846     
      1010   2.02           283.45781      140597.48     -807623.8      -311.71575      0.36286884     0.058743062    28.704883      3454.438     
      1020   2.04           292.62139      137428.76     -807628.73     -308.02212      0.3628543      0.058049323    28.740347      3453.9895    
      1030   2.06           290.64872      129381.88     -807636.61     -299.92005      0.36283961     0.056524707    28.720228      3453.5664    
      1040   2.08           281.5162       127217.16     -807639.5      -295.7296       0.36282478     0.055737229    28.654893      3453.2203    
      1050   2.1            277.21282      124277.41     -807642.97     -291.80301      0.3628098      0.054999441    28.628423      3452.9045    
      1060   2.12           283.72097      128373.48     -807639.46     -296.29954      0.36279469     0.05584928     28.639154      3452.5759    
      1070   2.14           287.98298      130996.5      -807634.14     -302.42627      0.36277943     0.057006501    28.664863      3452.218     
      1080   2.16           298.53867      138657.83     -807628.07     -310.09788      0.36276402     0.058455059    28.67866       3451.8448    
      1090   2.18           286.41663      139360.2      -807625.35     -311.43193      0.36274848     0.058709051    28.705315      3451.4427    
      1100   2.2            286.0152       140722.2      -807624.97     -311.87661      0.36273279     0.058795422    28.745967      3450.9973    
      1110   2.22           287.31628      133894        -807631.83     -305.59265      0.36271695     0.057613275    28.75021       3450.549     
      1120   2.24           276.3314       131549.48     -807635.52     -300.49904      0.36270098     0.056655473    28.739038      3450.1146    
      1130   2.26           263.47008      125201.35     -807641.33     -293.18754      0.36268486     0.055279437    28.658936      3449.7667    
      1140   2.28           272.25629      126529.19     -807641.71     -294.16905      0.3626686      0.055466983    28.616928      3449.4632    
      1150   2.3            284.75047      126332.04     -807641.71     -296.23093      0.36265219     0.055858288    28.650231      3449.124     
      1160   2.32           277.54174      133931.64     -807632.53     -304.56582      0.36263564     0.057432562    28.690463      3448.7429    
      1170   2.34           284.46212      136907.99     -807629.44     -308.9028       0.36261895     0.058253075    28.725667      3448.3264    
      1180   2.36           272.89323      141255.13     -807623.99     -312.80739      0.36260212     0.058992144    28.682101      3447.9552    
      1190   2.38           274.02878      138375.39     -807626.83     -310.28951      0.36258514     0.058520039    28.6447        3447.6222    
      1200   2.4            282.14912      134266.16     -807632.63     -305.69041      0.36256802     0.057655379    28.626906      3447.3069    
      1210   2.42           272.73003      128772.99     -807638.36     -298.66544      0.36255076     0.056333103    28.637138      3446.9807    
      1220   2.44           266.08266      125928.43     -807642.08     -294.00392      0.36253335     0.055456527    28.706161      3446.5863    
      1230   2.46           275.47891      124783.04     -807643.64     -293.80577      0.3625158      0.055421833    28.674019      3446.2239    
      1240   2.48           274.24913      128079.83     -807639.7      -297.61902      0.36249811     0.056143883    28.711785      3445.8252    
      1250   2.5            288.67459      133209.53     -807634.81     -304.51426      0.36248028     0.057447451    28.726814      3445.4129    
      1260   2.52           281.80857      138179.65     -807628.28     -310.09695      0.3624623      0.058503544    28.745257      3444.9841    
      1270   2.54           269.15998      140286.94     -807624.49     -312.11563      0.36244418     0.058887337    28.727678      3444.5732    
      1280   2.56           285.75155      137604.31     -807629.3      -309.56396      0.36242592     0.058408852    28.713921      3444.1761    
      1290   2.58           274.75168      133822.23     -807632.8      -304.49156      0.36240751     0.057454703    28.706995      3443.7862    
      1300   2.6            284.18715      127417.01     -807641.3      -297.22043      0.36238896     0.056085581    28.70661       3443.3973    
      1310   2.62           259.40394      126324.78     -807641.45     -293.48875      0.36237027     0.055384268    28.695736      3443.0189    
      1320   2.64           269.70301      124764.24     -807643.19     -293.10424      0.36235143     0.055314582    28.67673       3442.6583    
      1330   2.66           273.37881      129042.06     -807638.15     -298.59652      0.36233245     0.056354036    28.699078      3442.2777    
      1340   2.68           284.38728      133802.08     -807633.14     -305.06002      0.36231333     0.057576929    28.732106      3441.8681    
      1350   2.7            278.54874      139072.07     -807626.52     -310.70403      0.36229407     0.058645296    28.689883      3441.4968    
      1360   2.72           278.21029      139845.93     -807625.5      -311.50458      0.36227466     0.058799548    28.611421      3441.1952    
      1370   2.74           278.74451      137670.6      -807628.3      -308.68464      0.36225511     0.058270403    28.603613      3440.8998    
      1380   2.76           289.55158      132662.56     -807635.04     -303.26657      0.36223542     0.057250746    28.623764      3440.586     
      1390   2.78           277.16081      127736.09     -807639.4      -296.99826      0.36221558     0.056070482    28.627696      3440.2682    
      1400   2.8            272.20385      125210.52     -807642.63     -292.86257      0.3621956      0.055292753    28.622065      3439.9549    
      1410   2.82           281.49391      124972.59     -807643.44     -293.24223      0.36217548     0.055367508    28.628949      3439.6352    
      1420   2.84           283.36775      130932.23     -807636.89     -299.9107       0.36215522     0.056629761    28.634824      3439.3101    
      1430   2.86           282.91812      135300.59     -807630.63     -305.94811      0.36213481     0.057773013    28.671171      3438.9541    
      1440   2.88           284.86434      139189.19     -807627.09     -309.5849       0.36211426     0.058463076    28.616848      3438.6436    
      1450   2.9            273.4148       140050.37     -807624.23     -310.68232      0.36209357     0.05867367     28.581825      3438.3615    
      1460   2.92           287.16054      136983.21     -807627.92     -308.75622      0.36207273     0.058313272    28.596644      3438.0664    
      1470   2.94           288.90475      132376.87     -807634.33     -302.43063      0.36205176     0.057121898    28.597163      3437.7701    
      1480   2.96           270.79861      128225.51     -807638.45     -295.55042      0.36203064     0.055825648    28.618049      3437.456     
      1490   2.98           288.97558      125268.34     -807643.98     -292.35004      0.36200937     0.055224381    28.683951      3437.0885    
      1500   3              278.75466      127031.6      -807640.19     -294.62778      0.36198796     0.055657933    28.649818      3436.7484    
      1510   3.02           294.97288      130657.92     -807636.96     -9599.2348      0.36196642     0.056671652    28.624966      3436.428     
      1520   3.04           288.38554      134848.79     -807631        -9756.2268      0.36194472     0.057601949    28.62694       3436.1056    
      1530   3.06           289.8267       138936.28     -807626.43     -9904.6322      0.36192289     0.05848168     28.594999      3435.808     
      1540   3.08           289.20621      140686.39     -807624.46     -9960.5529      0.36190091     0.058815434    28.597706      3435.5077    
      1550   3.1            283.81258      137142.12     -807627.5      -9835.2432      0.36187879     0.058079051    28.590163      3435.2125    
      1560   3.12           288.04552      132453.57     -807634.72     -9618.1679      0.36185653     0.056800673    28.578231      3434.9259    
      1570   3.14           282.44356      127271.4      -807639.65     -9430.748       0.36183412     0.055697302    28.578653      3434.6381    
      1580   3.16           273.7731       127082.31     -807638.9      -9412.7649      0.36181157     0.05559456     28.55893       3434.3646    
      1590   3.18           286.07592      127119.21     -807640.25     -9421.5549      0.36178888     0.055649966    28.606494      3434.0541    
      1600   3.2            292.35343      132054.03     -807635.83     -9583.8709      0.36176605     0.056612285    28.629442      3433.7258    
      1610   3.22           295.67732      134990.21     -807630        -9784.1262      0.36174307     0.057798872    28.652071      3433.3805    
      1620   3.24           291.38167      140978.38     -807623.63     -9959.5973      0.36171995     0.058839213    28.649996      3433.0366    
      1630   3.26           291.05963      138091.6      -807625.48     -9894.0055      0.36169669     0.058455469    28.619651      3432.715     
      1640   3.28           295.52463      136674.96     -807629.77     -9768.2526      0.36167329     0.057716234    28.610712      3432.3997    
      1650   3.3            295.80081      130434.87     -807635.17     -9591.1523      0.36164974     0.056673518    28.591087      3432.0982    
      1660   3.32           286.66159      128273.75     -807637.1      -9479.8739      0.36162605     0.05601965     28.571479      3431.8103    
      1670   3.34           294.45043      125425.42     -807642.59     -9336.9457      0.36160222     0.055178677    28.567049      3431.5249    
      1680   3.36           291.08369      129084.58     -807638.44     -9450.0637      0.36157824     0.055850876    28.598568      3431.2162    
      1690   3.38           302.55907      131456.01     -807635.29     -9601.7844      0.36155413     0.056751346    28.637092      3430.8796    
      1700   3.4            302.64472      137242.17     -807628.18     -9829.1147      0.36152987     0.05809888     28.649773      3430.5339    
      1710   3.42           284.26258      139218.74     -807624.56     -9862.7691      0.36150546     0.058301743    28.639097      3430.1956    
      1720   3.44           294.23611      138634.27     -807626.41     -9846.4413      0.36148092     0.058209177    28.614886      3429.8741    
      1730   3.46           298.1812       135180.99     -807630.25     -9745.033       0.36145623     0.057613617    28.623461      3429.5464    
      1740   3.48           291.93359      132088.45     -807634.22     -9591.2791      0.3614314      0.056708504    28.556144      3429.2649    
      1750   3.5            289.7906       127216.32     -807639.59     -9414.1522      0.36140643     0.055665086    28.591955      3428.958     
      1760   3.52           284.1714       126924.66     -807640.93     -9351.3035      0.36138131     0.05529731     28.590163      3428.6518    
      1770   3.54           295.84048      128753.35     -807638.27     -9497.0121      0.36135605     0.056162858    28.650781      3428.3041    
      1780   3.56           288.71486      133627.32     -807631.91     -9678.8555      0.36133065     0.057242256    28.617471      3427.9787    
      1790   3.58           290.02116      137294.23     -807627.97     -9819.1291      0.36130511     0.058075961    28.603493      3427.6625    
      1800   3.6            287.45319      138336.86     -807626.52     -9862.7026      0.36127942     0.058337827    28.599208      3427.3487    
      1810   3.62           284.68947      138438.94     -807626.65     -9855.9779      0.3612536      0.058302219    28.556127      3427.0632    
      1820   3.64           285.81006      134346.03     -807630.63     -9742.9862      0.36122763     0.057637969    28.570059      3426.7678    
      1830   3.66           279.16557      129996.82     -807636.12     -9541.8399      0.36120151     0.0564521      28.547251      3426.4867    
      1840   3.68           288.19356      125707.78     -807642.69     -9378.5083      0.36117526     0.05548982     28.542204      3426.2082    
      1850   3.7            272.88435      126671.89     -807639.71     -9410.6211      0.36114886     0.055683892    28.637287      3425.8672    
      1860   3.72           286.72498      129003.34     -807638.27     -9524.962       0.36112232     0.056364604    28.660749      3425.5111    
      1870   3.74           282.34551      132510.16     -807633.57     -9661.2962      0.36109564     0.057175595    28.632642      3425.173     
      1880   3.76           285.4874       136784.83     -807630.04     -9792.9487      0.36106881     0.057959021    28.613662      3424.8468    
      1890   3.78           282.04449      138147.13     -807626.9      -9882.2059      0.36104184     0.058491653    28.619891      3424.5165    
      1900   3.8            278.9128       137691.26     -807627.5      -9852.8315      0.36101474     0.058322169    28.646345      3424.1693    
      1910   3.82           274.44511      133621.72     -807632.26     -9683.3494      0.36098748     0.057323275    28.607842      3423.8463    
      1920   3.84           270.47159      129950.45     -807637.4      -9503.4014      0.36096009     0.056262293    28.553941      3423.5566    
      1930   3.86           274.99064      126700.28     -807641.49     -9394.505       0.36093255     0.055621845    28.623816      3423.2229    
      1940   3.88           272.03358      127077.37     -807640.09     -9427.6757      0.36090487     0.055822519    28.642889      3422.8773    
      1950   3.9            274.07616      129320.34     -807638.01     -9507.302       0.36087705     0.056298337    28.636015      3422.5358    
      1960   3.92           281.74127      133440.9      -807634.52     -9653.757       0.36084909     0.057170013    28.646832      3422.1877    
      1970   3.94           280.63075      136842.48     -807629.44     -9814.4274      0.36082098     0.058126038    28.640145      3421.8436    
      1980   3.96           271.3057       139298.59     -807625.12     -9913.2485      0.36079273     0.058715904    28.611044      3421.517     
      1990   3.98           267.7377       136880.81     -807628.25     -9798.1537      0.36076434     0.058038768    28.635179      3421.1757    
      2000   4              281.47726      132902.67     -807635.72     -9619.6844      0.36073581     0.056986123    28.635248      3420.8343    
      2010   4.02           273.96369      128356.03     -807638.31     -296.97422      0.36070713     0.056300407    28.678499      3420.4671    
      2020   4.04           282.03575      126242.96     -807641.51     -294.84539      0.36067831     0.05590129     28.702006      3420.0863    
      2030   4.06           271.23213      126583.8      -807641.54     -293.33014      0.36064935     0.055618472    28.722469      3419.6938    
      2040   4.08           280.07464      129515.54     -807639.48     -296.56689      0.36062025     0.056236732    28.713472      3419.3069    
      2050   4.1            276.01623      133722.65     -807632.72     -302.81512      0.36059101     0.057426214    28.717889      3418.9179    
      2060   4.12           275.38865      137629.05     -807627.64     -307.74471      0.36056162     0.058365823    28.711025      3418.5333    
      2070   4.14           271.19198      138280.05     -807627.67     -307.08059      0.36053209     0.058244638    28.670769      3418.1721    
      2080   4.16           281.25128      136614.69     -807631.19     -304.79514      0.36050242     0.057815911    28.612084      3417.8447    
      2090   4.18           286.15199      131802.28     -807635.42     -301.15752      0.36047261     0.057130623    28.576354      3417.5376    
      2100   4.2            277.21645      129253.01     -807637.39     -297.81018      0.36044265     0.056500317    28.631463      3417.1987    
      2110   4.22           271.61024      126638.82     -807641.14     -293.14044      0.36041256     0.055619022    28.670992      3416.8373    
      2120   4.24           277.97028      127734.25     -807641.82     -293.22297      0.36038232     0.055639349    28.709022      3416.4548    
      2130   4.26           273.53138      131031.06     -807636.07     -298.29373      0.36035193     0.056606302    28.73149       3416.06      
      2140   4.28           275.42948      134572.66     -807630.19     -304.28846      0.36032141     0.057748796    28.728884      3415.6671    
      2150   4.3            284.61769      136301.68     -807630.11     -305.42648      0.36029075     0.057969707    28.746239      3415.2651    
      2160   4.32           275.62045      138253.53     -807628.01     -305.98536      0.36025994     0.058080748    28.733635      3414.8705    
      2170   4.34           279.61301      135859.35     -807629.53     -304.87756      0.36022899     0.057875441    28.732216      3414.477     
      2180   4.36           288.03045      133132.62     -807633.76     -301.50066      0.36019789     0.05723934     28.716058      3414.0928    
      2190   4.38           279.23672      128417.02     -807639.61     -294.13421      0.36016666     0.055845676    28.700735      3413.7172    
      2200   4.4            280.31312      127268.93     -807640.77     -292.77391      0.36013528     0.055592245    28.650524      3413.369     
      2210   4.42           277.82072      128069.95     -807638.19     -294.83745      0.36010377     0.055988973    28.657899      3413.0169    
      2220   4.44           285.78144      131012.56     -807634.72     -299.19714      0.36007211     0.056821864    28.675984      3412.6551    
      2230   4.46           288.79436      135037.64     -807631.6      -302.49291      0.3600403      0.057452853    28.666919      3412.2982    
      2240   4.48           286.49918      137462.07     -807627.84     -305.75214      0.36000836     0.058077035    28.642506      3411.9543    
      2250   4.5            280.67994      139140.8      -807624.71     -307.88086      0.35997627     0.058486593    28.641956      3411.6107    
      2260   4.52           291.13027      135308.34     -807629.71     -304.13952      0.35994404     0.057781044    28.663854      3411.2556    
      2270   4.54           293.21338      131580.72     -807635.48     -298.44911      0.35991167     0.056705067    28.662672      3410.9011    
      2280   4.56           285.37589      127583.55     -807639.52     -293.24597      0.35987916     0.055721509    28.731253      3410.5109    
      2290   4.58           280.80831      128118.36     -807638.23     -293.78069      0.35984651     0.055828181    28.705805      3410.1343    
      2300   4.6            293.08314      127309.3      -807639.27     -294.48182      0.35981371     0.05596652     28.718961      3409.7512    
      2310   4.62           288.4628       132753.43     -807634.46     -298.55392      0.35978077     0.056745621    28.791587      3409.3312    
      2320   4.64           285.81466      135338.6      -807630.23     -302.50849      0.35974769     0.057502546    28.780643      3408.9174    
      2330   4.66           286.86425      138967.46     -807625.03     -307.82057      0.35971447     0.058517699    28.742079      3408.5237    
      2340   4.68           285.27455      137185.08     -807627.35     -305.35358      0.35968111     0.058054102    28.693661      3408.1549    
      2350   4.7            283.23205      136170.16     -807630.28     -302.09175      0.3596476      0.057439309    28.624635      3407.8212    
      2360   4.72           287.21188      130627.48     -807635.68     -297.368        0.35961396     0.056546433    28.587715      3407.506     
      2370   4.74           284.26494      128486.7      -807638.39     -294.27778      0.35958017     0.055964066    28.673957      3407.1472    
      2380   4.76           281.67742      127541.23     -807640.43     -291.9833       0.35954624     0.055532956    28.765032      3406.7432    
      2390   4.78           289.75983      128772.16     -807639.84     -293.8544       0.35951216     0.055894121    28.755263      3406.3445    
      2400   4.8            288.3862       131729.65     -807634.87     -298.82608      0.35947795     0.056845194    28.730573      3405.9584    
      2410   4.82           291.04867      136185.21     -807629.89     -304.39092      0.35944359     0.05790932     28.727322      3405.5742    
      2420   4.84           284.12657      138109.84     -807628.06     -305.51481      0.35940909     0.058128716    28.686239      3405.2104    
      2430   4.86           281.17992      137317.35     -807628.43     -305.01664      0.35937446     0.058039525    28.722014      3404.8292    
      2440   4.88           275.67464      134160.31     -807631.22     -301.62776      0.35933967     0.057400233    28.740065      3404.4396    
      2450   4.9            275.17493      130540.64     -807636.13     -296.84632      0.35930475     0.056495809    28.721415      3404.0594    
      2460   4.92           278.38854      127260.44     -807640.18     -293.37749      0.35926969     0.055841069    28.762316      3403.6597    
      2470   4.94           281.22569      126896.48     -807641.4      -292.7032       0.35923448     0.055718186    28.776796      3403.2536    
      2480   4.96           279.17042      129062.03     -807638.78     -295.20643      0.35919913     0.056200226    28.744098      3402.8635    
      2490   4.98           276.72638      132493.29     -807633.99     -299.78182      0.35916364     0.057076908    28.753675      3402.4692    
      2500   5              275.48173      136162.1      -807629.5      -304.13617      0.35912801     0.0579117      28.696881      3402.1021    
[...]
     98740   197.48         283.73901      133893.99     -807631.81     -9767.5123      0.36236891     0.057601073    28.616267      44.900271    
     98750   197.5          283.10891      133203.29     -807633.31     -9722.05        0.36238762     0.057330013    28.603564      44.543834    
     98760   197.52         274.30511      134982.38     -807631.26     -9750.5465      0.36240618     0.05749511     28.572952      44.187404    
     98770   197.54         271.06602      132847.22     -807632.18     -9713.347       0.36242459     0.057272849    28.539049      43.83098     
     98780   197.56         286.66019      133562.67     -807633.47     -9743.7134      0.36244287     0.057449001    28.543486      43.474556    
     98790   197.58         272.77177      130267.46     -807635.55     -9621.2877      0.362461       0.056724341    28.54455       43.118133    
     98800   197.6          282.99923      132155.52     -807637.7      -9599.3866      0.36247899     0.05659241     28.521971      42.761715    
     98810   197.62         280.30637      129781.66     -807636.42     -9634.3471      0.36249683     0.056795721    28.538338      42.405296    
     98820   197.64         280.93872      133762.41     -807633.24     -9740.2766      0.36251453     0.057417385    28.507887      42.048883    
     98830   197.66         282.0839       132067.45     -807635.08     -9693.0484      0.36253209     0.057136215    28.509789      41.69247     
     98840   197.68         279.02536      134793.31     -807632.5      -9762.4174      0.36254951     0.057542349    28.48706       41.336062    
     98850   197.7          278.80979      133013.84     -807633.17     -9746.7533      0.36256678     0.057447284    28.512139      40.979651    
     98860   197.72         281.06324      134540.08     -807632.48     -9780.9963      0.36258391     0.057646389    28.440875      40.623252    
     98870   197.74         269.59643      130573.27     -807635.18     -9648.4038      0.3626009      0.056862262    28.498684      40.266845    
     98880   197.76         282.39876      131605.56     -807637.11     -9644.6811      0.36261774     0.056837682    28.524687      39.910436    
     98890   197.78         271.88643      129951.54     -807636.11     -9634.1046      0.36263445     0.056772739    28.542217      39.554026    
     98900   197.8          279.66274      132141.67     -807635.43     -9691.5484      0.362651       0.057108641    28.565644      39.197613    
     98910   197.82         273.13792      131402.78     -807635.42     -9665.2427      0.36266742     0.056951053    28.563724      38.841203    
     98920   197.84         283.02996      133642.48     -807634.85     -9728.4311      0.36268369     0.05732081     28.578512      38.484791    
     98930   197.86         266.71519      133848.92     -807631        -9781.6206      0.36269982     0.057631645    28.542058      38.128386    
     98940   197.88         285.06865      134084.35     -807633.09     -9795.8604      0.36271581     0.057712999    28.487106      37.771989    
     98950   197.9          275.34958      133134.39     -807634.59     -9705.7632      0.36273165     0.057179688    28.478148      37.415594    
     98960   197.92         270.95682      132857.43     -807635        -9670.3573      0.36274735     0.056968635    28.505748      37.059197    
     98970   197.94         276.83733      130726.96     -807635.83     -9670.4239      0.36276291     0.056966584    28.532116      36.702798    
     98980   197.96         276.57446      131015.03     -807635.92     -9664.5211      0.36277832     0.056929393    28.504635      36.346403    
     98990   197.98         273.66617      132144.44     -807636.06     -9645.7518      0.36279359     0.05681644     28.476743      35.990013    
     99000   198            279.29781      132555.87     -807634.87     -9705.1759      0.36280872     0.057164082    28.578695      35.633611    
     99010   198.02         278.37356      134796.59     -807631.61     -306.29309      0.3628237      0.05772834     28.667184      35.2772      
     99020   198.04         277.57371      134137.5      -807632.03     -305.67145      0.36283855     0.05760882     28.593756      34.920799    
     99030   198.06         282.66962      134287.86     -807633.53     -304.63762      0.36285324     0.057411652    28.520164      34.564409    
     99040   198.08         281.129        131560.37     -807635.48     -302.38612      0.3628678      0.056985051    28.544567      34.208016    
     99050   198.1          274.16024      132716.67     -807632.42     -304.2288       0.36288221     0.057330028    28.595778      33.851619    
     99060   198.12         277.08229      130132.43     -807636.02     -300.89846      0.36289648     0.056700218    28.587009      33.495225    
     99070   198.14         273.92998      133555.63     -807634.26     -301.90451      0.36291061     0.05688758     28.597594      33.13883     
     99080   198.16         291.31875      130369.83     -807636.82     -301.63736      0.36292459     0.056835051    28.634042      32.782433    
     99090   198.18         278.4143       134809.49     -807630.27     -306.07591      0.36293843     0.057669172    28.638039      32.426036    
     99100   198.2          284.40898      133122.67     -807632.66     -304.42619      0.36295213     0.057356175    28.584161      32.069647    
     99110   198.22         283.24422      136127.1      -807631.4      -305.21025      0.36296568     0.057501751    28.594841      31.713258    
     99120   198.24         290.90152      132488.3      -807634.22     -303.42872      0.36297909     0.057163999    28.522488      31.356879    
     99130   198.26         284.44807      135247.51     -807631.14     -305.35874      0.36299236     0.057525498    28.561798      31.000496    
     99140   198.28         281.61134      130834.86     -807634.12     -301.95901      0.36300548     0.056882979    28.601267      30.644111    
     99150   198.3          283.85886      132687.56     -807634.56     -301.57689      0.36301846     0.056808964    28.643253      30.287722    
     99160   198.32         283.11583      131112.97     -807634.78     -301.30783      0.3630313      0.056756273    28.634242      29.931336    
     99170   198.34         284.58257      133759.44     -807631.02     -305.15664      0.36304399     0.057479249    28.599834      29.574954    
     99180   198.36         283.21491      133195.25     -807632.75     -303.21114      0.36305655     0.05711082     28.604799      29.218574    
     99190   198.38         288.36896      134301.28     -807633.16     -303.47105      0.36306895     0.057157822    28.610623      28.862194    
     99200   198.4          283.6437       133845.05     -807630.8      -305.17454      0.36308122     0.057476727    28.633887      28.505814    
     99210   198.42         297.79258      133137.27     -807632.26     -305.75922      0.36309334     0.057584923    28.645671      28.149434    
     99220   198.44         286.11123      133520.94     -807632.65     -303.67443      0.36310532     0.057190401    28.654052      27.793054    
     99230   198.46         291.55021      131564.17     -807636.05     -301.15084      0.36311715     0.056713289    28.663006      27.436675    
     99240   198.48         280.5956       132573.35     -807632.76     -302.97144      0.36312885     0.05705431     28.648365      27.080299    
     99250   198.5          292.10571      132312.95     -807634.56     -302.92022      0.3631404      0.05704285     28.625924      26.723926    
     99260   198.52         284.13913      133024.34     -807633.33     -303.07463      0.3631518      0.057070134    28.582746      26.367559    
     99270   198.54         279.35101      133056.54     -807633.49     -302.38514      0.36316306     0.056938536    28.549058      26.011197    
     99280   198.56         285.00326      134842.56     -807631.86     -304.94047      0.36317418     0.05741794     28.521028      25.654837    
     99290   198.58         284.42299      133310.29     -807631.37     -305.50965      0.36318516     0.057523375    28.495944      25.298482    
     99300   198.6          284.37468      133723.6      -807632.39     -304.49475      0.36319599     0.057330572    28.540243      24.942123    
     99310   198.62         284.97948      132394.65     -807634.98     -302.18603      0.36320668     0.056894211    28.593248      24.585761    
     99320   198.64         286.41524      133586.98     -807633.39     -304.17868      0.36321723     0.057267715    28.625318      24.229398    
     99330   198.66         279.34071      131439.1      -807633.49     -303.27038      0.36322763     0.057095074    28.60377       23.873038    
     99340   198.68         278.83387      132288        -807634.36     -302.42842      0.36323789     0.056934954    28.614585      23.516679    
     99350   198.7          275.59741      131924.56     -807634.89     -301.6695       0.36324801     0.056790498    28.620608      23.16032     
     99360   198.72         275.08149      133608.74     -807631.76     -304.80484      0.36325798     0.057379163    28.63391       22.803962    
     99370   198.74         285.28728      132886.64     -807633.04     -305.15151      0.36326781     0.05744287     28.631614      22.447606    
     99380   198.76         282.11375      134858.96     -807632.91     -304.88692      0.3632775      0.057391532    28.678938      22.091247    
     99390   198.78         281.78549      132967.8      -807634.46     -303.43581      0.36328704     0.057116876    28.650744      21.734892    
     99400   198.8          281.29628      133459.79     -807633.16     -304.71687      0.36329644     0.05735653     28.640543      21.378539    
     99410   198.82         276.46809      131852.93     -807633.36     -303.98389      0.3633057      0.057217104    28.633887      21.022188    
     99420   198.84         278.2042       131797.3      -807634.98     -302.58462      0.36331481     0.0569523      28.64429       20.665838    
     99430   198.86         271.37429      132026.52     -807635.13     -301.55264      0.36332378     0.056756659    28.580783      20.309493    
     99440   198.88         279.39417      133207.95     -807633.28     -304.54474      0.36333261     0.057318425    28.589497      19.95315     
     99450   198.9          276.18171      133516.94     -807632.41     -305.01694      0.36334129     0.057405925    28.583499      19.596808    
     99460   198.92         290.80244      133472.68     -807635.04     -304.37501      0.36334983     0.057283765    28.583019      19.240467    
     99470   198.94         281.43541      133317.05     -807633.59     -304.52825      0.36335823     0.05731128     28.577218      18.884128    
     99480   198.96         288.18318      132465.9      -807634.31     -304.80673      0.36336648     0.057362386    28.588749      18.52779     
     99490   198.98         271.22884      133594.9      -807631.3      -305.46512      0.3633746      0.057485007    28.590274      18.171453    
     99500   199            278.76181      131081.95     -807635.76     -302.10113      0.36338256     0.056850697    28.603924      17.815116    
     99510   199.02         276.58033      132660.61     -807635.2      -9674.0042      0.36339039     0.056889272    28.553476      17.458784    
     99520   199.04         269.45062      131955.17     -807633.5      -9699.4546      0.36339807     0.057037731    28.569719      17.102452    
     99530   199.06         273.18738      133868.08     -807631.77     -9767.6286      0.3634056      0.057437438    28.580834      16.74612     
     99540   199.08         278.46863      131896.13     -807634.87     -9693.0099      0.363413       0.056997491    28.55326       16.389792    
     99550   199.1          278.73155      134449.16     -807633.11     -9746.7434      0.36342025     0.057312315    28.576088      16.033463    
     99560   199.12         274.86398      132617.96     -807631.7      -9778.9303      0.36342736     0.057500454    28.55916       15.677137    
     99570   199.14         286.41296      133973.79     -807632.61     -9798.8875      0.36343432     0.057616699    28.589526      15.32081     
     99580   199.16         274.86736      132136.63     -807634.72     -9679.1974      0.36344114     0.056911862    28.571772      14.964486    
     99590   199.18         281.17045      133393.87     -807634.13     -9723.9692      0.36344782     0.057174062    28.567804      14.608163    
     99600   199.2          274.40512      132676.13     -807632.89     -9734.9007      0.36345435     0.057237307    28.560704      14.251841    
     99610   199.22         283.83335      132336.71     -807633.96     -9739.7439      0.36346074     0.057264776    28.544391      13.895522    
     99620   199.24         280.33817      131251.07     -807635.88     -9663.3461      0.36346699     0.056814619    28.567987      13.539203    
     99630   199.26         281.43044      132633.07     -807634.4      -9713.9079      0.3634731      0.057110933    28.55146       13.182885    
     99640   199.28         283.81905      133052.86     -807632.34     -9790.5805      0.36347906     0.05756077     28.510487      12.826571    
     99650   199.3          280.11407      133017.1      -807632.93     -9752.1877      0.36348487     0.057334133    28.533128      12.470257    
     99660   199.32         283.85577      132644.48     -807634.71     -9710.2495      0.36349055     0.057086683    28.49282       12.113946    
     99670   199.34         286.30164      132642.13     -807634.69     -9720.6419      0.36349608     0.05714691     28.528188      11.757634    
     99680   199.36         276.48707      133787.1      -807631.12     -9789.766       0.36350147     0.057552432    28.565969      11.401322    
     99690   199.38         287.77434      132243.96     -807634.78     -9721.5531      0.36350671     0.057150595    28.570757      11.045011    
     99700   199.4          281.48227      132457.41     -807634.73     -9690.6918      0.36351181     0.05696837     28.494152      10.688705    
     99710   199.42         280.15569      132191.48     -807634.05     -9706.7275      0.36351677     0.057061861    28.507308      10.332398    
     99720   199.44         278.25629      134251.58     -807630.83     -9801.0877      0.36352158     0.057615802    28.490042      9.976094     
     99730   199.46         278.85436      132562.85     -807632.62     -9743.6022      0.36352625     0.057277138    28.522357      9.6197895    
     99740   199.48         285.57967      133696.51     -807634.68     -9703.2272      0.36353078     0.057039085    28.510107      9.2634866    
     99750   199.5          272.4658       133227.21     -807631.09     -9758.7159      0.36353516     0.057364576    28.456346      8.9071864    
     99760   199.52         281.3182       134031.45     -807630.37     -9817.5615      0.3635394      0.057709815    28.43874       8.5508878    
     99770   199.54         288.90556      132013.67     -807634.84     -9706.5305      0.3635435      0.057056507    28.472836      8.1945891    
     99780   199.56         278.53245      133581.59     -807634.48     -9665.2842      0.36354745     0.056813437    28.517477      7.8382902    
     99790   199.58         289.71852      131651.6      -807634.77     -9706.386       0.36355126     0.057054439    28.553282      7.4819915    
     99800   199.6          280.73698      134092.88     -807631.22     -9774.7898      0.36355493     0.057455939    28.548392      7.1256942    
     99810   199.62         286.65945      131956.83     -807634.89     -9682.1055      0.36355845     0.056910592    28.493092      6.7693993    
     99820   199.64         277.52292      134095.11     -807632.73     -9705.217       0.36356183     0.057045909    28.469733      6.4131061    
     99830   199.66         285.73485      133209.3      -807631.89     -9768.9479      0.36356507     0.057419999    28.508046      6.056813     
     99840   199.68         282.45321      135100.77     -807629.37     -9829.6644      0.36356816     0.057776387    28.532651      5.7005206    
     99850   199.7          289.40996      132373.61     -807634.13     -9704.9056      0.36357111     0.057042623    28.535522      5.3442293    
     99860   199.72         284.24052      133045.35     -807634.29     -9672.7525      0.36357392     0.056853197    28.513235      4.9879395    
     99870   199.74         291.62647      130990.74     -807634.45     -9700.2489      0.36357658     0.057014394    28.547681      4.6316503    
     99880   199.76         280.78559      133629.59     -807630.28     -9781.088       0.3635791      0.057489137    28.582426      4.2753618    
     99890   199.78         290.70389      131509.47     -807635.63     -9655.4099      0.36358148     0.056750083    28.585062      3.9190746    
     99900   199.8          285.41165      133699.26     -807633.28     -9702.7121      0.36358371     0.057027753    28.546349      3.5627891    
     99910   199.82         282.4264       133844.28     -807631.22     -9757.9963      0.3635858      0.057352357    28.518097      3.2065051    
     99920   199.84         279.19412      136028.85     -807627.89     -9848.0966      0.36358775     0.057881609    28.544158      2.850222     
     99930   199.86         290.88795      132959.4      -807633.59     -9717.3517      0.36358955     0.057112881    28.56932       2.4939399    
     99940   199.88         299.523        132843.57     -807635.55     -9693.9666      0.36359121     0.056975177    28.539987      2.1376592    
     99950   199.9          275.39528      133071.4      -807630.29     -9759.8649      0.36359273     0.057362248    28.551967      1.7813797    
     99960   199.92         287.30917      132439.64     -807632.42     -9748.2724      0.3635941      0.057293898    28.577725      1.4251012    
     99970   199.94         286.53999      131945.49     -807634.69     -9673.3606      0.36359533     0.056853423    28.557075      1.0688241    
     99980   199.96         284.52022      132166.43     -807635.2      -9655.7467      0.36359641     0.056749732    28.492497      0.71254831   
     99990   199.98         277.69919      133754.99     -807630.19     -9790.6721      0.36359736     0.05754258     28.51244       0.3562736    
    100000   200            298.05996      132299.41     -807633.52     -9781.4977      0.36359816     0.057488533    28.56067       0            
Loop time of 3562.73 on 32 procs for 100000 steps with 1080 atoms

Performance: 4.850 ns/day, 4.948 hours/ns, 28.068 timesteps/s, 30.314 katom-step/s
62.7% CPU use with 32 MPI tasks x 1 OpenMP threads

MPI task timing breakdown:
Section |  min time  |  avg time  |  max time  |%varavg| %total
---------------------------------------------------------------
Pair    | 2515.6     | 2811.3     | 3155.4     | 229.3 | 78.91
Neigh   | 0.0016551  | 0.0017588  | 0.0019796  |   0.2 |  0.00
Comm    | 327.13     | 670.82     | 966.4      | 469.2 | 18.83
Output  | 2.5097     | 2.5158     | 2.5253     |   0.2 |  0.07
Modify  | 70.162     | 70.706     | 71.64      |   3.8 |  1.98
Other   |            | 7.36       |            |       |  0.21

Nlocal:          33.75 ave          42 max          27 min
Histogram: 3 0 7 4 4 3 5 2 2 2
Nghost:        1042.28 ave        1061 max        1026 min
Histogram: 2 2 6 3 5 5 3 2 2 2
Neighs:              0 ave           0 max           0 min
Histogram: 32 0 0 0 0 0 0 0 0 0
FullNghs:       5336.5 ave        6678 max        4258 min
Histogram: 3 3 4 7 1 5 3 3 1 2

Total # of neighbors = 170768
Ave neighs/atom = 158.11852
Neighbor list builds = 4
Dangerous builds = 0

Total wall time: 1:02:56
